INSANE! Membrane UpperLeaflet>loPI:POPI:DPPI:PYPI:ERGO=140.0:15.0:9.0:6.0:30.0 LowerLeaflet>loPI:POPI:DPPI:PYPI:ERGO=140.0:15.0:9.0:6.0:30.0
48854
    1loPI    C1    1   6.109   6.837  11.496  0.0441  0.0836 -0.2772
    1loPI    C2    2   6.487   6.749  11.400  0.1958  0.1597  0.2199
    1loPI    C3    3   6.377   6.763  11.784 -0.3878 -0.1573  0.0757
    1loPI   PO4    4   6.028   6.893  11.224 -0.0632 -0.4432 -0.3813
    1loPI   GL1    5   5.857   6.758  10.915 -0.0181  0.0157 -0.0461
    1loPI   GL2    6   5.683   6.984  10.807  0.0423  0.1999 -0.0648
    1loPI   C1A    7   6.288   6.706  10.688  0.0411 -0.0937 -0.1010
    1loPI   C2A    8   6.337   6.743  10.302 -0.2407  0.0306 -0.2826
    1loPI   C3A    9   6.354   6.807   9.887 -0.0692 -0.1492  0.1387
    1loPI   C4A   10   6.486   6.615   9.480  0.0943 -0.1825  0.0885
    1loPI   C5A   11   6.522   6.575   8.969  0.3433 -0.1199  0.2505
    1loPI   C6A   12   6.549   6.372   8.529 -0.2204  0.0291  0.0104
    1loPI   C1B   13   5.747   6.782  10.360  0.0114  0.0683  0.1376
    1loPI   C2B   14   5.835   6.814   9.890  0.0501 -0.0562  0.1113
    1loPI   C3B   15   5.856   6.677   9.440  0.2086  0.2552 -0.1680
    1loPI   C4B   16   5.959   6.608   9.023 -0.2046 -0.0020  0.0865
    2loPI    C1   17  10.884   8.496  11.588 -0.0116 -0.0296  0.1092
    2loPI    C2   18  10.789   8.870  11.483 -0.1258 -0.0101  0.2767
    2loPI    C3   19  10.677   8.729  11.840  0.1418 -0.1183  0.3204
    2loPI   PO4   20  10.801   8.348  11.341 -0.1725 -0.2336 -0.2470
    2loPI   GL1   21  11.037   8.164  11.005 -0.1861  0.1699 -0.2886
    2loPI   GL2   22  11.246   8.151  11.102  0.1827  0.1578 -0.3203
    2loPI   C1A   23  11.047   8.064  10.621  0.0888  0.2933 -0.3885
    2loPI   C2A   24  11.115   8.101  10.183 -0.0696  0.0877  0.1887
    2loPI   C3A   25  11.162   8.091   9.780  0.0347 -0.2084 -0.0719
    2loPI   C4A   26  11.145   8.256   9.292 -0.1440  0.0001 -0.2304
    2loPI   C5A   27  10.933   8.013   9.069 -0.0705  0.1515 -0.0283
    2loPI   C6A   28  10.649   7.929   8.725  0.0593  0.0087 -0.1532
    2loPI   C1B   29  11.533   8.013  10.806 -0.1625  0.3523  0.3829
    2loPI   C2B   30  11.643   8.053  10.384 -0.1628  0.0475  0.0651
    2loPI   C3B   31  11.676   8.067   9.939  0.2821 -0.1598  0.4111
    2loPI   C4B   32  11.756   8.037   9.511 -0.0847 -0.0383  0.2036
    3loPI    C1   33  10.738   6.086  11.545  0.1013 -0.0538 -0.2331
    3loPI    C2   34  11.037   6.017  11.802  0.0991  0.1810 -0.1648
    3loPI    C3   35  10.680   5.846  11.859  0.1707  0.0344 -0.1518
    3loPI   PO4   36  10.823   6.114  11.362  0.0975  0.0793  0.0113
    3loPI   GL1   37  10.482   6.288  11.076  0.0724  0.0356  0.2227
    3loPI   GL2   38  10.654   5.959  10.935  0.3195 -0.2292 -0.0944
    3loPI   C1A   39  10.502   6.257  10.581  0.1760  0.1623 -0.1416
    3loPI   C2A   40  10.460   6.374  10.233 -0.0921 -0.1543 -0.0909
    3loPI   C3A   41  10.546   6.403   9.871 -0.4098  0.4521  0.2565
    3loPI   C4A   42  10.472   6.464   9.429 -0.0885  0.1664 -0.1067
    3loPI   C5A   43  10.339   6.381   8.963 -0.1476 -0.2571 -0.2855
    3loPI   C6A   44  10.052   6.641   8.734  0.2128 -0.2848 -0.2550
    3loPI   C1B   45  10.731   5.827  10.556 -0.3211  0.1052 -0.0857
    3loPI   C2B   46  10.696   5.866  10.142 -0.0332 -0.2915  0.0352
    3loPI   C3B   47  10.735   5.876   9.679 -0.1162 -0.0623  0.1082
    3loPI   C4B   48  10.695   5.989   9.319  0.0231 -0.0119 -0.0613
    4loPI    C1   49  11.864  12.335  11.918  0.2288  0.0868  0.0277
    4loPI    C2   50  12.091  12.659  11.974  0.1635  0.1156  0.1291
    4loPI    C3   51  11.951  12.457  12.289 -0.0701  0.1809  0.0689
    4loPI   PO4   52  11.965  12.266  11.649 -0.3038  0.1975  0.1417
    4loPI   GL1   53  11.822  12.270  11.169 -0.0367 -0.1435 -0.0589
    4loPI   GL2   54  11.642  12.633  11.141  0.0515  0.0585  0.1324
    4loPI   C1A   55  11.813  12.229  10.800  0.1453  0.3059  0.3022
    4loPI   C2A   56  11.832  12.115  10.340 -0.1209 -0.3433 -0.2193
    4loPI   C3A   57  11.794  12.132   9.981 -0.3749 -0.0727  0.0856
    4loPI   C4A   58  11.833  12.153   9.566  0.0450  0.2392  0.0978
    4loPI   C5A   59  11.775  12.258   9.100  0.2408  0.1034  0.1552
    4loPI   C6A   60  11.528  12.246   8.658  0.1163  0.0558 -0.0128
    4loPI   C1B   61  11.597  12.722  10.764  0.0230  0.3053 -0.2760
    4loPI   C2B   62  11.666  12.599  10.379 -0.1320 -0.2404 -0.0526
    4loPI   C3B   63  11.687  12.586  10.000  0.0107 -0.2425  0.2440
    4loPI   C4B   64  11.651  12.619   9.586 -0.0598 -0.2231  0.1747
    5loPI    C1   65  15.179  14.700  11.676 -0.1363  0.2121 -0.1927
    5loPI    C2   66  15.435  15.007  11.653  0.1504  0.0127  0.2046
    5loPI    C3   67  15.249  14.927  11.998 -0.0360 -0.1719  0.0638
    5loPI   PO4   68  15.013  14.718  11.453  0.1104 -0.2020 -0.1557
    5loPI   GL1   69  14.895  15.020  11.151 -0.0084  0.0637 -0.0647
    5loPI   GL2   70  15.233  15.157  11.242  0.0929  0.0561  0.0471
    5loPI   C1A   71  14.948  14.904  10.706  0.2246 -0.1575 -0.0297
    5loPI   C2A   72  15.040  14.876  10.150  0.0936 -0.2030 -0.0102
    5loPI   C3A   73  15.016  14.856   9.732  0.1542  0.0891 -0.0790
    5loPI   C4A   74  14.994  14.931   9.381 -0.0577  0.4365  0.2891
    5loPI   C5A   75  15.140  15.223   9.020  0.1562 -0.0439  0.0124
    5loPI   C6A   76  15.481  14.990   8.639 -0.1828 -0.0539  0.0353
    5loPI   C1B   77  15.348  15.335  10.868 -0.1657 -0.3121 -0.2182
    5loPI   C2B   78  15.268  15.357  10.421 -0.0073 -0.0910 -0.1488
    5loPI   C3B   79  15.356  15.237   9.965  0.1456 -0.1096  0.0624
    5loPI   C4B   80  15.350  15.310   9.533  0.1285 -0.1360 -0.0234
    6loPI    C1   81  12.843   6.909  11.595  0.0451  0.0353  0.0649
    6loPI    C2   82  13.187   7.090  11.692  0.0536 -0.0850  0.2665
    6loPI    C3   83  13.122   6.711  11.802  0.0407 -0.2132 -0.1616
    6loPI   PO4   84  12.764   6.955  11.305  0.0474 -0.1954 -0.2453
    6loPI   GL1   85  12.603   7.215  11.009  0.2009 -0.1091  0.0426
    6loPI   GL2   86  12.447   7.000  10.845  0.1095 -0.3962 -0.2437
    6loPI   C1A   87  12.725   7.404  10.710  0.0008 -0.1070 -0.0288
    6loPI   C2A   88  12.816   7.345  10.225 -0.3753 -0.2537 -0.3280
    6loPI   C3A   89  12.812   7.443   9.775  0.2561  0.1695 -0.1398
    6loPI   C4A   90  12.807   7.549   9.329  0.0869 -0.0618 -0.2575
    6loPI   C5A   91  12.590   7.280   8.981  0.1542 -0.2084  0.1178
    6loPI   C6A   92  12.479   7.108   8.708  0.0824  0.2595 -0.0238
    6loPI   C1B   93  12.521   7.017  10.435  0.1070 -0.2849 -0.3067
    6loPI   C2B   94  12.490   7.081   9.977 -0.0146 -0.0377  0.2384
    6loPI   C3B   95  12.514   7.083   9.504  0.1501  0.1399 -0.0107
    6loPI   C4B   96  12.692   6.815   9.110 -0.1262  0.1067  0.0860
    7loPI    C1   97   1.005   4.275  11.502  0.0905  0.0040 -0.0118
    7loPI    C2   98   1.327   4.174  11.717  0.0461  0.0821  0.0923
    7loPI    C3   99   1.058   4.429  11.867 -0.0249  0.0773 -0.0254
    7loPI   PO4  100   1.030   4.349  11.330 -0.3302 -0.0252  0.0067
    7loPI   GL1  101   0.783   4.322  10.939  0.0518 -0.0489 -0.0068
    7loPI   GL2  102   0.825   4.535  10.797 -0.1156 -0.0696 -0.0183
    7loPI   C1A  103   0.847   4.054  10.575 -0.1958  0.0034  0.1535
    7loPI   C2A  104   0.932   4.022  10.172  0.1000 -0.4091  0.0269
    7loPI   C3A  105   1.049   4.142   9.745  0.1300 -0.0896  0.3426
    7loPI   C4A  106   0.975   3.998   9.299  0.0400 -0.3495  0.0648
    7loPI   C5A  107   1.181   4.103   8.959  0.0969 -0.1088  0.1037
    7loPI   C6A  108   1.559   4.300   8.753 -0.1325 -0.2838  0.1499
    7loPI   C1B  109   0.781   4.515  10.366  0.1884 -0.0875 -0.1137
    7loPI   C2B  110   0.731   4.550   9.952 -0.0580 -0.0606 -0.3343
    7loPI   C3B  111   0.849   4.664   9.506 -0.1059  0.2145  0.2110
    7loPI   C4B  112   0.751   4.647   9.081 -0.1062 -0.2602  0.0468
    8loPI    C1  113   3.350   3.167  11.891  0.0232 -0.0663  0.0586
    8loPI    C2  114   3.718   3.236  12.032  0.0557 -0.0551 -0.0314
    8loPI    C3  115   3.523   2.903  12.137  0.1344 -0.1134 -0.0688
    8loPI   PO4  116   3.332   3.223  11.677  0.0151 -0.0036 -0.0923
    8loPI   GL1  117   3.379   3.301  11.231 -0.0543  0.0775  0.0760
    8loPI   GL2  118   3.252   3.458  10.951  0.1397  0.1373  0.0071
    8loPI   C1A  119   3.375   3.029  10.824 -0.3962 -0.4058 -0.1086
    8loPI   C2A  120   3.502   2.999  10.375  0.1173  0.1273  0.0937
    8loPI   C3A  121   3.536   2.935   9.934 -0.0535  0.3046 -0.3188
    8loPI   C4A  122   3.567   2.853   9.540 -0.1698 -0.0946 -0.0475
    8loPI   C5A  123   3.581   2.765   9.154 -0.2177  0.0711  0.2324
    8loPI   C6A  124   3.225   2.773   8.851  0.3478  0.2460 -0.1516
    8loPI   C1B  125   3.227   3.397  10.537 -0.0061  0.0101  0.0325
    8loPI   C2B  126   3.230   3.377  10.172 -0.0292  0.0561  0.2002
    8loPI   C3B  127   3.377   3.336   9.706  0.0426  0.1132 -0.1294
    8loPI   C4B  128   3.492   3.359   9.320 -0.1192  0.5047 -0.4213
    9loPI    C1  129   6.392  12.389  11.515 -0.1326 -0.0607  0.0474
    9loPI    C2  130   6.335  12.566  11.869 -0.3761 -0.0666  0.0129
    9loPI    C3  131   6.334  12.167  11.843  0.1067 -0.0778  0.0795
    9loPI   PO4  132   6.253  12.543  11.334 -0.1558  0.1750  0.3621
    9loPI   GL1  133   5.956  12.827  11.091 -0.0998 -0.2348  0.0534
    9loPI   GL2  134   5.676  12.775  10.885 -0.2858 -0.0995 -0.0936
    9loPI   C1A  135   6.126  12.751  10.655 -0.2229  0.3281 -0.2679
    9loPI   C2A  136   5.990  12.816  10.259 -0.0569 -0.0963 -0.0836
    9loPI   C3A  137   6.085  12.794   9.825 -0.2294  0.0190 -0.1570
    9loPI   C4A  138   6.011  12.830   9.499  0.0200  0.0664 -0.1112
    9loPI   C5A  139   6.165  12.958   9.093  0.1081 -0.1107  0.2426
    9loPI   C6A  140   6.014  13.036   8.672 -0.1893 -0.3628 -0.0955
    9loPI   C1B  141   5.503  12.873  10.415  0.0647 -0.3492  0.0121
    9loPI   C2B  142   5.456  12.884  10.040 -0.0357  0.1322  0.3782
    9loPI   C3B  143   5.520  12.797   9.566  0.2142  0.0249 -0.1059
    9loPI   C4B  144   5.584  13.007   9.216 -0.0025  0.0859 -0.0229
   10loPI    C1  145  16.160   0.204  11.557 -0.0675 -0.0481 -0.2020
   10loPI    C2  146  15.775   0.228  11.664 -0.1017  0.1121 -0.3569
   10loPI    C3  147  16.044   0.473  11.830 -0.0069 -0.2241  0.0013
   10loPI   PO4  148  16.171  -0.054  11.464 -0.1169 -0.0793 -0.0698
   10loPI   GL1  149  16.267  -0.218  11.018 -0.0976  0.0840 -0.6242
   10loPI   GL2  150  16.035  -0.333  10.942  0.2065  0.0263  0.0642
   10loPI   C1A  151  16.313   0.038  10.715  0.0571 -0.0621  0.4317
   10loPI   C2A  152  16.326   0.049  10.323 -0.2607 -0.0311  0.0435
   10loPI   C3A  153  16.372   0.061   9.874 -0.1519 -0.3004 -0.0542
   10loPI   C4A  154  16.305   0.121   9.532 -0.1728  0.0035  0.2118
   10loPI   C5A  155  16.140   0.200   9.190  0.0645 -0.1387 -0.0604
   10loPI   C6A  156  16.164   0.291   8.774  0.3166 -0.2615  0.0371
   10loPI   C1B  157  16.049  -0.338  10.486 -0.0801 -0.1886 -0.0928
   10loPI   C2B  158  16.053  -0.352  10.075 -0.1417 -0.0935  0.2494
   10loPI   C3B  159  16.053  -0.312   9.689  0.1838 -0.0622  0.1325
   10loPI   C4B  160  15.997  -0.344   9.246  0.1973 -0.0787 -0.0762
   11loPI    C1  161  17.311   0.492  11.508  0.0621  0.1301 -0.0237
   11loPI    C2  162  17.578   0.254  11.687  0.0640  0.1214 -0.0379
   11loPI    C3  163  17.387   0.535  11.898 -0.3156 -0.2281  0.0974
   11loPI   PO4  164  17.349   0.362  11.235 -0.1806 -0.3738 -0.3066
   11loPI   GL1  165  17.125   0.106  10.965 -0.2081  0.1976  0.1218
   11loPI   GL2  166  16.946   0.294  10.900  0.4340  0.1674 -0.1493
   11loPI   C1A  167  17.285  -0.088  10.605  0.1358 -0.6160 -0.0348
   11loPI   C2A  168  17.326  -0.043  10.293  0.2344 -0.0326  0.0262
   11loPI   C3A  169  17.395   0.029   9.883 -0.1184 -0.0456  0.1083
   11loPI   C4A  170  17.255  -0.110   9.489 -0.1662 -0.1522  0.1751
   11loPI   C5A  171  17.123  -0.345   9.048  0.2329 -0.2519 -0.1256
   11loPI   C6A  172  17.385  -0.611   8.807 -0.1393  0.1800  0.1120
   11loPI   C1B  173  16.832   0.081  10.440  0.0533  0.0581 -0.3893
   11loPI   C2B  174  16.903  -0.014  10.007  0.0193  0.1525 -0.0757
   11loPI   C3B  175  16.818   0.021   9.596 -0.0324 -0.0123 -0.1143
   11loPI   C4B  176  16.776   0.127   9.124 -0.2344  0.1469 -0.0366
   12loPI    C1  177   2.595   1.180  11.591 -0.3564  0.1638 -0.0973
   12loPI    C2  178   2.738   1.400  11.893 -0.0170  0.1798 -0.2648
   12loPI    C3  179   2.591   1.035  11.964  0.2187  0.1139 -0.1013
   12loPI   PO4  180   2.680   1.411  11.392 -0.1032 -0.2343  0.0409
   12loPI   GL1  181   2.537   1.474  11.070 -0.3295 -0.4392  0.4655
   12loPI   GL2  182   2.315   1.708  10.937 -0.1760  0.0592 -0.1671
   12loPI   C1A  183   2.396   1.289  10.681 -0.2944  0.2783 -0.0567
   12loPI   C2A  184   2.350   1.176  10.231  0.0266  0.1055  0.0207
   12loPI   C3A  185   2.400   1.110   9.791  0.0150 -0.3897  0.2791
   12loPI   C4A  186   2.569   1.054   9.425 -0.2312  0.1899  0.3680
   12loPI   C5A  187   2.870   0.980   9.047  0.4161  0.2330  0.0922
   12loPI   C6A  188   3.071   0.798   8.667  0.1834 -0.1538  0.0421
   12loPI   C1B  189   2.690   1.651  10.548  0.1747  0.0683 -0.1083
   12loPI   C2B  190   2.676   1.663  10.108  0.1414  0.1196 -0.1913
   12loPI   C3B  191   2.731   1.520   9.741 -0.1669  0.0010  0.1524
   12loPI   C4B  192   2.805   1.471   9.285  0.5204  0.1503  0.2035
   13loPI    C1  193   3.344   8.447  11.611 -0.0218  0.0886  0.2290
   13loPI    C2  194   3.179   8.298  11.943  0.1350 -0.2761  0.1485
   13loPI    C3  195   3.335   8.052  11.670  0.2439  0.0332 -0.0739
   13loPI   PO4  196   3.196   8.594  11.509 -0.2497 -0.0008  0.0505
   13loPI   GL1  197   2.967   8.795  11.073  0.0277  0.0897 -0.1167
   13loPI   GL2  198   2.980   8.470  11.044 -0.2281  0.1673 -0.0085
   13loPI   C1A  199   2.892   8.937  10.640 -0.1851 -0.1932 -0.0932
   13loPI   C2A  200   2.914   8.868  10.281 -0.1813  0.2336 -0.2464
   13loPI   C3A  201   2.804   8.852   9.871 -0.2470  0.0064 -0.2001
   13loPI   C4A  202   2.680   8.850   9.538 -0.2127  0.0451  0.3141
   13loPI   C5A  203   2.781   9.000   9.190 -0.0648 -0.3429  0.2813
   13loPI   C6A  204   2.533   9.375   9.029 -0.1019 -0.1138 -0.0487
   13loPI   C1B  205   3.074   8.489  10.578 -0.6180 -0.0978 -0.0436
   13loPI   C2B  206   3.115   8.473  10.108 -0.0872 -0.0611  0.0664
   13loPI   C3B  207   3.052   8.404   9.637  0.1935 -0.2932 -0.0276
   13loPI   C4B  208   2.938   8.499   9.286  0.1291  0.1205 -0.2176
   14loPI    C1  209  11.497   1.663  11.567  0.0431  0.0386 -0.0721
   14loPI    C2  210  11.182   1.884  11.459 -0.1871 -0.3104 -0.1314
   14loPI    C3  211  11.278   1.848  11.845 -0.2226 -0.2070 -0.1127
   14loPI   PO4  212  11.500   1.568  11.252  0.0795  0.1392 -0.3536
   14loPI   GL1  213  11.285   1.608  10.873  0.0474 -0.0474  0.1806
   14loPI   GL2  214  11.353   1.267  10.763 -0.2201  0.0397 -0.1367
   14loPI   C1A  215  11.199   1.713  10.443 -0.0322  0.1022 -0.2932
   14loPI   C2A  216  11.160   1.737  10.041 -0.0258  0.0596  0.0339
   14loPI   C3A  217  11.288   1.808   9.632 -0.1535  0.2547 -0.0184
   14loPI   C4A  218  11.137   1.594   9.226  0.0868 -0.1842 -0.2313
   14loPI   C5A  219  10.956   1.239   9.066 -0.2366  0.1216  0.0269
   14loPI   C6A  220  11.254   1.019   8.736  0.0578 -0.0995 -0.0987
   14loPI   C1B  221  11.443   1.324  10.355 -0.0055  0.2377  0.0319
   14loPI   C2B  222  11.547   1.254  10.015  0.3726 -0.0856 -0.1397
   14loPI   C3B  223  11.512   1.242   9.593  0.3465  0.1050 -0.2522
   14loPI   C4B  224  11.409   1.212   9.180  0.2008  0.0160 -0.1061
   15loPI    C1  225  15.159  10.878  11.819 -0.0461  0.0681 -0.1567
   15loPI    C2  226  14.844  11.059  11.985 -0.0770 -0.0437 -0.0927
   15loPI    C3  227  15.103  10.858  12.214  0.0591  0.0746 -0.1410
   15loPI   PO4  228  15.068  10.754  11.621 -0.4453 -0.0342  0.0482
   15loPI   GL1  229  15.024  10.706  11.119  0.0206 -0.3034  0.0924
   15loPI   GL2  230  14.864  11.015  11.132 -0.0166  0.2393  0.0736
   15loPI   C1A  231  14.937  10.764  10.705 -0.2416 -0.1490 -0.3794
   15loPI   C2A  232  14.882  10.739  10.350 -0.0136  0.0667  0.0394
   15loPI   C3A  233  14.919  10.915   9.841 -0.1081 -0.3334 -0.1091
   15loPI   C4A  234  14.880  10.939   9.384  0.0936 -0.1593 -0.2023
   15loPI   C5A  235  14.824  11.301   9.092 -0.0359  0.0079 -0.1334
   15loPI   C6A  236  14.667  11.621   8.740  0.2112 -0.0268  0.0034
   15loPI   C1B  237  14.753  11.189  10.775  0.2105 -0.3260 -0.0501
   15loPI   C2B  238  14.712  11.161  10.360  0.0234  0.3735  0.0162
   15loPI   C3B  239  14.600  11.355  10.053  0.0173  0.0573 -0.1058
   15loPI   C4B  240  14.686  11.383   9.637  0.0318 -0.1799 -0.0588
   16loPI    C1  241   8.000  14.889  11.851  0.0493 -0.0032  0.0601
   16loPI    C2  242   8.399  14.907  11.871  0.0490  0.2671 -0.1219
   16loPI    C3  243   8.179  14.984  12.196  0.1514 -0.4426  0.1344
   16loPI   PO4  244   7.950  14.729  11.762 -0.1184  0.0238 -0.1309
   16loPI   GL1  245   7.738  14.643  11.380 -0.0898  0.4890  0.3200
   16loPI   GL2  246   7.727  14.329  11.270 -0.3057  0.2603 -0.1324
   16loPI   C1A  247   7.656  14.893  10.963  0.0494  0.0844  0.1540
   16loPI   C2A  248   7.622  14.877  10.532 -0.4437 -0.0863  0.3626
   16loPI   C3A  249   7.666  14.930  10.109  0.1703  0.0464  0.0014
   16loPI   C4A  250   7.579  14.846   9.692 -0.1755  0.0670 -0.0124
   16loPI   C5A  251   7.487  14.849   9.278  0.3141 -0.0893 -0.1600
   16loPI   C6A  252   7.319  14.643   8.859  0.0901  0.0088  0.0133
   16loPI   C1B  253   7.800  14.373  10.826 -0.0118 -0.4466 -0.0712
   16loPI   C2B  254   7.882  14.400  10.428  0.0364 -0.2705 -0.0637
   16loPI   C3B  255   7.870  14.394   9.949  0.0785  0.0188 -0.0927
   16loPI   C4B  256   7.782  14.398   9.445  0.2618  0.0209 -0.3383
   17loPI    C1  257   2.461   8.980  12.040  0.1133 -0.0559  0.1934
   17loPI    C2  258   2.852   9.065  12.031  0.1250 -0.1224  0.0348
   17loPI    C3  259   2.651   9.082  12.376  0.2157  0.1454  0.0765
   17loPI   PO4  260   2.408   9.028  11.741  0.3032  0.2481 -0.1976
   17loPI   GL1  261   2.363   9.007  11.402  0.1888 -0.2545  0.2996
   17loPI   GL2  262   2.522   9.255  11.252 -0.0677  0.0960  0.1154
   17loPI   C1A  263   2.274   8.987  10.951 -0.1029 -0.1513 -0.2096
   17loPI   C2A  264   2.340   8.977  10.449  0.2919  0.0422 -0.1611
   17loPI   C3A  265   2.384   8.923  10.005 -0.2270 -0.0138 -0.1716
   17loPI   C4A  266   2.195   8.897   9.606 -0.0727 -0.0255 -0.2683
   17loPI   C5A  267   2.190   9.038   9.268  0.0472  0.1073  0.0499
   17loPI   C6A  268   2.080   9.250   8.898  0.1540  0.0274  0.1087
   17loPI   C1B  269   2.673   9.308  10.915 -0.1272 -0.1758  0.2634
   17loPI   C2B  270   2.583   9.437  10.431 -0.1781 -0.1741  0.1238
   17loPI   C3B  271   2.522   9.415   9.940  0.0416  0.2347 -0.1514
   17loPI   C4B  272   2.506   9.310   9.560 -0.1763 -0.0235  0.0038
   18loPI    C1  273  16.824   4.180  11.332  0.1399 -0.0789 -0.0462
   18loPI    C2  274  16.900   4.197  11.725 -0.0007  0.1213 -0.0264
   18loPI    C3  275  17.059   4.469  11.478 -0.0231  0.0768 -0.0901
   18loPI   PO4  276  16.874   3.875  11.216  0.3995 -0.0888  0.0594
   18loPI   GL1  277  17.167   3.794  10.960  0.1685 -0.0074  0.0630
   18loPI   GL2  278  17.006   4.100  10.789 -0.0324 -0.0695 -0.1462
   18loPI   C1A  279  17.243   3.698  10.505 -0.0021 -0.1062  0.1987
   18loPI   C2A  280  17.420   3.723  10.121  0.0295  0.1635  0.0959
   18loPI   C3A  281  17.740   3.997   9.813 -0.0064  0.1675 -0.0747
   18loPI   C4A  282  17.935   4.206   9.464 -0.0345  0.0663 -0.0072
   18loPI   C5A  283  17.934   4.183   9.019 -0.0094  0.1751  0.4314
   18loPI   C6A  284  17.845   3.789   8.776 -0.0953 -0.0234 -0.0838
   18loPI   C1B  285  17.188   4.174  10.347  0.1834  0.0674 -0.0427
   18loPI   C2B  286  17.231   4.182   9.956  0.0444 -0.2957  0.0255
   18loPI   C3B  287  17.318   4.255   9.455 -0.0765  0.0205 -0.0702
   18loPI   C4B  288  17.423   4.120   8.998  0.2118 -0.0103 -0.0219
   19loPI    C1  289   7.230  13.930  11.893 -0.0691  0.0882  0.1259
   19loPI    C2  290   7.045  13.582  11.821 -0.0814  0.0963  0.1185
   19loPI    C3  291   7.153  13.678  12.194 -0.0291  0.0602  0.1128
   19loPI   PO4  292   7.312  13.967  11.551  0.0723 -0.0828 -0.1950
   19loPI   GL1  293   7.058  13.767  11.298 -0.0937 -0.0154  0.0650
   19loPI   GL2  294   7.087  13.579  11.157 -0.1496  0.2417 -0.2597
   19loPI   C1A  295   7.044  14.058  10.951 -0.2038 -0.0190  0.0668
   19loPI   C2A  296   7.078  14.061  10.489  0.1890 -0.0476 -0.5365
   19loPI   C3A  297   7.018  14.065  10.002  0.0534  0.3558  0.1844
   19loPI   C4A  298   6.955  14.050   9.535 -0.0419  0.2494 -0.1276
   19loPI   C5A  299   7.087  14.082   9.098 -0.0052 -0.0735  0.3492
   19loPI   C6A  300   7.295  13.867   8.817  0.1140  0.1253 -0.0315
   19loPI   C1B  301   7.292  13.442  10.869  0.2132 -0.3113 -0.2537
   19loPI   C2B  302   7.319  13.540  10.437  0.2516  0.0590  0.2293
   19loPI   C3B  303   7.194  13.527  10.041  0.0885  0.0202  0.0943
   19loPI   C4B  304   7.176  13.503   9.615  0.1737  0.1350  0.0297
   20loPI    C1  305  10.628  10.832  11.891 -0.1997 -0.1102 -0.0298
   20loPI    C2  306  10.731  10.970  12.252 -0.0399  0.0822 -0.1466
   20loPI    C3  307  10.424  10.717  12.214 -0.0666  0.0719  0.1217
   20loPI   PO4  308  10.898  11.022  11.703  0.0488 -0.0203 -0.0190
   20loPI   GL1  309  10.927  11.043  11.205 -0.0102 -0.1494 -0.1028
   20loPI   GL2  310  11.160  11.210  11.312  0.2200  0.0335 -0.1126
   20loPI   C1A  311  10.924  10.868  10.762  0.1964  0.0295  0.4374
   20loPI   C2A  312  11.000  10.814  10.299 -0.1993 -0.1685 -0.1248
   20loPI   C3A  313  10.917  10.859   9.864  0.0633 -0.1700 -0.4633
   20loPI   C4A  314  11.031  10.767   9.443  0.2916  0.2441  0.0022
   20loPI   C5A  315  10.826  10.999   9.043 -0.1152 -0.0426 -0.0352
   20loPI   C6A  316  10.795  10.868   8.641  0.2747  0.0993  0.0851
   20loPI   C1B  317  11.279  11.271  10.845  0.0793 -0.2643  0.0460
   20loPI   C2B  318  11.304  11.250  10.361 -0.0829  0.0106 -0.0766
   20loPI   C3B  319  11.238  11.293   9.841  0.2692  0.3172 -0.1153
   20loPI   C4B  320  11.097  11.251   9.451 -0.1510  0.0009 -0.0715
   21loPI    C1  321   5.475  12.019  11.507 -0.4733 -0.3949  0.1878
   21loPI    C2  322   5.135  12.227  11.532 -0.3231 -0.1184 -0.0235
   21loPI    C3  323   5.415  12.269  11.814 -0.2995 -0.0438 -0.0578
   21loPI   PO4  324   5.578  12.049  11.326  0.1953 -0.3185  0.1295
   21loPI   GL1  325   5.505  11.892  10.937  0.2390 -0.0686 -0.1292
   21loPI   GL2  326   5.857  11.793  10.833  0.1636 -0.0293 -0.1238
   21loPI   C1A  327   5.497  11.837  10.503  0.2128 -0.2296  0.0431
   21loPI   C2A  328   5.461  11.935  10.115 -0.1567  0.2460  0.1821
   21loPI   C3A  329   5.414  11.959   9.675 -0.2199 -0.1297 -0.3643
   21loPI   C4A  330   5.552  12.031   9.174 -0.2384  0.0608 -0.3149
   21loPI   C5A  331   5.687  12.192   8.818  0.0224  0.0133  0.0083
   21loPI   C6A  332   6.038  12.486   8.701 -0.0343 -0.2335 -0.0303
   21loPI   C1B  333   6.052  11.799  10.391  0.3197  0.2126 -0.0260
   21loPI   C2B  334   5.983  11.855   9.966  0.0715  0.2069 -0.1730
   21loPI   C3B  335   5.991  11.889   9.573 -0.1304  0.0271 -0.1051
   21loPI   C4B  336   6.069  12.057   9.125  0.0237 -0.0168  0.1822
   22loPI    C1  337  11.444   3.893  11.473  0.2036 -0.2516 -0.0168
   22loPI    C2  338  11.191   3.901  11.782  0.0086 -0.2312 -0.1754
   22loPI    C3  339  11.543   3.715  11.818  0.0752 -0.0548  0.1234
   22loPI   PO4  340  11.306   3.915  11.255 -0.0830 -0.0430  0.0089
   22loPI   GL1  341  11.299   4.009  10.885  0.0775  0.0491  0.2277
   22loPI   GL2  342  11.317   4.354  11.006 -0.2589 -0.0355  0.0738
   22loPI   C1A  343  11.288   4.037  10.427  0.2597  0.1198 -0.1784
   22loPI   C2A  344  11.183   3.995  10.029 -0.1514 -0.1963 -0.1125
   22loPI   C3A  345  11.218   4.068   9.583 -0.2968  0.1294 -0.2345
   22loPI   C4A  346  11.180   4.137   9.131  0.3059  0.0575  0.0408
   22loPI   C5A  347  11.095   4.376   8.764  0.0444 -0.0915 -0.0038
   22loPI   C6A  348  11.273   4.709   8.497 -0.0531  0.0651  0.0168
   22loPI   C1B  349  11.113   4.532  10.678  0.0474  0.0988 -0.0746
   22loPI   C2B  350  10.934   4.384  10.218 -0.0977 -0.1220 -0.0213
   22loPI   C3B  351  10.891   4.516   9.760  0.1945 -0.4559  0.2624
   22loPI   C4B  352  10.896   4.524   9.268  0.1357  0.1419  0.0913
   23loPI    C1  353   6.889  11.293  11.771  0.0454 -0.1579  0.0366
   23loPI    C2  354   6.593  11.327  12.038 -0.0068 -0.0430 -0.0349
   23loPI    C3  355   6.755  10.969  11.964 -0.0167 -0.0813  0.1233
   23loPI   PO4  356   6.779  11.468  11.557  0.1433  0.0000  0.1641
   23loPI   GL1  357   6.451  11.463  11.297  0.0096 -0.1353  0.0551
   23loPI   GL2  358   6.235  11.427  11.035  0.0195  0.1873  0.0850
   23loPI   C1A  359   6.760  11.387  10.881  0.0887  0.1438 -0.1285
   23loPI   C2A  360   6.830  11.336  10.443 -0.1102  0.2674  0.1087
   23loPI   C3A  361   6.729  11.350  10.020 -0.1112  0.2051  0.0444
   23loPI   C4A  362   6.715  11.335   9.593 -0.3215 -0.1211 -0.2510
   23loPI   C5A  363   6.657  11.154   9.197  0.2331 -0.0483 -0.0112
   23loPI   C6A  364   6.958  11.178   8.810  0.0732 -0.1739  0.2538
   23loPI   C1B  365   6.263  11.383  10.663  0.3189  0.0488  0.2492
   23loPI   C2B  366   6.248  11.324  10.208 -0.0629  0.1797  0.1267
   23loPI   C3B  367   6.221  11.371   9.855 -0.3202  0.1599  0.2576
   23loPI   C4B  368   6.153  11.434   9.457 -0.2409  0.1293 -0.1860
   24loPI    C1  369   1.622  15.372  11.976  0.0003 -0.2068  0.0598
   24loPI    C2  370   1.765  15.667  12.206  0.0393 -0.0578 -0.1524
   24loPI    C3  371   1.599  15.344  12.374 -0.0358  0.1008  0.0816
   24loPI   PO4  372   1.766  15.310  11.826 -0.0196 -0.1597  0.0925
   24loPI   GL1  373   1.666  15.303  11.346  0.1960 -0.2903  0.0723
   24loPI   GL2  374   1.575  14.907  11.253  0.1260 -0.1683 -0.0454
   24loPI   C1A  375   1.869  15.324  10.945 -0.1274  0.2009  0.0375
   24loPI   C2A  376   1.930  15.297  10.501  0.0446 -0.0819  0.2140
   24loPI   C3A  377   1.877  15.357  10.110 -0.0500  0.1002 -0.2361
   24loPI   C4A  378   1.960  15.374   9.652 -0.1288  0.0286  0.0003
   24loPI   C5A  379   1.788  15.279   9.268  0.0928  0.0444 -0.1906
   24loPI   C6A  380   1.694  15.248   8.782 -0.1849  0.2079  0.4064
   24loPI   C1B  381   1.534  14.890  10.885  0.0993 -0.2046  0.0729
   24loPI   C2B  382   1.549  14.907  10.547 -0.0651  0.4660  0.1840
   24loPI   C3B  383   1.643  14.875  10.071  0.1354 -0.2104  0.1297
   24loPI   C4B  384   1.565  14.951   9.632 -0.1530 -0.0223  0.2263
   25loPI    C1  385   5.956  11.331  11.573 -0.2857 -0.4800  0.0740
   25loPI    C2  386   5.671  11.310  11.853 -0.0929 -0.2180  0.2958
   25loPI    C3  387   6.056  11.313  11.960 -0.0175 -0.0749  0.0287
   25loPI   PO4  388   5.954  11.224  11.383 -0.0688  0.1848 -0.0840
   25loPI   GL1  389   5.732  11.277  10.986 -0.0176 -0.2327  0.2207
   25loPI   GL2  390   5.937  11.023  10.896  0.2206 -0.1694 -0.3123
   25loPI   C1A  391   5.743  11.413  10.611 -0.1211  0.1204  0.1376
   25loPI   C2A  392   5.655  11.361  10.173 -0.2832  0.2970  0.0981
   25loPI   C3A  393   5.713  11.510   9.714 -0.0033  0.1448 -0.3899
   25loPI   C4A  394   5.676  11.576   9.356 -0.2851  0.2949 -0.0266
   25loPI   C5A  395   6.035  11.612   8.931  0.1268 -0.3500  0.2150
   25loPI   C6A  396   6.209  11.876   8.665  0.3584  0.0564 -0.2100
   25loPI   C1B  397   5.899  10.915  10.406  0.0908  0.0743  0.2224
   25loPI   C2B  398   5.919  10.987   9.977 -0.1511  0.0363  0.3389
   25loPI   C3B  399   5.863  10.954   9.495  0.1160 -0.1869 -0.1960
   25loPI   C4B  400   5.658  10.801   9.021 -0.2633 -0.2157  0.0813
   26loPI    C1  401  16.144   1.901  11.291  0.0510 -0.1025 -0.1463
   26loPI    C2  402  15.788   1.719  11.286 -0.1588  0.2876  0.0667
   26loPI    C3  403  15.956   1.820  11.635  0.3193 -0.1791 -0.0144
   26loPI   PO4  404  16.168   1.923  11.036 -0.2497  0.1513  0.1136
   26loPI   GL1  405  16.003   1.868  10.636 -0.3381 -0.3134 -0.0740
   26loPI   GL2  406  16.220   1.598  10.701 -0.1035  0.4579 -0.0722
   26loPI   C1A  407  16.065   1.898  10.179  0.1078 -0.2507 -0.2149
   26loPI   C2A  408  16.098   2.006   9.713  0.3575  0.0427 -0.1923
   26loPI   C3A  409  16.235   1.940   9.273  0.3956 -0.1090 -0.1077
   26loPI   C4A  410  16.263   1.473   9.184 -0.0115 -0.2117  0.1304
   26loPI   C5A  411  16.273   1.012   8.998 -0.1675 -0.1191 -0.0700
   26loPI   C6A  412  16.612   0.787   8.823  0.0448 -0.2461  0.2433
   26loPI   C1B  413  16.209   1.401  10.271 -0.0964 -0.1692 -0.0818
   26loPI   C2B  414  16.247   1.491   9.868 -0.1180 -0.1089 -0.3126
   26loPI   C3B  415  16.561   1.576   9.547 -0.0441 -0.3811 -0.3841
   26loPI   C4B  416  16.663   1.686   9.158  0.0871 -0.2133  0.0152
   27loPI    C1  417   4.933  13.865  11.426  0.0678 -0.1715 -0.1802
   27loPI    C2  418   5.268  13.951  11.627 -0.0715 -0.0169 -0.0104
   27loPI    C3  419   4.946  13.817  11.823 -0.1046 -0.1831 -0.1754
   27loPI   PO4  420   4.968  13.828  11.206 -0.3698  0.0079 -0.0048
   27loPI   GL1  421   4.829  13.609  10.805  0.1045 -0.0969 -0.2696
   27loPI   GL2  422   5.054  13.770  10.721  0.1656  0.0780  0.0332
   27loPI   C1A  423   4.661  13.773  10.361 -0.2331 -0.0658  0.0769
   27loPI   C2A  424   4.720  13.878   9.984  0.2066 -0.0799  0.0221
   27loPI   C3A  425   4.671  13.754   9.623  0.0220 -0.0549 -0.0885
   27loPI   C4A  426   4.422  13.596   9.348  0.2384 -0.0537 -0.1257
   27loPI   C5A  427   4.292  13.330   9.010 -0.4600 -0.2233  0.3029
   27loPI   C6A  428   4.338  12.944   8.883  0.0539 -0.1412  0.1472
   27loPI   C1B  429   5.246  13.803  10.264  0.2214 -0.1392  0.1398
   27loPI   C2B  430   5.237  13.779   9.858  0.0916  0.1800  0.2922
   27loPI   C3B  431   5.139  13.792   9.494  0.1730 -0.2174  0.0789
   27loPI   C4B  432   4.877  13.647   9.115  0.0240 -0.0567  0.0357
   28loPI    C1  433  15.902  11.263  12.033 -0.0072 -0.0072  0.3301
   28loPI    C2  434  16.155  11.365  12.326  0.1604  0.2147  0.1118
   28loPI    C3  435  15.892  11.632  12.186  0.0622  0.1013  0.0783
   28loPI   PO4  436  15.978  11.135  11.758 -0.0969 -0.3666  0.1126
   28loPI   GL1  437  16.222  11.327  11.362 -0.0177 -0.0387  0.3942
   28loPI   GL2  438  16.272  11.548  11.269 -0.0999  0.4245 -0.0326
   28loPI   C1A  439  16.244  11.174  10.974  0.3019 -0.0542  0.1643
   28loPI   C2A  440  16.198  11.109  10.554 -0.1721  0.1464 -0.0312
   28loPI   C3A  441  16.195  11.215  10.201  0.1024 -0.1645  0.2669
   28loPI   C4A  442  16.212  11.166   9.710  0.3384 -0.0358 -0.0500
   28loPI   C5A  443  16.311  11.146   9.337 -0.2010  0.0078  0.0087
   28loPI   C6A  444  16.306  10.945   8.981  0.1068  0.1010 -0.1352
   28loPI   C1B  445  16.018  11.647  10.977 -0.4259 -0.2456 -0.2351
   28loPI   C2B  446  16.043  11.604  10.590  0.0102 -0.3421 -0.2599
   28loPI   C3B  447  15.984  11.720  10.148 -0.2323 -0.0702  0.0290
   28loPI   C4B  448  16.030  11.691   9.707  0.0183  0.0336 -0.1630
   29loPI    C1  449   1.057   3.791  11.434 -0.2362  0.1898  0.0665
   29loPI    C2  450   1.078   3.400  11.515 -0.3013  0.1633 -0.0414
   29loPI    C3  451   1.177   3.668  11.795  0.0788  0.0657 -0.0759
   29loPI   PO4  452   1.128   3.811  11.256  0.2158 -0.1389  0.0553
   29loPI   GL1  453   1.201   3.955  10.893  0.1149  0.0049 -0.0153
   29loPI   GL2  454   1.525   3.746  10.926 -0.1070 -0.0116  0.3529
   29loPI   C1A  455   1.353   3.965  10.456 -0.1500  0.4056  0.0560
   29loPI   C2A  456   1.495   4.040  10.033 -0.0245 -0.2292 -0.2125
   29loPI   C3A  457   1.533   4.092   9.585  0.1625 -0.1293 -0.6832
   29loPI   C4A  458   1.593   3.959   9.190 -0.0582 -0.0485 -0.1464
   29loPI   C5A  459   1.425   3.712   8.864 -0.1393  0.0938 -0.0420
   29loPI   C6A  460   1.605   3.428   8.488  0.3553  0.0454  0.3268
   29loPI   C1B  461   1.481   3.421  10.599  0.1804 -0.0220  0.1710
   29loPI   C2B  462   1.625   3.478  10.203  0.1487  0.1777 -0.0929
   29loPI   C3B  463   1.707   3.550   9.823 -0.0775 -0.0158 -0.0975
   29loPI   C4B  464   1.803   3.472   9.372  0.0430  0.1719 -0.2316
   30loPI    C1  465   0.574   9.759  11.692  0.0575  0.0055 -0.1665
   30loPI    C2  466   0.457   9.838  12.067  0.1946  0.0802 -0.1387
   30loPI    C3  467   0.615   9.482  11.977 -0.0299 -0.0128 -0.1716
   30loPI   PO4  468   0.321   9.804  11.548 -0.2453  0.2086  0.2085
   30loPI   GL1  469   0.159   9.707  11.140  0.2181 -0.1999 -0.0157
   30loPI   GL2  470   0.427   9.433  11.149 -0.0747  0.0531 -0.0714
   30loPI   C1A  471  -0.007   9.700  10.715 -0.1310  0.1337  0.1480
   30loPI   C2A  472  -0.074   9.684  10.238  0.0281  0.0893 -0.3453
   30loPI   C3A  473  -0.046   9.641   9.864  0.2120 -0.1862  0.0565
   30loPI   C4A  474   0.103   9.715   9.366  0.0060 -0.2882  0.0033
   30loPI   C5A  475  -0.016   9.844   8.983 -0.0076  0.1755 -0.0028
   30loPI   C6A  476  -0.150   9.534   8.688  0.3821  0.0056 -0.1704
   30loPI   C1B  477   0.497   9.664  10.774  0.1794  0.0292 -0.2016
   30loPI   C2B  478   0.424   9.638  10.279  0.0321 -0.1260 -0.1229
   30loPI   C3B  479   0.487   9.658   9.917 -0.2415 -0.0767  0.3293
   30loPI   C4B  480   0.558   9.622   9.493  0.0219 -0.0707  0.2744
   31loPI    C1  481   9.526  17.018  11.547 -0.0146 -0.0518 -0.3067
   31loPI    C2  482   9.715  16.990  11.898 -0.0109  0.0438 -0.3008
   31loPI    C3  483   9.890  17.176  11.591 -0.2223  0.4154 -0.2033
   31loPI   PO4  484   9.378  16.735  11.463 -0.0543  0.0299 -0.1985
   31loPI   GL1  485   9.338  16.651  11.127 -0.0503 -0.3336  0.0472
   31loPI   GL2  486   9.274  16.893  10.880  0.2501 -0.1797  0.0687
   31loPI   C1A  487   9.430  16.476  10.689 -0.0883  0.0125  0.1398
   31loPI   C2A  488   9.392  16.528  10.374  0.0078  0.1877  0.0521
   31loPI   C3A  489   9.236  16.564  10.017 -0.2374  0.1123 -0.1148
   31loPI   C4A  490   9.316  16.512   9.641 -0.0857 -0.0603 -0.2424
   31loPI   C5A  491   9.281  16.584   9.243  0.1455  0.5847  0.0462
   31loPI   C6A  492   9.133  16.385   8.918  0.2569 -0.3749  0.2820
   31loPI   C1B  493   9.106  17.029  10.547  0.1204 -0.1284  0.0818
   31loPI   C2B  494   9.185  17.036  10.182  0.2368 -0.1655  0.0256
   31loPI   C3B  495   9.068  16.958   9.716  0.3457  0.0494 -0.1671
   31loPI   C4B  496   9.158  17.074   9.266  0.2148  0.0222 -0.0234
   32loPI    C1  497   5.793   2.605  11.518  0.0854  0.0638 -0.1452
   32loPI    C2  498   5.432   2.776  11.527  0.0174 -0.0819 -0.0685
   32loPI    C3  499   5.626   2.701  11.868  0.0814 -0.0855 -0.1055
   32loPI   PO4  500   5.900   2.671  11.351  0.0560 -0.2993  0.0042
   32loPI   GL1  501   6.116   2.709  11.007  0.3815 -0.2471  0.2662
   32loPI   GL2  502   6.418   2.805  10.919 -0.1599 -0.0803 -0.0021
   32loPI   C1A  503   6.152   2.517  10.587 -0.0419  0.0733 -0.0164
   32loPI   C2A  504   6.211   2.618  10.191 -0.1219  0.0199 -0.1114
   32loPI   C3A  505   6.217   2.589   9.720  0.1925  0.3133  0.1254
   32loPI   C4A  506   6.199   2.680   9.303 -0.2192 -0.0614  0.0671
   32loPI   C5A  507   6.297   2.904   8.970 -0.0928  0.0341  0.1197
   32loPI   C6A  508   6.681   3.211   8.749 -0.1979 -0.3117  0.2158
   32loPI   C1B  509   6.456   3.041  10.538 -0.0128  0.2524  0.1432
   32loPI   C2B  510   6.421   3.038  10.084  0.1648 -0.2650  0.0511
   32loPI   C3B  511   6.522   3.102   9.626 -0.2563 -0.2007  0.1836
   32loPI   C4B  512   6.555   3.234   9.234  0.1262  0.3537 -0.2424
   33loPI    C1  513   7.709   2.928  11.882  0.1130  0.1767  0.0406
   33loPI    C2  514   8.058   2.843  12.059  0.0690  0.0034  0.0461
   33loPI    C3  515   7.715   2.799  12.261  0.0389  0.1014  0.0166
   33loPI   PO4  516   7.700   2.780  11.713 -0.2621 -0.1507 -0.1203
   33loPI   GL1  517   7.746   2.648  11.271  0.2298 -0.0787 -0.2082
   33loPI   GL2  518   7.478   2.828  11.150  0.2953  0.0299  0.0408
   33loPI   C1A  519   7.719   2.504  10.808  0.1466 -0.0821 -0.3645
   33loPI   C2A  520   7.720   2.501  10.399  0.0550  0.4681 -0.1936
   33loPI   C3A  521   7.857   2.483   9.958  0.0919  0.1340 -0.2384
   33loPI   C4A  522   7.932   2.482   9.604  0.1634  0.4391  0.2613
   33loPI   C5A  523   7.927   2.476   9.159 -0.0900  0.3659 -0.1991
   33loPI   C6A  524   7.716   2.552   8.815  0.2818 -0.4284 -0.1496
   33loPI   C1B  525   7.430   2.867  10.723 -0.0745 -0.2582  0.0404
   33loPI   C2B  526   7.440   2.920  10.310 -0.3396  0.1966 -0.1108
   33loPI   C3B  527   7.453   2.979   9.934 -0.0022 -0.1832 -0.1438
   33loPI   C4B  528   7.636   2.906   9.609 -0.1829  0.0196  0.0553
   34loPI    C1  529   0.840   0.443  11.528  0.2064  0.3149  0.0482
   34loPI    C2  530   0.627   0.706  11.742  0.0230  0.0795  0.1597
   34loPI    C3  531   0.975   0.569  11.883  0.0640  0.1767  0.1533
   34loPI   PO4  532   0.856   0.553  11.294 -0.0071  0.2181  0.2572
   34loPI   GL1  533   0.724   0.521  10.893 -0.4325  0.1854  0.0176
   34loPI   GL2  534   0.895   0.267  10.899 -0.0515 -0.0012 -0.4433
   34loPI   C1A  535   0.916   0.703  10.560 -0.0433 -0.0708 -0.1751
   34loPI   C2A  536   1.058   0.831  10.085  0.1634 -0.2143  0.0268
   34loPI   C3A  537   1.122   0.841   9.661 -0.0235  0.1466 -0.0724
   34loPI   C4A  538   1.182   0.861   9.208  0.4488  0.0194  0.1401
   34loPI   C5A  539   1.258   0.537   8.871 -0.1396  0.1478  0.3146
   34loPI   C6A  540   1.530   0.097   8.975  0.2226 -0.0300  0.0966
   34loPI   C1B  541   0.841   0.164  10.484 -0.2571  0.2447  0.0781
   34loPI   C2B  542   0.867   0.401  10.079 -0.0910 -0.0325 -0.1358
   34loPI   C3B  543   0.834   0.375   9.667 -0.2088 -0.0967 -0.0298
   34loPI   C4B  544   0.817   0.167   9.183 -0.1903 -0.1569  0.2558
   35loPI    C1  545   4.442   6.804  11.505  0.2394  0.0715 -0.0085
   35loPI    C2  546   4.738   6.759  11.771  0.1704  0.0672  0.0680
   35loPI    C3  547   4.472   7.054  11.817  0.1163  0.0225  0.0432
   35loPI   PO4  548   4.509   6.783  11.278  0.0637  0.0279  0.2994
   35loPI   GL1  549   4.542   6.450  11.033  0.1828  0.0832  0.0634
   35loPI   GL2  550   4.258   6.405  10.865 -0.2413  0.0385 -0.1501
   35loPI   C1A  551   4.742   6.290  10.672  0.0054 -0.1422 -0.0389
   35loPI   C2A  552   4.976   6.426  10.223 -0.0344 -0.1225 -0.4445
   35loPI   C3A  553   5.002   6.392   9.839  0.1009 -0.1871 -0.2819
   35loPI   C4A  554   4.988   6.481   9.416 -0.1305  0.0802 -0.0354
   35loPI   C5A  555   5.042   6.351   8.983  0.0934  0.1004  0.3664
   35loPI   C6A  556   5.193   6.397   8.523 -0.3717 -0.1162 -0.1048
   35loPI   C1B  557   4.306   6.485  10.483  0.0069 -0.1781  0.1586
   35loPI   C2B  558   4.483   6.403  10.092  0.0753  0.1070  0.0039
   35loPI   C3B  559   4.503   6.459   9.655 -0.1181 -0.2643 -0.3015
   35loPI   C4B  560   4.354   6.512   9.285 -0.0365  0.1016  0.1128
   36loPI    C1  561  14.352  14.919  12.305  0.0124  0.0726  0.1815
   36loPI    C2  562  14.446  14.546  12.416 -0.3565 -0.0547  0.0803
   36loPI    C3  563  14.606  14.858  12.608 -0.1236 -0.2645  0.2329
   36loPI   PO4  564  14.427  15.026  12.003 -0.2748  0.0236  0.1095
   36loPI   GL1  565  14.495  14.976  11.543  0.1223  0.0585 -0.2733
   36loPI   GL2  566  14.416  15.271  11.491  0.1682 -0.0057 -0.1446
   36loPI   C1A  567  14.456  14.929  11.123 -0.1355  0.2654  0.1966
   36loPI   C2A  568  14.487  14.928  10.706 -0.3109 -0.0502 -0.0950
   36loPI   C3A  569  14.484  14.943  10.346  0.2195  0.0817 -0.2782
   36loPI   C4A  570  14.559  14.993   9.973 -0.2441  0.1554 -0.1962
   36loPI   C5A  571  14.524  15.030   9.563 -0.1318 -0.1077  0.1376
   36loPI   C6A  572  14.580  14.993   9.105  0.2603 -0.0182  0.0149
   36loPI   C1B  573  14.317  15.405  11.090  0.0968 -0.1611 -0.0104
   36loPI   C2B  574  14.278  15.499  10.628 -0.0047 -0.2484  0.1319
   36loPI   C3B  575  14.315  15.424  10.159  0.1409 -0.1271  0.1624
   36loPI   C4B  576  14.317  15.461   9.700  0.0728 -0.2206  0.2502
   37loPI    C1  577  12.690   3.533  11.207  0.0216 -0.0313 -0.0364
   37loPI    C2  578  12.923   3.313  11.447  0.3408  0.2579 -0.0725
   37loPI    C3  579  12.682   3.592  11.603  0.1652  0.0973 -0.0518
   37loPI   PO4  580  12.752   3.530  11.015 -0.0959  0.3114  0.0098
   37loPI   GL1  581  12.771   3.300  10.742  0.2721  0.1912  0.1873
   37loPI   GL2  582  13.025   3.343  10.507 -0.0068 -0.0758 -0.0957
   37loPI   C1A  583  12.552   3.132  10.416 -0.1468  0.0715 -0.0755
   37loPI   C2A  584  12.400   3.121   9.974 -0.0064  0.0158  0.0212
   37loPI   C3A  585  12.183   3.082   9.621 -0.1581  0.0167  0.0183
   37loPI   C4A  586  11.966   3.158   9.280  0.0482 -0.2062  0.2009
   37loPI   C5A  587  11.895   3.375   8.897 -0.1940 -0.2665 -0.1206
   37loPI   C6A  588  11.636   3.533   8.551 -0.3781 -0.2509 -0.1018
   37loPI   C1B  589  12.958   3.341  10.141 -0.2179  0.0239 -0.1144
   37loPI   C2B  590  12.995   3.464   9.704 -0.1062 -0.1231 -0.1673
   37loPI   C3B  591  12.984   3.466   9.339 -0.0586  0.0959 -0.1968
   37loPI   C4B  592  12.804   3.549   8.975 -0.0698  0.4602 -0.2372
   38loPI    C1  593  12.060  10.486  11.822 -0.0154  0.0740 -0.1631
   38loPI    C2  594  12.069  10.137  12.018 -0.1015  0.0463 -0.2083
   38loPI    C3  595  11.867  10.447  12.170 -0.0433  0.0699 -0.1790
   38loPI   PO4  596  12.043  10.464  11.612 -0.1163  0.1583 -0.0640
   38loPI   GL1  597  12.234  10.494  11.252 -0.2583  0.3444  0.0053
   38loPI   GL2  598  12.307  10.833  11.211  0.0445  0.0102 -0.3093
   38loPI   C1A  599  12.117  10.261  10.936 -0.0054 -0.0038 -0.0004
   38loPI   C2A  600  12.145  10.197  10.519 -0.0057 -0.1839 -0.0809
   38loPI   C3A  601  12.237  10.236  10.097  0.0300  0.3689  0.0411
   38loPI   C4A  602  12.279  10.280   9.665  0.2863 -0.1280  0.3247
   38loPI   C5A  603  12.169  10.304   9.233 -0.0366 -0.0779 -0.1412
   38loPI   C6A  604  12.440  10.422   8.893 -0.0381  0.2766 -0.1488
   38loPI   C1B  605  12.433  10.790  10.821  0.0548  0.0517 -0.3062
   38loPI   C2B  606  12.437  10.657  10.357 -0.0141 -0.2044  0.2912
   38loPI   C3B  607  12.493  10.654   9.920 -0.1580 -0.1955  0.1621
   38loPI   C4B  608  12.365  10.723   9.567 -0.3714 -0.2368  0.1659
   39loPI    C1  609  14.213  16.357  12.249  0.0819  0.0577 -0.0737
   39loPI    C2  610  13.913  16.153  12.418  0.1490 -0.1354 -0.1843
   39loPI    C3  611  14.276  16.151  12.586  0.0955  0.0824 -0.0610
   39loPI   PO4  612  14.135  16.286  11.957  0.2041  0.0054  0.3324
   39loPI   GL1  613  14.196  16.199  11.604 -0.1291 -0.1447  0.0800
   39loPI   GL2  614  14.439  16.278  11.479 -0.1617 -0.0913 -0.0501
   39loPI   C1A  615  14.111  16.022  11.129  0.2983  0.1685 -0.0357
   39loPI   C2A  616  14.050  15.953  10.674  0.0922  0.0427  0.1325
   39loPI   C3A  617  14.104  15.992  10.223  0.2456 -0.0061 -0.2232
   39loPI   C4A  618  14.124  15.896   9.842  0.2393 -0.0399 -0.1331
   39loPI   C5A  619  13.953  15.980   9.409 -0.0566 -0.0548  0.0888
   39loPI   C6A  620  14.000  16.041   9.010 -0.0223 -0.1649 -0.1914
   39loPI   C1B  621  14.349  16.407  11.042 -0.0603 -0.1366 -0.1532
   39loPI   C2B  622  14.372  16.356  10.626 -0.1483 -0.1371  0.0633
   39loPI   C3B  623  14.484  16.376  10.240 -0.0670 -0.0280  0.1756
   39loPI   C4B  624  14.451  16.281   9.837  0.1580 -0.0656  0.0661
   40loPI    C1  625   0.916   1.141  11.536 -0.0702 -0.0007 -0.2640
   40loPI    C2  626   1.179   1.276  11.267 -0.0359  0.1819 -0.1405
   40loPI    C3  627   1.232   1.355  11.655  0.1186 -0.3956 -0.0349
   40loPI   PO4  628   0.699   1.050  11.370 -0.1187  0.0629 -0.2544
   40loPI   GL1  629   0.444   1.161  10.994 -0.1262  0.0992  0.1469
   40loPI   GL2  630   0.567   1.421  10.915  0.0703 -0.2647  0.3529
   40loPI   C1A  631   0.500   0.976  10.625  0.4167 -0.1696  0.0036
   40loPI   C2A  632   0.553   1.029  10.293 -0.1120 -0.0402 -0.0584
   40loPI   C3A  633   0.520   0.950   9.849  0.1148  0.0814 -0.1973
   40loPI   C4A  634   0.621   0.801   9.475  0.1853  0.0940  0.0121
   40loPI   C5A  635   0.528   1.069   9.106  0.0052 -0.2420 -0.0714
   40loPI   C6A  636   0.139   1.184   9.002  0.0107 -0.0278  0.0774
   40loPI   C1B  637   0.448   1.468  10.526 -0.0016 -0.0666 -0.1016
   40loPI   C2B  638   0.611   1.538  10.165  0.0290 -0.0805  0.3346
   40loPI   C3B  639   0.812   1.349   9.821  0.1032 -0.1877  0.1710
   40loPI   C4B  640   0.896   1.244   9.437  0.2186 -0.1054  0.1239
   41loPI    C1  641   7.491  14.892  11.875  0.0237  0.0000  0.1298
   41loPI    C2  642   7.217  14.708  12.101 -0.1556  0.0196 -0.0688
   41loPI    C3  643   7.474  14.965  12.268 -0.3562  0.1165  0.0960
   41loPI   PO4  644   7.317  14.880  11.612  0.2913  0.0064  0.1353
   41loPI   GL1  645   7.119  14.859  11.282 -0.2663 -0.1190 -0.3786
   41loPI   GL2  646   7.260  14.596  11.165  0.0017 -0.4690  0.0402
   41loPI   C1A  647   7.130  14.978  10.855  0.0120  0.0642  0.0595
   41loPI   C2A  648   7.115  14.966  10.409 -0.2568  0.0784 -0.3945
   41loPI   C3A  649   7.117  14.922   9.967  0.0569  0.3543  0.1525
   41loPI   C4A  650   7.024  14.894   9.584 -0.1592  0.2111  0.1315
   41loPI   C5A  651   6.949  14.921   9.172 -0.0485 -0.1461  0.4841
   41loPI   C6A  652   6.855  15.073   8.831 -0.1509 -0.2359 -0.0767
   41loPI   C1B  653   7.286  14.448  10.616 -0.4193  0.1693  0.1708
   41loPI   C2B  654   7.389  14.514  10.234 -0.0754  0.0240  0.1121
   41loPI   C3B  655   7.282  14.483   9.850  0.0039 -0.1461  0.0998
   41loPI   C4B  656   7.139  14.456   9.388  0.1401 -0.4123  0.1464
   42loPI    C1  657   5.130  11.313  11.608 -0.2352  0.2048 -0.1012
   42loPI    C2  658   5.069  11.687  11.737 -0.2283  0.1025  0.2080
   42loPI    C3  659   4.858  11.385  11.893 -0.1287 -0.0420  0.0663
   42loPI   PO4  660   5.088  11.289  11.327  0.1376  0.3454 -0.2982
   42loPI   GL1  661   5.251  11.141  11.023 -0.0292  0.1215 -0.1030
   42loPI   GL2  662   5.271  11.502  10.826  0.3548 -0.2006  0.0676
   42loPI   C1A  663   5.464  10.983  10.593  0.1136  0.0650  0.0419
   42loPI   C2A  664   5.424  10.959  10.214  0.3868 -0.1497 -0.2256
   42loPI   C3A  665   5.424  11.008   9.802  0.2871  0.0867  0.1147
   42loPI   C4A  666   5.407  11.144   9.371  0.1550 -0.3464  0.0797
   42loPI   C5A  667   5.294  11.268   8.911 -0.1733  0.0287  0.2551
   42loPI   C6A  668   5.258  11.180   8.503  0.1134 -0.0363  0.0446
   42loPI   C1B  669   5.222  11.475  10.345 -0.1854  0.2076  0.2025
   42loPI   C2B  670   5.196  11.446   9.884  0.2132  0.0360 -0.1805
   42loPI   C3B  671   5.171  11.631   9.385 -0.1820 -0.2817 -0.2389
   42loPI   C4B  672   4.990  11.751   8.897  0.0963  0.1366 -0.0345
   43loPI    C1  673  10.578   8.018  11.646 -0.0487  0.2480 -0.0290
   43loPI    C2  674  10.777   7.865  11.956  0.0297  0.2883 -0.0593
   43loPI    C3  675  10.380   7.827  11.936  0.0713 -0.1346 -0.1926
   43loPI   PO4  676  10.655   7.895  11.458 -0.0128  0.2803 -0.3915
   43loPI   GL1  677  10.393   7.882  11.168 -0.1642  0.2520  0.0367
   43loPI   GL2  678  10.677   7.649  11.038 -0.0780 -0.0765 -0.0676
   43loPI   C1A  679  10.600   8.096  10.806  0.0240  0.0488 -0.3844
   43loPI   C2A  680  10.582   8.070  10.375 -0.0768 -0.1458  0.2300
   43loPI   C3A  681  10.676   8.047   9.913  0.3264 -0.0051 -0.0365
   43loPI   C4A  682  10.667   8.116   9.479  0.0604 -0.4160 -0.1895
   43loPI   C5A  683  10.500   8.230   9.145  0.2285  0.1288 -0.2274
   43loPI   C6A  684  10.469   8.468   8.779  0.0400  0.0311  0.2608
   43loPI   C1B  685  10.792   7.648  10.561  0.0083  0.0018 -0.0774
   43loPI   C2B  686  10.825   7.661  10.167  0.1450  0.0485  0.2526
   43loPI   C3B  687  10.843   7.682   9.605 -0.0553 -0.0553 -0.2482
   43loPI   C4B  688  10.876   7.468   9.249 -0.1290  0.2086  0.0142
   44loPI    C1  689  17.228   8.963  11.946 -0.0589 -0.0976 -0.0360
   44loPI    C2  690  17.614   9.054  11.997 -0.0617 -0.0829 -0.0413
   44loPI    C3  691  17.353   9.115  12.294 -0.0514 -0.1386 -0.0206
   44loPI   PO4  692  17.252   9.104  11.651 -0.0858 -0.2828 -0.0707
   44loPI   GL1  693  17.337   9.103  11.169 -0.1613 -0.6815  0.1507
   44loPI   GL2  694  17.142   8.860  11.011 -0.1497 -0.0814 -0.1782
   44loPI   C1A  695  17.512   9.205  10.811 -0.0281 -0.0243 -0.0698
   44loPI   C2A  696  17.455   9.222  10.332 -0.0934  0.2937 -0.1108
   44loPI   C3A  697  17.466   9.135   9.900 -0.0646  0.0104 -0.0714
   44loPI   C4A  698  17.617   9.208   9.463 -0.0538  0.2378 -0.0896
   44loPI   C5A  699  18.084   9.255   9.177 -0.0459 -0.0614  0.0835
   44loPI   C6A  700  18.483   9.234   8.949  0.2014  0.0663  0.1499
   44loPI   C1B  701  17.226   8.805  10.569 -0.3812  0.1279  0.3256
   44loPI   C2B  702  17.172   8.664  10.124 -0.0364  0.0478  0.2091
   44loPI   C3B  703  17.229   8.758   9.649  0.0144  0.0031 -0.0404
   44loPI   C4B  704  17.198   8.831   9.290  0.3528 -0.0778  0.0939
   45loPI    C1  705  15.619   0.972  11.858 -0.1326 -0.0908  0.1252
   45loPI    C2  706  15.683   0.722  12.164 -0.2879 -0.2092  0.0626
   45loPI    C3  707  15.440   1.036  12.210 -0.2057 -0.1503  0.0991
   45loPI   PO4  708  15.651   0.810  11.648 -0.0301  0.4025  0.1748
   45loPI   GL1  709  15.594   0.584  11.286 -0.0362  0.3597 -0.2537
   45loPI   GL2  710  15.318   0.509  11.408  0.3823 -0.1501  0.2021
   45loPI   C1A  711  15.662   0.581  10.849 -0.0016  0.1043 -0.1061
   45loPI   C2A  712  15.625   0.699  10.380  0.2430  0.0605  0.1835
   45loPI   C3A  713  15.591   0.574   9.938  0.1892 -0.1216 -0.0754
   45loPI   C4A  714  15.621   0.611   9.476  0.1550 -0.0212  0.1102
   45loPI   C5A  715  15.759   0.687   9.027 -0.0393  0.0314  0.0333
   45loPI   C6A  716  15.416   0.877   8.716  0.1829  0.1846 -0.1043
   45loPI   C1B  717  15.210   0.706  10.993  0.1767 -0.2373  0.1948
   45loPI   C2B  718  15.123   0.676  10.517 -0.0760  0.0845 -0.0325
   45loPI   C3B  719  15.055   0.698  10.066  0.1492  0.2619  0.0629
   45loPI   C4B  720  15.151   0.650   9.594 -0.0559 -0.1049 -0.2636
   46loPI    C1  721  11.443   9.627  11.583 -0.0160 -0.0180  0.0196
   46loPI    C2  722  11.170   9.682  11.869 -0.1042 -0.2577 -0.0156
   46loPI    C3  723  11.397   9.353  11.871  0.1091 -0.1129 -0.0494
   46loPI   PO4  724  11.300   9.644  11.395 -0.0299 -0.0245 -0.1783
   46loPI   GL1  725  11.495   9.473  11.012  0.1516  0.1538  0.2941
   46loPI   GL2  726  11.780   9.513  11.157 -0.2558  0.1892 -0.0509
   46loPI   C1A  727  11.603   9.359  10.559  0.0451 -0.1520  0.0883
   46loPI   C2A  728  11.511   9.362  10.145 -0.0578 -0.2334 -0.1031
   46loPI   C3A  729  11.489   9.413   9.674  0.1545  0.2138 -0.3287
   46loPI   C4A  730  11.395   9.308   9.166  0.0903 -0.2487 -0.1144
   46loPI   C5A  731  11.616   9.388   8.829 -0.1771 -0.1071 -0.0786
   46loPI   C6A  732  11.673   9.395   8.410 -0.0292 -0.3856  0.1509
   46loPI   C1B  733  11.851   9.802  10.849  0.0016  0.4203  0.1078
   46loPI   C2B  734  11.785   9.846  10.361 -0.1156 -0.0915  0.2036
   46loPI   C3B  735  11.777   9.802   9.948  0.3152  0.0632 -0.2156
   46loPI   C4B  736  11.944   9.921   9.593 -0.2803 -0.1161  0.0755
   47loPI    C1  737   8.897  11.158  11.885  0.1660  0.0805 -0.0772
   47loPI    C2  738   8.552  11.103  12.081 -0.0368  0.0912 -0.4231
   47loPI    C3  739   8.728  10.795  11.896  0.0937  0.1050 -0.3240
   47loPI   PO4  740   8.758  11.385  11.636  0.2702 -0.0201  0.1659
   47loPI   GL1  741   8.695  11.285  11.145  0.2995 -0.2324 -0.4383
   47loPI   GL2  742   8.561  11.552  11.184 -0.0694  0.1087  0.0291
   47loPI   C1A  743   8.765  11.072  10.658 -0.1180  0.0262 -0.1971
   47loPI   C2A  744   8.705  11.100  10.188  0.0491  0.1371 -0.0090
   47loPI   C3A  745   8.883  11.098   9.762 -0.1921  0.0029  0.1331
   47loPI   C4A  746   8.758  10.980   9.419  0.0328  0.0961 -0.0501
   47loPI   C5A  747   8.889  10.837   9.029  0.0804  0.0877 -0.0720
   47loPI   C6A  748   8.853  10.718   8.570 -0.2113 -0.2047  0.0367
   47loPI   C1B  749   8.579  11.546  10.758 -0.0961  0.0306 -0.3145
   47loPI   C2B  750   8.623  11.562  10.388 -0.3649 -0.1261  0.0939
   47loPI   C3B  751   8.613  11.548  10.013 -0.0740 -0.1371 -0.0341
   47loPI   C4B  752   8.621  11.516   9.605 -0.0708  0.1564  0.2131
   48loPI    C1  753   7.656   5.815  11.878  0.3773 -0.0964 -0.0230
   48loPI    C2  754   7.866   5.550  12.093  0.2671  0.0648  0.2893
   48loPI    C3  755   7.864   5.937  12.197 -0.0639  0.0896  0.2022
   48loPI   PO4  756   7.576   5.696  11.677  0.1601 -0.0585  0.1249
   48loPI   GL1  757   7.407   5.632  11.370  0.0786  0.0756  0.2987
   48loPI   GL2  758   7.662   5.544  11.192  0.0232  0.1773 -0.1875
   48loPI   C1A  759   7.304   5.698  10.877  0.2791 -0.2319  0.0424
   48loPI   C2A  760   7.289   5.786  10.429  0.0171  0.4766 -0.2475
   48loPI   C3A  761   7.345   5.699   9.964 -0.1097  0.0381 -0.0575
   48loPI   C4A  762   7.347   5.707   9.575  0.1683  0.0687  0.0216
   48loPI   C5A  763   7.430   5.721   9.190 -0.3042  0.0621 -0.2102
   48loPI   C6A  764   7.473   5.686   8.780 -0.2520  0.0715  0.0137
   48loPI   C1B  765   7.855   5.709  10.792 -0.2630  0.1899 -0.0264
   48loPI   C2B  766   7.778   5.694  10.424 -0.0016 -0.3312 -0.2210
   48loPI   C3B  767   7.805   5.701   9.992  0.1143 -0.1296 -0.0953
   48loPI   C4B  768   7.828   5.677   9.526 -0.3489  0.0640 -0.0240
   49loPI    C1  769   5.395   9.526  11.262  0.1955 -0.0218 -0.2522
   49loPI    C2  770   5.727   9.743  11.213  0.1288  0.1802  0.1513
   49loPI    C3  771   5.372   9.925  11.243  0.0021 -0.0231 -0.0791
   49loPI   PO4  772   5.194   9.388  11.127 -0.1053 -0.0018 -0.1966
   49loPI   GL1  773   5.009   9.426  10.775 -0.0897 -0.1662 -0.0987
   49loPI   GL2  774   4.985   9.623  10.623  0.3339  0.1507 -0.2619
   49loPI   C1A  775   4.640   9.150  10.576  0.1119 -0.2882 -0.1113
   49loPI   C2A  776   4.622   9.114  10.141  0.2446  0.0927 -0.0607
   49loPI   C3A  777   4.591   9.179   9.682 -0.0046  0.3995 -0.2437
   49loPI   C4A  778   4.684   9.282   9.249  0.2296  0.3089 -0.1053
   49loPI   C5A  779   4.656   8.992   8.806 -0.0989  0.3239  0.0752
   49loPI   C6A  780   4.810   8.992   8.362 -0.0519 -0.1153 -0.1285
   49loPI   C1B  781   4.912   9.590  10.199  0.1511 -0.0848  0.1349
   49loPI   C2B  782   4.971   9.698   9.831  0.0119  0.1427  0.2368
   49loPI   C3B  783   4.834   9.753   9.428  0.2752  0.1557 -0.2606
   49loPI   C4B  784   4.726   9.723   8.967 -0.1232  0.2889  0.1010
   50loPI    C1  785  14.633  12.168  11.928 -0.1086 -0.0249  0.0522
   50loPI    C2  786  14.789  11.916  12.197  0.2499  0.1987  0.0606
   50loPI    C3  787  14.525  12.193  12.312 -0.0591 -0.0923  0.0707
   50loPI   PO4  788  14.869  12.157  11.761 -0.2501 -0.1148 -0.3768
   50loPI   GL1  789  15.148  12.146  11.382 -0.2826 -0.0829  0.2566
   50loPI   GL2  790  15.411  12.438  11.349  0.1993  0.2358 -0.0494
   50loPI   C1A  791  15.169  12.128  10.934 -0.1046 -0.3754 -0.0208
   50loPI   C2A  792  15.251  12.168  10.613 -0.4182  0.1905  0.0287
   50loPI   C3A  793  15.240  12.101  10.171  0.1706 -0.2295 -0.0197
   50loPI   C4A  794  15.271  12.225   9.778  0.0396 -0.3489 -0.0276
   50loPI   C5A  795  15.306  12.278   9.314 -0.1541  0.2417 -0.0774
   50loPI   C6A  796  15.380  12.197   8.772 -0.1280  0.0513 -0.0899
   50loPI   C1B  797  15.594  12.507  10.885 -0.1927 -0.3460 -0.0422
   50loPI   C2B  798  15.632  12.573  10.372 -0.1212 -0.1389 -0.1067
   50loPI   C3B  799  15.570  12.646   9.899 -0.0695 -0.1577  0.1179
   50loPI   C4B  800  15.572  12.671   9.428 -0.1458  0.0169 -0.0997
   51loPI    C1  801   4.125  15.642  11.683 -0.1236  0.0716 -0.1642
   51loPI    C2  802   3.948  15.628  12.041 -0.0594 -0.1657 -0.1399
   51loPI    C3  803   4.335  15.536  12.006 -0.0344 -0.0216 -0.2522
   51loPI   PO4  804   3.991  15.847  11.584 -0.0354 -0.0319  0.2535
   51loPI   GL1  805   3.856  16.080  11.261 -0.2798  0.0252  0.0723
   51loPI   GL2  806   4.095  16.287  11.044 -0.0713 -0.2248 -0.1130
   51loPI   C1A  807   3.568  16.220  10.880  0.0812 -0.1574  0.2653
   51loPI   C2A  808   3.450  16.185  10.450 -0.0357  0.1987  0.0959
   51loPI   C3A  809   3.447  16.030  10.002 -0.0483 -0.0018  0.0858
   51loPI   C4A  810   3.584  16.130   9.506 -0.3352 -0.1710  0.0553
   51loPI   C5A  811   3.534  16.235   9.104  0.1859 -0.1007 -0.2511
   51loPI   C6A  812   3.702  16.206   8.663  0.1026 -0.0169  0.1093
   51loPI   C1B  813   3.999  16.143  10.641 -0.0491 -0.1763 -0.2552
   51loPI   C2B  814   3.961  16.037  10.277  0.2442  0.0453  0.1012
   51loPI   C3B  815   4.044  16.044   9.905 -0.2033  0.0491 -0.1344
   51loPI   C4B  816   4.107  16.099   9.462  0.1663 -0.4668  0.1316
   52loPI    C1  817   1.518   9.593  11.949  0.0034  0.0580  0.1738
   52loPI    C2  818   1.517   9.208  12.058  0.2105 -0.0637 -0.2340
   52loPI    C3  819   1.180   9.380  11.928  0.0709 -0.0464  0.1387
   52loPI   PO4  820   1.723   9.626  11.866  0.1523 -0.0278 -0.1391
   52loPI   GL1  821   1.800   9.640  11.376  0.4989  0.0394  0.2706
   52loPI   GL2  822   1.845   9.819  11.183 -0.0369  0.0355 -0.1710
   52loPI   C1A  823   2.049   9.421  11.062  0.1840 -0.0562  0.2692
   52loPI   C2A  824   2.136   9.387  10.656 -0.0386  0.1405 -0.2133
   52loPI   C3A  825   2.099   9.390  10.187 -0.1837 -0.0258 -0.0769
   52loPI   C4A  826   1.986   9.455   9.724 -0.0151 -0.0751 -0.0537
   52loPI   C5A  827   2.134   9.589   9.281 -0.0084  0.1596 -0.1999
   52loPI   C6A  828   2.324   9.854   9.035 -0.0261 -0.1653 -0.0332
   52loPI   C1B  829   1.851   9.832  10.805  0.3574  0.1896 -0.1802
   52loPI   C2B  830   1.827   9.951  10.364  0.0020 -0.0822  0.0269
   52loPI   C3B  831   1.887   9.874   9.976  0.0293  0.1363  0.0836
   52loPI   C4B  832   1.823   9.971   9.543 -0.3571  0.0163  0.0484
   53loPI    C1  833   1.551   2.920  11.456  0.2802 -0.1371  0.1010
   53loPI    C2  834   1.397   2.555  11.512  0.0317 -0.0247  0.1684
   53loPI    C3  835   1.216   2.874  11.671  0.2916  0.1211  0.1775
   53loPI   PO4  836   1.652   2.917  11.265 -0.1180  0.2461  0.0207
   53loPI   GL1  837   1.569   3.040  10.907 -0.2782 -0.0704  0.0512
   53loPI   GL2  838   1.208   2.965  10.688 -0.2686 -0.2136  0.4217
   53loPI   C1A  839   1.806   3.024  10.505 -0.0306  0.0502  0.1974
   53loPI   C2A  840   1.802   3.064  10.107  0.2845 -0.1118  0.2317
   53loPI   C3A  841   1.888   3.091   9.766 -0.1377 -0.1592 -0.1990
   53loPI   C4A  842   2.055   2.993   9.330  0.0144 -0.0398  0.1215
   53loPI   C5A  843   2.184   2.715   9.040  0.1609  0.0668  0.1005
   53loPI   C6A  844   1.985   2.413   8.733  0.1599 -0.0206  0.1472
   53loPI   C1B  845   1.353   3.067  10.180  0.1118  0.5185 -0.1860
   53loPI   C2B  846   1.398   3.057   9.794  0.0224 -0.0829  0.0788
   53loPI   C3B  847   1.456   3.136   9.408  0.3327 -0.1042 -0.0898
   53loPI   C4B  848   1.414   3.203   8.931  0.2568  0.2997 -0.0984
   54loPI    C1  849  12.134   8.076  11.877 -0.0096 -0.0890  0.0401
   54loPI    C2  850  12.217   8.420  12.063 -0.0644  0.0487 -0.1862
   54loPI    C3  851  11.860   8.247  12.112  0.0457 -0.1010  0.1137
   54loPI   PO4  852  12.236   8.133  11.640 -0.2195  0.1965  0.1733
   54loPI   GL1  853  12.265   8.146  11.229  0.4602 -0.1610  0.0560
   54loPI   GL2  854  12.482   8.295  11.132  0.2189  0.1420 -0.0078
   54loPI   C1A  855  12.040   7.983  10.806  0.2306 -0.0931 -0.0617
   54loPI   C2A  856  12.132   7.980  10.378  0.1212 -0.0054  0.0518
   54loPI   C3A  857  12.168   7.988   9.908  0.0541 -0.3344  0.3118
   54loPI   C4A  858  12.262   8.069   9.481 -0.1564 -0.1481 -0.1481
   54loPI   C5A  859  12.520   8.014   9.066  0.0452  0.2333  0.1875
   54loPI   C6A  860  12.804   8.172   8.753  0.0253  0.1790 -0.0706
   54loPI   C1B  861  12.497   8.312  10.705  0.1121 -0.1248  0.0171
   54loPI   C2B  862  12.524   8.341  10.273 -0.2224  0.0059  0.4082
   54loPI   C3B  863  12.484   8.409   9.832 -0.2009  0.2900  0.3262
   54loPI   C4B  864  12.509   8.516   9.475  0.0144 -0.1186 -0.1438
   55loPI    C1  865   4.714   4.962  11.499 -0.0664  0.0527  0.1453
   55loPI    C2  866   4.966   5.206  11.691  0.1127 -0.0896  0.0936
   55loPI    C3  867   4.769   4.922  11.893  0.0752 -0.0479  0.1159
   55loPI   PO4  868   4.651   5.142  11.306 -0.1028  0.0462 -0.0794
   55loPI   GL1  869   4.633   5.353  10.973  0.1914 -0.0424  0.0905
   55loPI   GL2  870   4.847   5.100  10.774  0.1243  0.0258  0.1825
   55loPI   C1A  871   4.799   5.501  10.513  0.2306  0.1750 -0.1760
   55loPI   C2A  872   4.920   5.497  10.009  0.2347  0.2009  0.0258
   55loPI   C3A  873   4.984   5.501   9.605 -0.1872 -0.0237 -0.0146
   55loPI   C4A  874   4.939   5.470   9.159  0.3358 -0.2231  0.0656
   55loPI   C5A  875   5.227   5.364   8.761  0.0690 -0.1933  0.0246
   55loPI   C6A  876   5.552   5.483   8.572 -0.0849  0.0680  0.0487
   55loPI   C1B  877   5.068   5.017  10.415  0.3348 -0.0319 -0.0040
   55loPI   C2B  878   5.194   5.028   9.960 -0.2385  0.0116 -0.0605
   55loPI   C3B  879   5.112   5.044   9.501 -0.1263  0.2311  0.0582
   55loPI   C4B  880   5.118   4.900   9.089 -0.1054 -0.2702 -0.0058
   56loPI    C1  881   1.099  13.441  11.635  0.2240  0.1055  0.1019
   56loPI    C2  882   1.165  13.405  12.028  0.2005 -0.1984  0.0804
   56loPI    C3  883   1.220  13.091  11.786  0.3246  0.0171 -0.1766
   56loPI   PO4  884   0.909  13.625  11.617 -0.0842  0.0415  0.1623
   56loPI   GL1  885   0.818  13.626  11.191 -0.0034 -0.1225  0.0586
   56loPI   GL2  886   0.616  13.910  11.143  0.2705 -0.1036 -0.4601
   56loPI   C1A  887   0.757  13.566  10.777  0.1561  0.1231  0.0755
   56loPI   C2A  888   0.698  13.635  10.338  0.1558 -0.1420 -0.1617
   56loPI   C3A  889   0.690  13.645   9.831  0.2680  0.3578 -0.2950
   56loPI   C4A  890   0.879  13.625   9.429 -0.4608  0.1095 -0.1244
   56loPI   C5A  891   0.835  13.888   9.108  0.3101  0.2205  0.3880
   56loPI   C6A  892   0.652  14.267   8.979 -0.0292 -0.0735  0.0547
   56loPI   C1B  893   0.501  14.045  10.715 -0.1713 -0.0097 -0.0794
   56loPI   C2B  894   0.514  14.158  10.247  0.1474  0.0742 -0.0773
   56loPI   C3B  895   0.477  14.173   9.890 -0.0673  0.2647 -0.0133
   56loPI   C4B  896   0.691  14.116   9.525 -0.1512 -0.1475 -0.0300
   57loPI    C1  897   0.767  10.990  11.811 -0.1111  0.1438 -0.0266
   57loPI    C2  898   0.519  10.685  11.738  0.1646 -0.1064  0.0646
   57loPI    C3  899   0.449  10.930  12.046 -0.1570  0.0342 -0.1154
   57loPI   PO4  900   0.810  11.106  11.640 -0.0363  0.0694  0.1399
   57loPI   GL1  901   0.913  10.862  11.231 -0.0556 -0.1822 -0.0027
   57loPI   GL2  902   0.738  10.641  11.259 -0.1756  0.2417 -0.3174
   57loPI   C1A  903   1.005  10.872  10.818 -0.3207  0.2158  0.2653
   57loPI   C2A  904   0.945  10.923  10.389  0.1377  0.0828  0.0559
   57loPI   C3A  905   0.958  10.967   9.951 -0.1809 -0.1187 -0.1065
   57loPI   C4A  906   0.948  10.995   9.540  0.0970  0.0588 -0.2111
   57loPI   C5A  907   1.136  11.213   9.146  0.2237  0.2149  0.0318
   57loPI   C6A  908   1.442  11.120   8.860  0.3104  0.0086  0.1332
   57loPI   C1B  909   0.612  10.521  10.809 -0.0030 -0.3499  0.0700
   57loPI   C2B  910   0.597  10.537  10.320  0.0104  0.0088  0.0512
   57loPI   C3B  911   0.593  10.495   9.868  0.2119  0.3506 -0.1281
   57loPI   C4B  912   0.559  10.480   9.497  0.0012  0.0812 -0.2641
   58loPI    C1  913   9.477  10.122  11.504  0.0230  0.1155 -0.0819
   58loPI    C2  914   9.565  10.458  11.702 -0.1223  0.1191 -0.0227
   58loPI    C3  915   9.448  10.132  11.903  0.1542 -0.0109 -0.0680
   58loPI   PO4  916   9.589  10.164  11.237 -0.0717  0.1202  0.1782
   58loPI   GL1  917   9.365  10.078  10.905 -0.0938  0.1931  0.1717
   58loPI   GL2  918   9.359   9.728  10.740 -0.2003  0.1657 -0.2037
   58loPI   C1A  919   9.314  10.095  10.455  0.1327  0.0265 -0.0947
   58loPI   C2A  920   9.208  10.065  10.076  0.0411 -0.0442 -0.0483
   58loPI   C3A  921   9.172  10.076   9.609  0.4674 -0.1162 -0.2002
   58loPI   C4A  922   9.255  10.096   9.136  0.1617  0.3921  0.0507
   58loPI   C5A  923   9.411  10.514   8.881  0.3007  0.2497 -0.1021
   58loPI   C6A  924   9.356  10.810   8.516  0.2555  0.1096 -0.0472
   58loPI   C1B  925   9.528   9.665  10.346 -0.2119  0.1781 -0.0725
   58loPI   C2B  926   9.517   9.656   9.888  0.0801  0.0468  0.1595
   58loPI   C3B  927   9.424   9.658   9.354  0.2955  0.3140 -0.0933
   58loPI   C4B  928   9.443   9.625   8.932 -0.0609 -0.1717  0.0113
   59loPI    C1  929  14.460   8.750  12.091  0.1843  0.1469 -0.3096
   59loPI    C2  930  14.780   8.549  12.222 -0.0898 -0.1386 -0.0615
   59loPI    C3  931  14.705   8.917  12.358  0.0947 -0.0977 -0.0691
   59loPI   PO4  932  14.501   8.726  11.728  0.0893 -0.2194  0.0140
   59loPI   GL1  933  14.519   8.555  11.294 -0.0463 -0.0111 -0.2721
   59loPI   GL2  934  14.279   8.550  11.142 -0.1828  0.0077 -0.2199
   59loPI   C1A  935  14.781   8.539  10.890 -0.1531  0.1759  0.2594
   59loPI   C2A  936  14.766   8.502  10.448 -0.1090 -0.3200 -0.0668
   59loPI   C3A  937  14.769   8.612  10.077  0.2790  0.4343 -0.2836
   59loPI   C4A  938  14.859   8.531   9.620  0.3956 -0.0783  0.1916
   59loPI   C5A  939  14.772   8.561   9.178 -0.1244 -0.1228 -0.3016
   59loPI   C6A  940  14.822   8.536   8.772 -0.2548 -0.2681  0.3113
   59loPI   C1B  941  14.282   8.612  10.799  0.0032 -0.2128 -0.0191
   59loPI   C2B  942  14.295   8.542  10.393  0.0005 -0.0601 -0.0110
   59loPI   C3B  943  14.271   8.651   9.973  0.0406  0.1248 -0.0414
   59loPI   C4B  944  14.423   8.738   9.564  0.1363  0.1658  0.0007
   60loPI    C1  945  15.352  11.323  11.864 -0.2297  0.1768 -0.3190
   60loPI    C2  946  15.391  11.661  12.073 -0.1678  0.0164 -0.0672
   60loPI    C3  947  15.029  11.497  12.023 -0.1461 -0.1203  0.2004
   60loPI   PO4  948  15.425  11.271  11.630 -0.1886 -0.0348  0.0620
   60loPI   GL1  949  15.413  11.056  11.222 -0.0603 -0.1232  0.2735
   60loPI   GL2  950  15.731  11.170  11.265  0.1827 -0.2066 -0.1672
   60loPI   C1A  951  15.238  11.313  10.931 -0.2486 -0.1013  0.1104
   60loPI   C2A  952  15.199  11.203  10.546  0.1546 -0.0690  0.3363
   60loPI   C3A  953  15.153  11.294  10.139 -0.1018  0.0881  0.1040
   60loPI   C4A  954  15.209  11.418   9.685  0.0096 -0.0433 -0.2063
   60loPI   C5A  955  15.285  11.389   9.248 -0.0549  0.0582  0.0446
   60loPI   C6A  956  15.667  11.312   9.023 -0.0219 -0.1708  0.2586
   60loPI   C1B  957  15.766  11.215  10.765  0.0371  0.0241  0.0427
   60loPI   C2B  958  15.687  11.181  10.330  0.1194 -0.2782 -0.1233
   60loPI   C3B  959  15.737  11.198   9.922  0.0882  0.0023 -0.2985
   60loPI   C4B  960  15.792  11.313   9.493 -0.2257 -0.0231 -0.1846
   61loPI    C1  961  11.661   8.976  11.860 -0.0433  0.0483  0.2123
   61loPI    C2  962  12.057   8.939  11.815 -0.0480  0.2301  0.0061
   61loPI    C3  963  11.871   8.748  12.113  0.1425 -0.1430 -0.1073
   61loPI   PO4  964  11.627   8.918  11.533  0.0103 -0.1620  0.3341
   61loPI   GL1  965  11.720   8.711  11.195 -0.1344 -0.0248  0.0133
   61loPI   GL2  966  11.778   8.419  11.115  0.0937 -0.1218 -0.0854
   61loPI   C1A  967  11.758   8.929  10.841  0.1315 -0.2078  0.2433
   61loPI   C2A  968  11.754   8.885  10.346 -0.2514 -0.0753  0.0716
   61loPI   C3A  969  11.740   8.949   9.862  0.1469 -0.0019 -0.0113
   61loPI   C4A  970  11.795   8.919   9.487  0.3152 -0.4174  0.0436
   61loPI   C5A  971  11.749   8.968   9.055  0.1166  0.0275  0.1061
   61loPI   C6A  972  12.039   8.597   8.852 -0.1774  0.3338 -0.0500
   61loPI   C1B  973  11.842   8.441  10.635  0.3605  0.0143 -0.0635
   61loPI   C2B  974  11.951   8.422  10.245  0.1150 -0.2456 -0.1062
   61loPI   C3B  975  11.923   8.448   9.775 -0.0732  0.2088  0.2863
   61loPI   C4B  976  12.028   8.519   9.357 -0.1306 -0.0632  0.3821
   62loPI    C1  977   9.647   8.149  11.829 -0.0226 -0.0969  0.0317
   62loPI    C2  978   9.298   8.043  11.993 -0.1522 -0.0398 -0.2019
   62loPI    C3  979   9.561   8.259  12.204 -0.2584 -0.0803 -0.0257
   62loPI   PO4  980   9.590   7.997  11.590 -0.0889 -0.1369  0.1740
   62loPI   GL1  981   9.674   7.950  11.089 -0.1407 -0.0321 -0.1699
   62loPI   GL2  982   9.971   8.060  11.092  0.0763 -0.0698 -0.1009
   62loPI   C1A  983   9.692   7.853  10.616 -0.2185 -0.1914  0.1284
   62loPI   C2A  984   9.851   7.785  10.114  0.2827  0.0338  0.1173
   62loPI   C3A  985   9.806   7.763   9.746  0.0262  0.0550  0.0547
   62loPI   C4A  986   9.740   7.789   9.264  0.1349 -0.1466 -0.0995
   62loPI   C5A  987   9.505   7.905   8.931 -0.1512  0.0641  0.0432
   62loPI   C6A  988   9.096   8.056   8.852  0.1045  0.0886  0.0972
   62loPI   C1B  989  10.101   8.143  10.690  0.2666 -0.2493 -0.2603
   62loPI   C2B  990  10.091   8.132  10.397  0.0200 -0.3999  0.0486
   62loPI   C3B  991  10.076   8.206   9.943 -0.0831 -0.0642 -0.0041
   62loPI   C4B  992  10.035   8.132   9.479 -0.1660  0.3210  0.0375
   63loPI    C1  993  11.281  16.890  11.610  0.1350  0.1716  0.2475
   63loPI    C2  994  10.925  17.071  11.586  0.1498  0.1869  0.1358
   63loPI    C3  995  10.976  16.760  11.833 -0.0371 -0.0356 -0.1009
   63loPI   PO4  996  11.366  16.820  11.391 -0.3332 -0.0680  0.1003
   63loPI   GL1  997  11.183  16.791  11.039 -0.1018  0.0426  0.2111
   63loPI   GL2  998  11.095  17.186  11.159  0.1420  0.1489 -0.3530
   63loPI   C1A  999  11.170  16.832  10.615 -0.0448  0.2280  0.0520
   63loPI   C2A 1000  11.204  16.927  10.113 -0.1244  0.0560 -0.0084
   63loPI   C3A 1001  11.264  16.852   9.732 -0.0608 -0.0576 -0.0338
   63loPI   C4A 1002  11.326  16.969   9.296 -0.2351 -0.0952 -0.0501
   63loPI   C5A 1003  11.198  17.179   8.945 -0.1885  0.1883 -0.0446
   63loPI   C6A 1004  11.032  17.611   8.859  0.2197 -0.3175 -0.1195
   63loPI   C1B 1005  11.064  17.342  10.710 -0.1767 -0.0019 -0.0743
   63loPI   C2B 1006  11.089  17.374  10.251 -0.1676 -0.2044  0.1908
   63loPI   C3B 1007  11.103  17.344   9.850  0.2978 -0.3622 -0.0118
   63loPI   C4B 1008  11.017  17.372   9.459 -0.3258  0.0067  0.1892
   64loPI    C1 1009  12.216  14.422  11.457  0.1761 -0.0708 -0.0390
   64loPI    C2 1010  12.486  14.226  11.678  0.2326 -0.0475 -0.0872
   64loPI    C3 1011  12.181  14.414  11.855  0.2017 -0.1437 -0.0380
   64loPI   PO4 1012  12.250  14.568  11.277  0.3995  0.0128 -0.0931
   64loPI   GL1 1013  12.201  14.274  10.929  0.0192  0.1908 -0.0077
   64loPI   GL2 1014  12.052  13.971  10.813  0.0408  0.2127 -0.1771
   64loPI   C1A 1015  12.280  14.419  10.562 -0.1918  0.1118  0.2587
   64loPI   C2A 1016  12.344  14.431  10.062  0.0998 -0.0277 -0.1371
   64loPI   C3A 1017  12.390  14.333   9.675  0.2306  0.0805  0.0324
   64loPI   C4A 1018  12.494  14.384   9.207  0.0685  0.4009 -0.0032
   64loPI   C5A 1019  12.691  14.714   8.982 -0.0870 -0.2694 -0.2016
   64loPI   C6A 1020  12.922  15.044   8.737  0.1252 -0.2096 -0.2170
   64loPI   C1B 1021  12.018  14.049  10.406  0.1995  0.0403  0.2227
   64loPI   C2B 1022  11.977  13.986   9.998 -0.0090 -0.0510 -0.1679
   64loPI   C3B 1023  11.960  13.967   9.635  0.1901 -0.2761 -0.2355
   64loPI   C4B 1024  12.246  13.978   9.345 -0.1810 -0.0050  0.2024
   65loPI    C1 1025   4.460   9.378  11.532  0.0697 -0.2237 -0.0748
   65loPI    C2 1026   4.855   9.331  11.490  0.0833 -0.1920  0.0160
   65loPI    C3 1027   4.705   9.466  11.836 -0.0038 -0.1657 -0.0319
   65loPI   PO4 1028   4.395   9.479  11.344  0.2742 -0.0825 -0.0199
   65loPI   GL1 1029   4.152   9.439  10.922  0.3260 -0.2972  0.2681
   65loPI   GL2 1030   3.990   9.688  10.856 -0.0756  0.0042 -0.2254
   65loPI   C1A 1031   4.157   9.269  10.624 -0.2135 -0.1862  0.1434
   65loPI   C2A 1032   4.174   9.135  10.273  0.3102 -0.1847  0.1410
   65loPI   C3A 1033   4.087   9.298   9.964 -0.0848 -0.3129  0.2341
   65loPI   C4A 1034   4.018   9.296   9.519  0.0695 -0.1467  0.2579
   65loPI   C5A 1035   4.025   9.151   9.079 -0.0109  0.1980 -0.1517
   65loPI   C6A 1036   4.169   9.108   8.725  0.3611  0.1917  0.0227
   65loPI   C1B 1037   3.979   9.650  10.433 -0.2828 -0.2404 -0.1195
   65loPI   C2B 1038   3.774   9.744  10.077 -0.2070  0.1483 -0.0837
   65loPI   C3B 1039   3.787   9.751   9.580  0.0178 -0.2439  0.1701
   65loPI   C4B 1040   3.807   9.630   9.223 -0.1127 -0.0460  0.0003
   66loPI    C1 1041   0.242  12.377  11.894  0.0776 -0.1291  0.0944
   66loPI    C2 1042   0.257  12.773  11.951 -0.3084 -0.0900 -0.0487
   66loPI    C3 1043   0.063  12.541  12.212 -0.0012 -0.1990  0.0863
   66loPI   PO4 1044   0.179  12.333  11.649  0.1059 -0.1851 -0.0978
   66loPI   GL1 1045  -0.071  12.445  11.278  0.1712 -0.0557  0.0100
   66loPI   GL2 1046   0.182  12.342  11.126 -0.2684 -0.0568 -0.2727
   66loPI   C1A 1047  -0.249  12.394  10.838  0.0214 -0.1435 -0.0907
   66loPI   C2A 1048  -0.212  12.342  10.408  0.0796 -0.1390 -0.1760
   66loPI   C3A 1049  -0.237  12.415   9.965 -0.1339  0.0564  0.1660
   66loPI   C4A 1050  -0.169  12.412   9.578  0.0171 -0.0613  0.1533
   66loPI   C5A 1051  -0.121  12.427   9.172  0.0601  0.1979  0.1451
   66loPI   C6A 1052  -0.025  12.138   8.750 -0.1424  0.0224  0.0516
   66loPI   C1B 1053   0.281  12.321  10.718 -0.0615  0.2239  0.0216
   66loPI   C2B 1054   0.293  12.282  10.359 -0.0191 -0.0960  0.1100
   66loPI   C3B 1055   0.275  12.402   9.988  0.1093  0.2587  0.1116
   66loPI   C4B 1056   0.386  12.341   9.610 -0.1635 -0.2458 -0.1158
   67loPI    C1 1057   6.074   1.519  11.352  0.2289 -0.1589 -0.1090
   67loPI    C2 1058   5.942   1.573  11.726 -0.0750 -0.0831 -0.2240
   67loPI    C3 1059   6.288   1.738  11.610  0.0270 -0.1163  0.0251
   67loPI   PO4 1060   5.772   1.462  11.275  0.1426  0.2068 -0.2144
   67loPI   GL1 1061   5.554   1.506  11.035 -0.1351  0.0723  0.0943
   67loPI   GL2 1062   5.391   1.734  10.929  0.2122  0.1496  0.2846
   67loPI   C1A 1063   5.306   1.323  10.719 -0.2803 -0.4092 -0.2265
   67loPI   C2A 1064   5.237   1.306  10.338  0.1797  0.0959 -0.2352
   67loPI   C3A 1065   5.374   1.328   9.945  0.1284 -0.1814  0.1828
   67loPI   C4A 1066   5.392   1.271   9.579  0.4611  0.0509 -0.1605
   67loPI   C5A 1067   5.298   1.370   9.264  0.3417  0.0126 -0.2330
   67loPI   C6A 1068   5.356   1.675   8.942  0.1311  0.0334  0.1752
   67loPI   C1B 1069   5.568   1.630  10.528 -0.3089 -0.0142 -0.0679
   67loPI   C2B 1070   5.609   1.760  10.127  0.0258  0.2630 -0.1545
   67loPI   C3B 1071   5.629   1.733   9.637  0.1061  0.2718 -0.1427
   67loPI   C4B 1072   5.760   1.787   9.298  0.0771 -0.0572 -0.1506
   68loPI    C1 1073   5.164   8.928  11.515  0.1505 -0.0196 -0.1377
   68loPI    C2 1074   5.120   8.547  11.629 -0.0839 -0.0111 -0.1951
   68loPI    C3 1075   5.343   8.797  11.848 -0.1092 -0.1253 -0.0375
   68loPI   PO4 1076   5.185   8.842  11.186 -0.3597 -0.0150  0.2946
   68loPI   GL1 1077   5.351   8.991  10.853 -0.0130  0.0082 -0.0641
   68loPI   GL2 1078   5.373   8.765  10.625 -0.1965  0.0040  0.2838
   68loPI   C1A 1079   5.229   9.183  10.416 -0.2430 -0.0612  0.1687
   68loPI   C2A 1080   5.118   9.202   9.946  0.0213 -0.2759  0.0911
   68loPI   C3A 1081   5.069   9.291   9.557 -0.1121  0.0670  0.1097
   68loPI   C4A 1082   5.246   9.232   9.191  0.1487 -0.0659 -0.1009
   68loPI   C5A 1083   5.074   9.408   8.843  0.0739  0.1565 -0.1137
   68loPI   C6A 1084   4.962   9.760   8.536  0.1530  0.1906  0.0118
   68loPI   C1B 1085   5.413   8.683  10.296  0.1186  0.2216 -0.1168
   68loPI   C2B 1086   5.323   8.628   9.805 -0.1849 -0.0558 -0.1418
   68loPI   C3B 1087   5.289   8.803   9.440  0.2487 -0.1712 -0.3095
   68loPI   C4B 1088   5.546   8.835   9.088 -0.1354  0.0037 -0.1998
   69loPI    C1 1089  11.286  14.412  11.646  0.2983  0.0960 -0.0114
   69loPI    C2 1090  11.109  14.095  11.815  0.1813 -0.0037 -0.3145
   69loPI    C3 1091  10.996  14.465  11.917  0.1129 -0.0620 -0.1759
   69loPI   PO4 1092  11.302  14.393  11.399 -0.0837  0.4314  0.1338
   69loPI   GL1 1093  11.289  14.218  11.026 -0.1102 -0.3052 -0.2754
   69loPI   GL2 1094  10.972  14.146  10.932  0.2165 -0.1609 -0.3796
   69loPI   C1A 1095  11.610  14.125  10.778  0.1433 -0.0221  0.1971
   69loPI   C2A 1096  11.565  14.007  10.277  0.1279 -0.1507 -0.3109
   69loPI   C3A 1097  11.461  13.982   9.889  0.1736  0.3045  0.0282
   69loPI   C4A 1098  11.564  14.129   9.414  0.0815  0.1901  0.0637
   69loPI   C5A 1099  11.707  14.308   8.963 -0.1128  0.3059 -0.1048
   69loPI   C6A 1100  12.148  14.522   8.840  0.0551  0.2150  0.1668
   69loPI   C1B 1101  11.105  14.142  10.558  0.1803 -0.1838 -0.1343
   69loPI   C2B 1102  11.044  14.052  10.076  0.0906  0.0048  0.2142
   69loPI   C3B 1103  10.958  14.019   9.597 -0.1053 -0.0955 -0.0434
   69loPI   C4B 1104  10.852  13.950   9.056 -0.1352 -0.0557 -0.0433
   70loPI    C1 1105  16.134  13.785  12.014 -0.2407 -0.0772 -0.0937
   70loPI    C2 1106  16.073  13.440  12.209 -0.0548 -0.0055  0.0951
   70loPI    C3 1107  15.862  13.766  12.307 -0.1499 -0.0363 -0.0059
   70loPI   PO4 1108  16.131  13.670  11.717  0.0661  0.0362 -0.0477
   70loPI   GL1 1109  16.127  13.842  11.339  0.0808 -0.1049  0.2373
   70loPI   GL2 1110  16.419  13.795  11.216 -0.1847  0.1256  0.0941
   70loPI   C1A 1111  16.037  13.830  10.909  0.0262 -0.0823  0.0937
   70loPI   C2A 1112  16.007  13.831  10.570  0.1153  0.1449  0.1190
   70loPI   C3A 1113  16.015  13.897  10.142 -0.0237  0.0480 -0.0592
   70loPI   C4A 1114  15.989  13.942   9.708 -0.3556  0.1060 -0.1023
   70loPI   C5A 1115  15.902  14.228   9.407 -0.0216 -0.0046  0.1105
   70loPI   C6A 1116  15.909  14.448   8.999  0.1093 -0.2340  0.1758
   70loPI   C1B 1117  16.496  13.853  10.866  0.1077 -0.1968 -0.1545
   70loPI   C2B 1118  16.471  13.889  10.442  0.2908  0.1054  0.0271
   70loPI   C3B 1119  16.492  13.775  10.013  0.1144  0.1288 -0.2997
   70loPI   C4B 1120  16.556  13.850   9.558 -0.1994  0.0729 -0.2036
   71loPI    C1 1121  14.120   8.030  12.110 -0.1124  0.3054  0.1378
   71loPI    C2 1122  14.503   8.128  12.168 -0.1013  0.2690  0.1256
   71loPI    C3 1123  14.213   8.346  12.337 -0.0787  0.3672  0.0389
   71loPI   PO4 1124  14.071   7.987  11.843  0.1900 -0.0210 -0.1379
   71loPI   GL1 1125  14.063   7.981  11.407  0.3132  0.6933  0.0497
   71loPI   GL2 1126  13.978   8.281  11.405 -0.2997  0.0715  0.0189
   71loPI   C1A 1127  14.421   8.078  11.116  0.1590 -0.0799  0.3533
   71loPI   C2A 1128  14.506   8.165  10.646 -0.0188  0.1131 -0.0817
   71loPI   C3A 1129  14.512   8.081  10.171 -0.0734  0.1385 -0.2051
   71loPI   C4A 1130  14.488   8.158   9.740 -0.2667  0.1009 -0.1132
   71loPI   C5A 1131  14.608   8.102   9.269 -0.1594 -0.3327 -0.1041
   71loPI   C6A 1132  14.535   8.150   8.812 -0.0601  0.0596  0.3903
   71loPI   C1B 1133  13.922   8.226  10.966 -0.0080  0.2083 -0.0313
   71loPI   C2B 1134  13.897   8.216  10.481 -0.3683  0.0619 -0.0059
   71loPI   C3B 1135  13.911   8.174  10.154  0.3508  0.0195 -0.1241
   71loPI   C4B 1136  13.949   8.154   9.704  0.0685  0.0884  0.0459
   72loPI    C1 1137   8.108   6.910  11.718 -0.1653 -0.4249  0.1231
   72loPI    C2 1138   8.371   6.711  11.945  0.1153 -0.1804  0.0186
   72loPI    C3 1139   8.249   7.076  12.054 -0.0391 -0.2167 -0.0306
   72loPI   PO4 1140   8.232   6.943  11.463  0.1284  0.1714  0.0616
   72loPI   GL1 1141   8.237   6.792  11.026  0.1656  0.4666 -0.0978
   72loPI   GL2 1142   7.920   6.973  11.023  0.0162  0.1338 -0.1179
   72loPI   C1A 1143   8.240   6.994  10.616 -0.0983 -0.1262  0.0876
   72loPI   C2A 1144   8.219   6.971  10.216 -0.0222 -0.0693 -0.2393
   72loPI   C3A 1145   8.299   6.990   9.777  0.0594 -0.1799 -0.0278
   72loPI   C4A 1146   8.192   7.093   9.398  0.1028 -0.1908  0.0371
   72loPI   C5A 1147   8.170   7.139   9.019 -0.0624  0.1280  0.0054
   72loPI   C6A 1148   8.193   7.455   8.792  0.3382  0.1250 -0.3179
   72loPI   C1B 1149   7.681   7.056  10.597  0.3212  0.0514 -0.1806
   72loPI   C2B 1150   7.715   7.047  10.180  0.1842  0.0709 -0.1684
   72loPI   C3B 1151   7.701   6.977   9.709  0.0492  0.0956 -0.2974
   72loPI   C4B 1152   7.718   7.077   9.309 -0.2295 -0.1979  0.0655
   73loPI    C1 1153  10.019  12.307  11.606  0.0353  0.0994  0.0454
   73loPI    C2 1154  10.292  12.519  11.807 -0.0361  0.1045  0.1380
   73loPI    C3 1155  10.260  12.125  11.868  0.1597  0.0484 -0.1030
   73loPI   PO4 1156  10.031  12.504  11.324 -0.1632  0.1097 -0.0053
   73loPI   GL1 1157   9.863  12.622  10.910  0.2121  0.1306 -0.4546
   73loPI   GL2 1158  10.109  12.807  10.899  0.2997 -0.2668  0.0827
   73loPI   C1A 1159   9.780  12.320  10.496  0.0039 -0.0081  0.1323
   73loPI   C2A 1160   9.743  12.311  10.033  0.2222  0.0454  0.0267
   73loPI   C3A 1161   9.750  12.412   9.597 -0.0497 -0.0514  0.1852
   73loPI   C4A 1162   9.784  12.304   9.131  0.1882  0.0005  0.0436
   73loPI   C5A 1163  10.130  12.105   8.842 -0.2014  0.2638 -0.3155
   73loPI   C6A 1164  10.435  11.776   8.991 -0.0666  0.2449  0.1087
   73loPI   C1B 1165  10.129  12.763  10.482  0.0443 -0.0511  0.1035
   73loPI   C2B 1166  10.016  12.755  10.034  0.3471 -0.0502 -0.0614
   73loPI   C3B 1167  10.059  12.839   9.626  0.1022  0.1640  0.0269
   73loPI   C4B 1168  10.008  12.752   9.191  0.0215 -0.2680  0.0485
   74loPI    C1 1169   0.423   8.567  11.971  0.1986 -0.2954  0.0349
   74loPI    C2 1170   0.160   8.635  12.265  0.0673 -0.0137 -0.1428
   74loPI    C3 1171   0.295   8.264  12.199 -0.2410 -0.1529 -0.0121
   74loPI   PO4 1172   0.256   8.740  11.654 -0.0326  0.1492 -0.1635
   74loPI   GL1 1173   0.304   8.715  11.210 -0.2038  0.0324 -0.1156
   74loPI   GL2 1174   0.551   8.883  11.244 -0.0803  0.3646  0.0482
   74loPI   C1A 1175   0.328   8.745  10.802 -0.1487  0.1987 -0.2043
   74loPI   C2A 1176   0.368   8.757  10.356  0.0651  0.0462  0.3146
   74loPI   C3A 1177   0.351   8.711   9.975 -0.0889 -0.0239  0.0321
   74loPI   C4A 1178   0.382   8.776   9.563  0.1815  0.2096  0.0333
   74loPI   C5A 1179   0.683   8.780   9.314 -0.1399 -0.0726 -0.0375
   74loPI   C6A 1180   1.213   8.651   9.236 -0.0212  0.1292 -0.1433
   74loPI   C1B 1181   0.681   9.104  10.872  0.0642  0.2000 -0.0147
   74loPI   C2B 1182   0.607   9.216  10.507 -0.3747 -0.2070  0.1756
   74loPI   C3B 1183   0.581   9.183  10.090  0.2172  0.0178  0.3302
   74loPI   C4B 1184   0.689   9.186   9.692  0.2785 -0.0428  0.3202
   75loPI    C1 1185  15.144   5.287  11.240  0.1148  0.1546 -0.0674
   75loPI    C2 1186  15.087   5.559  11.528  0.0891  0.0951 -0.0160
   75loPI    C3 1187  15.416   5.332  11.530  0.1523  0.1850 -0.1070
   75loPI   PO4 1188  15.019   5.411  11.039  0.2472 -0.2206  0.3981
   75loPI   GL1 1189  15.163   5.672  10.739 -0.1786 -0.3849  0.2907
   75loPI   GL2 1190  15.019   5.919  10.692 -0.2983  0.1581  0.4053
   75loPI   C1A 1191  15.028   5.372  10.391  0.0105  0.1752  0.0195
   75loPI   C2A 1192  15.187   5.421   9.992 -0.0056  0.0413  0.0142
   75loPI   C3A 1193  15.246   5.378   9.583 -0.0085 -0.1093 -0.0244
   75loPI   C4A 1194  15.402   5.495   9.155  0.2836 -0.1242  0.2314
   75loPI   C5A 1195  15.636   5.590   8.758 -0.0813 -0.1505 -0.0828
   75loPI   C6A 1196  16.058   5.491   8.533  0.3409 -0.1144  0.2314
   75loPI   C1B 1197  14.889   5.833  10.271 -0.2866 -0.1324  0.1684
   75loPI   C2B 1198  15.016   5.935   9.800  0.0328  0.1776 -0.2722
   75loPI   C3B 1199  15.024   5.934   9.359 -0.2296  0.1205 -0.0494
   75loPI   C4B 1200  15.121   5.971   8.907 -0.2258  0.3477  0.1344
   76loPI    C1 1201  11.605  17.180  11.979  0.0657  0.0296 -0.0026
   76loPI    C2 1202  11.212  17.186  12.053  0.0834  0.2131  0.0809
   76loPI    C3 1203  11.462  17.025  12.320  0.0678  0.1168  0.0379
   76loPI   PO4 1204  11.753  17.059  11.681  0.1423  0.1714 -0.2196
   76loPI   GL1 1205  11.831  16.899  11.227  0.0382  0.1979  0.2499
   76loPI   GL2 1206  11.916  16.637  11.173  0.1067  0.4930 -0.2279
   76loPI   C1A 1207  11.775  16.901  10.749 -0.1012 -0.1436 -0.1297
   76loPI   C2A 1208  11.706  16.845  10.376  0.0864  0.0630  0.0941
   76loPI   C3A 1209  11.731  16.746   9.951  0.0103 -0.1228  0.1687
   76loPI   C4A 1210  11.747  16.831   9.509  0.2678  0.0928 -0.0258
   76loPI   C5A 1211  11.929  16.759   9.126 -0.0004 -0.0520  0.2999
   76loPI   C6A 1212  12.151  16.931   8.766 -0.1416  0.0301  0.2416
   76loPI   C1B 1213  11.964  16.458  10.934 -0.0977  0.2034 -0.1599
   76loPI   C2B 1214  12.002  16.355  10.556  0.1161  0.0148  0.0310
   76loPI   C3B 1215  11.885  16.279  10.176  0.0479  0.1310  0.1948
   76loPI   C4B 1216  11.959  16.148   9.719  0.1022  0.1531  0.1662
   77loPI    C1 1217   3.753   5.406  11.351 -0.1516  0.1476  0.1577
   77loPI    C2 1218   3.647   5.141  11.631  0.3200  0.0367  0.2388
   77loPI    C3 1219   3.921   5.420  11.714  0.1625  0.2626  0.0109
   77loPI   PO4 1220   3.783   5.244  11.171  0.0826 -0.2298 -0.0888
   77loPI   GL1 1221   4.124   5.208  10.956  0.0939 -0.0965 -0.2365
   77loPI   GL2 1222   3.944   5.028  10.661 -0.0690  0.0438  0.0532
   77loPI   C1A 1223   4.258   5.490  10.541  0.0100 -0.0294  0.0701
   77loPI   C2A 1224   4.392   5.562  10.106 -0.1925  0.0721 -0.0246
   77loPI   C3A 1225   4.392   5.656   9.768  0.1847 -0.0877 -0.0413
   77loPI   C4A 1226   4.522   5.549   9.435  0.1694 -0.0710 -0.0442
   77loPI   C5A 1227   4.487   5.609   9.123  0.2973 -0.2967  0.0477
   77loPI   C6A 1228   4.741   5.610   8.653  0.2353  0.0995  0.0922
   77loPI   C1B 1229   3.913   5.078  10.276  0.2944 -0.0960 -0.3919
   77loPI   C2B 1230   3.982   5.203   9.894 -0.2935 -0.0998 -0.0814
   77loPI   C3B 1231   4.057   5.171   9.490 -0.1294  0.2824 -0.1414
   77loPI   C4B 1232   4.049   5.121   9.040 -0.0233 -0.1655 -0.1838
   78loPI    C1 1233   4.524   9.928  11.598  0.0433 -0.2874  0.2515
   78loPI    C2 1234   4.404  10.175  11.888 -0.0773  0.0947 -0.1135
   78loPI    C3 1235   4.744   9.969  11.929 -0.0520  0.2031  0.2608
   78loPI   PO4 1236   4.479  10.070  11.394 -0.1672 -0.1510  0.1455
   78loPI   GL1 1237   4.428   9.922  10.969 -0.0018  0.0004 -0.2719
   78loPI   GL2 1238   4.305  10.174  10.866  0.0690 -0.2328  0.1861
   78loPI   C1A 1239   4.436   9.713  10.582 -0.0642 -0.2424 -0.2805
   78loPI   C2A 1240   4.415   9.618  10.149  0.1658 -0.5275 -0.1833
   78loPI   C3A 1241   4.453   9.673   9.718 -0.1247 -0.0757 -0.3055
   78loPI   C4A 1242   4.294   9.680   9.382  0.0154 -0.1014 -0.2685
   78loPI   C5A 1243   4.275   9.573   8.962  0.3140  0.1727 -0.3172
   78loPI   C6A 1244   4.383   9.840   8.572  0.0038 -0.0082  0.0743
   78loPI   C1B 1245   4.171  10.106  10.452 -0.0067 -0.2336 -0.2471
   78loPI   C2B 1246   4.174  10.045  10.034 -0.2116  0.3045  0.0315
   78loPI   C3B 1247   4.279  10.217   9.520  0.1422  0.0140 -0.0687
   78loPI   C4B 1248   4.322  10.128   8.942  0.0235  0.0352 -0.2417
   79loPI    C1 1249  12.694  17.045  11.724  0.0366 -0.1720 -0.0040
   79loPI    C2 1250  12.544  16.822  12.020  0.0396 -0.0516  0.0889
   79loPI    C3 1251  12.823  17.098  12.099 -0.0840  0.0996  0.0019
   79loPI   PO4 1252  12.793  16.879  11.598  0.1888 -0.2707 -0.1833
   79loPI   GL1 1253  12.649  16.766  11.222 -0.0937  0.0389  0.0340
   79loPI   GL2 1254  12.907  16.676  11.180  0.0555 -0.0281 -0.1927
   79loPI   C1A 1255  12.301  16.828  10.922  0.4072  0.2345 -0.1391
   79loPI   C2A 1256  12.199  16.798  10.395 -0.1165 -0.0903 -0.1507
   79loPI   C3A 1257  12.254  16.656   9.950 -0.0566 -0.0590  0.0088
   79loPI   C4A 1258  12.226  16.664   9.531 -0.0799 -0.3582 -0.0006
   79loPI   C5A 1259  12.533  16.691   9.170  0.3852  0.0998 -0.0449
   79loPI   C6A 1260  12.691  16.957   8.745  0.2280  0.0105  0.1164
   79loPI   C1B 1261  12.931  16.595  10.770  0.3393  0.0681  0.1138
   79loPI   C2B 1262  12.796  16.656  10.317 -0.0985  0.2590 -0.1877
   79loPI   C3B 1263  12.788  16.582   9.909  0.1850 -0.1211 -0.0097
   79loPI   C4B 1264  12.901  16.388   9.468  0.2808 -0.0864  0.0087
   80loPI    C1 1265   8.616  16.247  11.684 -0.1612 -0.0109 -0.2118
   80loPI    C2 1266   8.736  16.609  11.804 -0.0437 -0.0808 -0.1174
   80loPI    C3 1267   8.729  16.304  12.063 -0.1568 -0.1429 -0.1928
   80loPI   PO4 1268   8.490  16.326  11.469 -0.0362  0.0132  0.0414
   80loPI   GL1 1269   8.721  16.293  11.010 -0.1312  0.0183  0.0431
   80loPI   GL2 1270   8.935  16.516  10.864 -0.1712  0.3178  0.1271
   80loPI   C1A 1271   8.585  16.121  10.575 -0.0187  0.0663 -0.3872
   80loPI   C2A 1272   8.455  16.129  10.147 -0.0391 -0.3333 -0.4399
   80loPI   C3A 1273   8.486  16.132   9.681 -0.0881  0.2213 -0.1867
   80loPI   C4A 1274   8.600  16.082   9.304  0.2075 -0.1546 -0.0181
   80loPI   C5A 1275   8.689  15.986   8.947  0.0958  0.3230  0.0293
   80loPI   C6A 1276   8.987  15.635   8.760  0.0255 -0.1268  0.0200
   80loPI   C1B 1277   8.863  16.600  10.398  0.0858  0.1642  0.4082
   80loPI   C2B 1278   8.761  16.591   9.938 -0.0749  0.0730  0.2394
   80loPI   C3B 1279   8.850  16.523   9.486 -0.1720  0.0209  0.1705
   80loPI   C4B 1280   8.819  16.752   9.072  0.2450 -0.0242 -0.0394
   81loPI    C1 1281   9.128   1.872  11.950 -0.1009 -0.1492 -0.0803
   81loPI    C2 1282   9.476   1.833  12.143 -0.1541 -0.1022  0.0258
   81loPI    C3 1283   9.311   1.517  11.962 -0.1536 -0.1701  0.1429
   81loPI   PO4 1284   9.147   2.076  11.749 -0.0940 -0.2123 -0.0222
   81loPI   GL1 1285   9.370   2.104  11.412  0.2667  0.3379  0.2339
   81loPI   GL2 1286   9.127   2.393  11.401  0.4030  0.0411  0.2527
   81loPI   C1A 1287   9.492   1.883  11.123  0.0589 -0.0651  0.1582
   81loPI   C2A 1288   9.696   1.942  10.651  0.0577  0.0955 -0.3796
   81loPI   C3A 1289   9.714   1.957  10.132 -0.0650 -0.0782  0.0113
   81loPI   C4A 1290   9.762   1.860   9.717 -0.1105  0.0110 -0.1676
   81loPI   C5A 1291   9.545   1.898   9.301  0.3505 -0.2890 -0.2498
   81loPI   C6A 1292   9.463   1.794   8.790 -0.0812 -0.2207 -0.0240
   81loPI   C1B 1293   9.034   2.422  10.875  0.1198  0.2407 -0.1351
   81loPI   C2B 1294   9.026   2.404  10.476 -0.3317 -0.0355  0.1435
   81loPI   C3B 1295   8.882   2.429  10.010  0.1841 -0.1452  0.0375
   81loPI   C4B 1296   8.915   2.440   9.580  0.0989 -0.0494  0.0320
   82loPI    C1 1297  10.601  15.683  11.861 -0.1355 -0.3567  0.1535
   82loPI    C2 1298  10.245  15.562  11.725 -0.2029  0.1717 -0.1682
   82loPI    C3 1299  10.274  15.897  11.943  0.1100  0.1906 -0.2341
   82loPI   PO4 1300  10.832  15.572  11.646  0.2457 -0.0966 -0.1699
   82loPI   GL1 1301  11.035  15.535  11.187  0.0974 -0.0344  0.1258
   82loPI   GL2 1302  11.045  15.235  11.182 -0.1242 -0.0945  0.2309
   82loPI   C1A 1303  10.917  15.572  10.754 -0.2184  0.1972  0.2135
   82loPI   C2A 1304  10.759  15.466  10.397  0.1860  0.0091  0.1794
   82loPI   C3A 1305  10.770  15.343   9.947 -0.0103  0.2627  0.1360
   82loPI   C4A 1306  10.672  15.486   9.581 -0.0930 -0.0130  0.2807
   82loPI   C5A 1307  10.454  15.778   9.209 -0.1148  0.0984  0.0878
   82loPI   C6A 1308  10.407  15.750   8.838 -0.1625 -0.2961  0.0694
   82loPI   C1B 1309  11.072  15.075  10.634  0.2433  0.4094 -0.1205
   82loPI   C2B 1310  10.989  14.988  10.200  0.1189 -0.0511 -0.2037
   82loPI   C3B 1311  11.051  14.909   9.807  0.1177 -0.0334  0.1644
   82loPI   C4B 1312  10.918  15.084   9.460  0.1188 -0.0205  0.2859
   83loPI    C1 1313   8.160   8.909  11.611 -0.2015  0.2884 -0.0511
   83loPI    C2 1314   8.007   9.107  11.923 -0.1595 -0.0560  0.1945
   83loPI    C3 1315   8.093   8.718  11.957  0.2134 -0.0068 -0.1261
   83loPI   PO4 1316   8.055   8.968  11.422  0.0512  0.1223 -0.1899
   83loPI   GL1 1317   8.065   9.285  11.081  0.1485 -0.0359  0.1591
   83loPI   GL2 1318   8.383   9.548  10.973 -0.0310  0.4113 -0.3248
   83loPI   C1A 1319   8.132   9.376  10.582  0.3345 -0.2015  0.0084
   83loPI   C2A 1320   8.123   9.378  10.177  0.0802  0.1284 -0.3496
   83loPI   C3A 1321   8.119   9.374   9.737 -0.1874 -0.0647  0.0087
   83loPI   C4A 1322   8.063   9.260   9.364 -0.3866 -0.0637 -0.1047
   83loPI   C5A 1323   8.213   9.056   8.955  0.2558  0.3607 -0.1136
   83loPI   C6A 1324   8.518   8.742   8.940 -0.0567 -0.2537  0.0465
   83loPI   C1B 1325   8.483   9.780  10.557 -0.2576 -0.0026 -0.0349
   83loPI   C2B 1326   8.416   9.832  10.122  0.1000 -0.0267  0.2544
   83loPI   C3B 1327   8.427   9.769   9.711 -0.0712 -0.3326 -0.1187
   83loPI   C4B 1328   8.469   9.495   9.365 -0.1471  0.4769  0.1674
   84loPI    C1 1329   3.567  13.263  11.677  0.1396 -0.3031  0.1234
   84loPI    C2 1330   3.772  13.541  11.880  0.3197 -0.3688  0.0328
   84loPI    C3 1331   3.376  13.511  11.927  0.2614  0.0619 -0.1362
   84loPI   PO4 1332   3.627  13.282  11.436 -0.0797 -0.0311  0.4552
   84loPI   GL1 1333   3.556  13.411  11.072  0.1760 -0.5046  0.3960
   84loPI   GL2 1334   3.240  13.367  10.912 -0.0208  0.2891  0.1890
   84loPI   C1A 1335   3.644  13.454  10.592  0.2047  0.4189  0.0460
   84loPI   C2A 1336   3.638  13.514  10.207  0.1846  0.1904 -0.0895
   84loPI   C3A 1337   3.689  13.340   9.850 -0.2115 -0.0047 -0.2222
   84loPI   C4A 1338   3.913  13.344   9.449 -0.0328 -0.0406 -0.3161
   84loPI   C5A 1339   3.715  13.335   9.209 -0.3035  0.1722 -0.0790
   84loPI   C6A 1340   3.684  12.909   8.844 -0.0681  0.1649 -0.1972
   84loPI   C1B 1341   3.184  13.400  10.448 -0.0440 -0.2258  0.1556
   84loPI   C2B 1342   3.213  13.427   9.977 -0.0088  0.1919  0.1299
   84loPI   C3B 1343   3.294  13.397   9.546 -0.0920  0.1532  0.0004
   84loPI   C4B 1344   3.176  13.328   9.158 -0.3455 -0.1597  0.2566
   85loPI    C1 1345   3.447   7.597  11.248 -0.0798  0.0672 -0.2158
   85loPI    C2 1346   3.241   7.294  11.409 -0.1701  0.1529 -0.1689
   85loPI    C3 1347   3.104   7.668  11.441  0.1675  0.2552  0.1693
   85loPI   PO4 1348   3.494   7.620  11.026 -0.1351 -0.0270  0.4530
   85loPI   GL1 1349   3.372   7.687  10.664 -0.4014 -0.0183  0.2597
   85loPI   GL2 1350   3.228   7.998  10.692  0.2510  0.2301 -0.0068
   85loPI   C1A 1351   3.434   7.500  10.291 -0.2797 -0.0184  0.2507
   85loPI   C2A 1352   3.402   7.434   9.870  0.2785 -0.1390  0.0465
   85loPI   C3A 1353   3.421   7.498   9.507 -0.0366  0.3079 -0.1972
   85loPI   C4A 1354   3.328   7.378   9.046  0.0851  0.2415  0.1448
   85loPI   C5A 1355   3.197   7.622   8.714 -0.1723 -0.1099 -0.1574
   85loPI   C6A 1356   3.342   7.902   8.478 -0.1035  0.0822  0.1005
   85loPI   C1B 1357   3.280   8.037  10.227 -0.2921  0.2682 -0.0814
   85loPI   C2B 1358   3.201   7.930   9.917  0.0158  0.0141  0.0394
   85loPI   C3B 1359   3.133   7.949   9.436 -0.1095  0.0128 -0.0993
   85loPI   C4B 1360   3.118   8.040   9.005  0.0890 -0.3110 -0.1171
   86loPI    C1 1361   1.503  10.579  11.975 -0.0707 -0.1521 -0.2504
   86loPI    C2 1362   1.710  10.899  12.098 -0.3450 -0.0272 -0.1059
   86loPI    C3 1363   1.646  10.593  12.348 -0.4857  0.0128 -0.0921
   86loPI   PO4 1364   1.542  10.548  11.657 -0.3315 -0.0816  0.0044
   86loPI   GL1 1365   1.803  10.396  11.288 -0.0031  0.3390 -0.3268
   86loPI   GL2 1366   2.008  10.688  11.203  0.1121 -0.1353  0.1433
   86loPI   C1A 1367   1.716  10.317  10.892  0.1493 -0.2470 -0.1387
   86loPI   C2A 1368   1.642  10.385  10.497 -0.0067 -0.1356 -0.2063
   86loPI   C3A 1369   1.651  10.325  10.094  0.1196 -0.0934  0.2411
   86loPI   C4A 1370   1.614  10.375   9.700 -0.2589  0.1260  0.2845
   86loPI   C5A 1371   1.818  10.356   9.265 -0.2472 -0.2016  0.0809
   86loPI   C6A 1372   1.967  10.229   8.803  0.0311  0.3541  0.0459
   86loPI   C1B 1373   1.959  10.707  10.790  0.1179 -0.2660  0.2239
   86loPI   C2B 1374   1.882  10.722  10.318  0.0716 -0.0951 -0.0936
   86loPI   C3B 1375   1.930  10.791   9.874  0.3058 -0.1800 -0.1577
   86loPI   C4B 1376   1.857  10.792   9.523  0.3633 -0.3134 -0.2004
   87loPI    C1 1377   7.230  12.725  11.892  0.1217  0.1241 -0.0962
   87loPI    C2 1378   7.297  12.406  12.124 -0.0971  0.1072 -0.0543
   87loPI    C3 1379   7.333  12.775  12.275 -0.0584  0.0987 -0.0432
   87loPI   PO4 1380   7.263  12.678  11.663  0.2035  0.0022 -0.0774
   87loPI   GL1 1381   7.137  12.756  11.247  0.1818 -0.1840  0.3196
   87loPI   GL2 1382   7.403  13.037  11.205 -0.1608 -0.0099 -0.0553
   87loPI   C1A 1383   7.110  12.641  10.793  0.1739  0.0783  0.0795
   87loPI   C2A 1384   7.086  12.737  10.447 -0.0501 -0.1738 -0.2304
   87loPI   C3A 1385   7.024  12.645  10.084 -0.1329  0.0502 -0.1801
   87loPI   C4A 1386   7.195  12.524   9.789 -0.0432  0.2081 -0.1340
   87loPI   C5A 1387   7.063  12.666   9.440  0.1234  0.1789 -0.0773
   87loPI   C6A 1388   7.172  12.707   8.973  0.1892  0.1080 -0.0013
   87loPI   C1B 1389   7.466  13.020  10.766 -0.2343 -0.1235 -0.1077
   87loPI   C2B 1390   7.457  13.093  10.302  0.4025  0.2401  0.2943
   87loPI   C3B 1391   7.388  12.958   9.910 -0.2067 -0.1211 -0.0649
   87loPI   C4B 1392   7.455  13.011   9.545 -0.1950  0.1393  0.0207
   88loPI    C1 1393   7.093  16.249  11.692  0.0205  0.0442 -0.0531
   88loPI    C2 1394   7.420  16.057  11.564  0.0512 -0.1091  0.2465
   88loPI    C3 1395   7.456  16.374  11.804 -0.0181 -0.0653  0.1992
   88loPI   PO4 1396   7.020  16.320  11.464  0.1184  0.0187  0.4544
   88loPI   GL1 1397   7.128  16.099  11.130 -0.1125  0.0207 -0.0147
   88loPI   GL2 1398   7.258  15.790  10.960  0.0840 -0.0932 -0.2901
   88loPI   C1A 1399   7.071  16.278  10.743 -0.0901 -0.1449 -0.3102
   88loPI   C2A 1400   6.993  16.339  10.254 -0.1158  0.0681  0.2798
   88loPI   C3A 1401   6.960  16.139   9.882 -0.0183 -0.1005 -0.1717
   88loPI   C4A 1402   7.110  16.289   9.533 -0.0023 -0.1998 -0.0059
   88loPI   C5A 1403   6.771  16.322   9.188  0.2807 -0.1669  0.0837
   88loPI   C6A 1404   6.413  16.090   9.051 -0.0262 -0.2296 -0.1573
   88loPI   C1B 1405   7.263  15.858  10.493  0.0817 -0.0653 -0.2234
   88loPI   C2B 1406   7.137  15.771  10.142  0.0081  0.2309 -0.1268
   88loPI   C3B 1407   7.211  15.813   9.617  0.1657  0.1131 -0.1438
   88loPI   C4B 1408   7.226  15.797   9.148  0.0645  0.0934  0.0652
   89loPI    C1 1409  12.080   4.402  11.532  0.0216 -0.0848 -0.0055
   89loPI    C2 1410  12.294   4.412  11.870  0.1213  0.2185 -0.0741
   89loPI    C3 1411  12.041   4.710  11.785  0.0274  0.0981 -0.2233
   89loPI   PO4 1412  12.228   4.353  11.346 -0.1586  0.2017  0.1981
   89loPI   GL1 1413  12.110   4.133  10.857  0.0861 -0.0954 -0.2229
   89loPI   GL2 1414  11.828   4.132  10.630 -0.1605 -0.0509  0.1254
   89loPI   C1A 1415  12.323   4.022  10.516  0.0559 -0.0381 -0.0253
   89loPI   C2A 1416  12.290   3.981  10.101 -0.0322 -0.0368  0.1773
   89loPI   C3A 1417  12.282   3.919   9.808 -0.0111 -0.0782 -0.1651
   89loPI   C4A 1418  12.173   4.024   9.460  0.0947 -0.0019  0.3872
   89loPI   C5A 1419  12.120   4.072   9.064 -0.0566 -0.2711 -0.0837
   89loPI   C6A 1420  12.282   4.312   8.777  0.0371 -0.2007 -0.1545
   89loPI   C1B 1421  11.713   4.052  10.238  0.0426 -0.0470 -0.0532
   89loPI   C2B 1422  11.664   4.018   9.774 -0.0855 -0.1069 -0.1067
   89loPI   C3B 1423  11.625   4.054   9.258 -0.3409 -0.2600 -0.0203
   89loPI   C4B 1424  11.723   3.810   8.961 -0.0487  0.2412  0.0048
   90loPI    C1 1425  10.083   6.949  11.702 -0.3320  0.0975  0.1675
   90loPI    C2 1426   9.783   6.689  11.751 -0.0953 -0.2060  0.0339
   90loPI    C3 1427  10.009   6.795  12.063 -0.1980 -0.1528  0.0904
   90loPI   PO4 1428  10.241   6.893  11.540 -0.1241 -0.2867 -0.0208
   90loPI   GL1 1429  10.205   6.799  11.175 -0.2130 -0.2575 -0.0207
   90loPI   GL2 1430  10.495   6.783  11.005 -0.0645 -0.2225 -0.0676
   90loPI   C1A 1431   9.988   7.092  10.898 -0.2562  0.2055 -0.1440
   90loPI   C2A 1432  10.022   7.240  10.499  0.1482 -0.0884 -0.0486
   90loPI   C3A 1433  10.028   7.286   9.980 -0.3545 -0.3013  0.0917
   90loPI   C4A 1434   9.892   7.307   9.540  0.0003  0.1603 -0.0523
   90loPI   C5A 1435   9.949   7.350   9.068  0.0556  0.1195  0.3559
   90loPI   C6A 1436  10.112   7.347   8.596  0.0101  0.0020  0.1414
   90loPI   C1B 1437  10.274   6.764  10.632 -0.1061  0.1392  0.3588
   90loPI   C2B 1438  10.195   6.865  10.199  0.3295 -0.2518  0.2202
   90loPI   C3B 1439  10.219   6.927   9.675  0.2075 -0.2027 -0.2352
   90loPI   C4B 1440  10.288   6.901   9.189  0.1180 -0.0142  0.1806
   91loPI    C1 1441   6.018   7.642  11.235  0.0385  0.0998  0.2146
   91loPI    C2 1442   5.772   7.353  11.110 -0.0628  0.2440  0.0773
   91loPI    C3 1443   5.920   7.343  11.481  0.1168 -0.1056  0.0003
   91loPI   PO4 1444   6.194   7.676  11.092 -0.0984 -0.1237 -0.3238
   91loPI   GL1 1445   6.289   7.469  10.779 -0.1526  0.0415  0.1222
   91loPI   GL2 1446   6.166   7.212  10.828  0.0403  0.1324  0.4461
   91loPI   C1A 1447   6.419   7.577  10.398  0.2549 -0.2090  0.4656
   91loPI   C2A 1448   6.397   7.689   9.971  0.0923  0.0577 -0.1209
   91loPI   C3A 1449   6.340   7.654   9.603  0.0400  0.0947 -0.0685
   91loPI   C4A 1450   6.443   7.491   9.223  0.2836  0.3935  0.0901
   91loPI   C5A 1451   6.343   7.388   8.816 -0.1618 -0.0042 -0.1098
   91loPI   C6A 1452   6.323   7.364   8.413 -0.3105  0.1067 -0.0400
   91loPI   C1B 1453   6.036   7.201  10.400  0.0397  0.1042 -0.1557
   91loPI   C2B 1454   6.119   7.256   9.927  0.2032 -0.0145 -0.3025
   91loPI   C3B 1455   6.156   7.135   9.512 -0.0022 -0.0933  0.0175
   91loPI   C4B 1456   6.242   6.936   9.196 -0.1782  0.0892 -0.3449
   92loPI    C1 1457   0.898   9.107  11.528  0.0044 -0.1493 -0.1923
   92loPI    C2 1458   0.771   9.019  11.896 -0.1790 -0.1498 -0.2548
   92loPI    C3 1459   0.794   8.732  11.619  0.0764 -0.1739 -0.2108
   92loPI   PO4 1460   0.889   9.336  11.531 -0.3678  0.0268  0.0667
   92loPI   GL1 1461   0.922   9.647  11.098  0.1732 -0.0725 -0.3368
   92loPI   GL2 1462   1.161   9.419  11.151 -0.1890  0.5263  0.1072
   92loPI   C1A 1463   1.063   9.548  10.674  0.1460 -0.1008 -0.3144
   92loPI   C2A 1464   0.947   9.509  10.222 -0.0444  0.1573  0.2610
   92loPI   C3A 1465   0.970   9.554   9.796  0.2056 -0.2350  0.1627
   92loPI   C4A 1466   1.029   9.621   9.358  0.0860 -0.0858 -0.0657
   92loPI   C5A 1467   1.164   9.785   8.951 -0.0975 -0.0620 -0.1684
   92loPI   C6A 1468   1.525  10.030   8.657 -0.1915  0.1607 -0.3100
   92loPI   C1B 1469   1.548   9.467  10.951  0.0928  0.1364  0.0262
   92loPI   C2B 1470   1.557   9.559  10.520 -0.0248  0.0371  0.1018
   92loPI   C3B 1471   1.629   9.453  10.100 -0.1925  0.1296 -0.1721
   92loPI   C4B 1472   1.503   9.578   9.582  0.0683 -0.2251 -0.0873
   93loPI    C1 1473  13.193   8.615  11.989  0.3249  0.1054  0.0227
   93loPI    C2 1474  13.251   8.337  12.270 -0.0542 -0.0125 -0.0108
   93loPI    C3 1475  13.065   8.679  12.362  0.0348  0.0507 -0.0649
   93loPI   PO4 1476  13.149   8.473  11.775 -0.1703 -0.0190  0.0309
   93loPI   GL1 1477  13.181   8.470  11.353 -0.2635 -0.0378  0.1580
   93loPI   GL2 1478  13.458   8.333  11.147 -0.1027 -0.0419  0.1740
   93loPI   C1A 1479  12.966   8.317  10.931 -0.0311  0.1748  0.0375
   93loPI   C2A 1480  12.988   8.257  10.481 -0.0512  0.0492  0.2365
   93loPI   C3A 1481  12.932   8.302  10.004  0.0544 -0.1672  0.0796
   93loPI   C4A 1482  13.080   8.460   9.589 -0.0321 -0.2501 -0.1826
   93loPI   C5A 1483  13.085   8.382   9.213  0.2417  0.0444 -0.0409
   93loPI   C6A 1484  13.332   8.284   8.845  0.1084  0.0954  0.1646
   93loPI   C1B 1485  13.447   8.259  10.759 -0.3374 -0.1568  0.1086
   93loPI   C2B 1486  13.404   8.254  10.217 -0.0440  0.2437  0.0938
   93loPI   C3B 1487  13.517   8.313   9.799 -0.1306  0.0757  0.1399
   93loPI   C4B 1488  13.569   8.305   9.371 -0.1568  0.2764 -0.0572
   94loPI    C1 1489   3.052  12.378  11.711  0.1909  0.0153  0.1820
   94loPI    C2 1490   2.850  12.679  11.879 -0.1519 -0.0641 -0.0767
   94loPI    C3 1491   3.170  12.526  12.063 -0.2229  0.1780  0.2579
   94loPI   PO4 1492   2.958  12.464  11.433  0.2266  0.0336 -0.1283
   94loPI   GL1 1493   3.263  12.383  11.153  0.1696 -0.0307  0.2117
   94loPI   GL2 1494   3.214  12.105  11.205  0.0684 -0.0457 -0.1150
   94loPI   C1A 1495   3.254  12.466  10.699 -0.4064  0.0133  0.1233
   94loPI   C2A 1496   3.211  12.467  10.324  0.0323  0.3153 -0.2402
   94loPI   C3A 1497   3.087  12.504   9.808 -0.2021  0.0415 -0.1944
   94loPI   C4A 1498   3.063  12.485   9.343 -0.1220  0.1758 -0.1971
   94loPI   C5A 1499   2.908  12.485   8.972 -0.2524  0.0410  0.1674
   94loPI   C6A 1500   2.818  12.343   8.513 -0.2370 -0.2863 -0.1326
   94loPI   C1B 1501   3.000  12.065  10.783 -0.2118  0.2227 -0.1137
   94loPI   C2B 1502   2.913  12.088  10.280 -0.0649  0.0193 -0.0384
   94loPI   C3B 1503   2.917  12.020   9.909  0.0864  0.0635  0.1112
   94loPI   C4B 1504   2.827  12.009   9.433  0.1475 -0.1674 -0.0088
   95loPI    C1 1505   2.554   5.857  11.489  0.1226 -0.0476 -0.0025
   95loPI    C2 1506   2.515   6.011  11.856  0.0145  0.0336 -0.0471
   95loPI    C3 1507   2.839   5.795  11.762  0.0380  0.0047  0.0983
   95loPI   PO4 1508   2.502   6.004  11.318  0.0676 -0.1017 -0.0777
   95loPI   GL1 1509   2.369   5.838  10.944  0.0352  0.0638  0.1033
   95loPI   GL2 1510   2.195   5.584  10.802  0.0789 -0.0329  0.0730
   95loPI   C1A 1511   2.395   6.152  10.665 -0.1730  0.1460  0.1483
   95loPI   C2A 1512   2.447   6.253  10.269 -0.2766 -0.2444 -0.0485
   95loPI   C3A 1513   2.472   6.228   9.854  0.0349  0.2026  0.1847
   95loPI   C4A 1514   2.461   6.354   9.406 -0.1388 -0.1919  0.1015
   95loPI   C5A 1515   2.418   6.292   8.999  0.1560 -0.0407  0.2558
   95loPI   C6A 1516   2.317   6.414   8.597 -0.2306  0.2374  0.1396
   95loPI   C1B 1517   2.075   5.783  10.465 -0.0065 -0.2986 -0.1203
   95loPI   C2B 1518   2.143   5.824  10.024 -0.0831 -0.2350 -0.0693
   95loPI   C3B 1519   2.205   5.852   9.568  0.1466 -0.0963  0.1300
   95loPI   C4B 1520   2.414   5.655   9.218  0.3320  0.0806  0.0690
   96loPI    C1 1521  16.720  14.756  11.953 -0.1160  0.2190  0.0825
   96loPI    C2 1522  16.493  14.708  12.279  0.0301 -0.1151  0.1392
   96loPI    C3 1523  16.890  14.735  12.315  0.0331  0.0399  0.0034
   96loPI   PO4 1524  16.682  14.555  11.754  0.1140 -0.1775  0.0789
   96loPI   GL1 1525  16.637  14.459  11.317 -0.0862  0.1852  0.1303
   96loPI   GL2 1526  16.445  14.327  11.172 -0.1909  0.1010  0.0198
   96loPI   C1A 1527  16.618  14.642  10.831  0.1990 -0.0853 -0.2608
   96loPI   C2A 1528  16.618  14.637  10.443  0.0350 -0.2094 -0.0833
   96loPI   C3A 1529  16.614  14.722  10.045 -0.4281  0.1315  0.1280
   96loPI   C4A 1530  16.671  14.681   9.602 -0.0609 -0.0102 -0.1329
   96loPI   C5A 1531  16.506  14.563   9.233  0.0777  0.2703  0.2648
   96loPI   C6A 1532  16.311  14.836   8.971 -0.3872  0.0300 -0.0465
   96loPI   C1B 1533  16.295  14.273  10.807 -0.0025  0.0150  0.1010
   96loPI   C2B 1534  16.237  14.301  10.381 -0.1588 -0.2788  0.0265
   96loPI   C3B 1535  16.288  14.306  10.024 -0.0385  0.1799 -0.1775
   96loPI   C4B 1536  16.346  14.334   9.617  0.0586 -0.0379 -0.2052
   97loPI    C1 1537  11.957   1.461  11.851  0.0189 -0.0780  0.0475
   97loPI    C2 1538  11.576   1.406  11.959  0.1174 -0.0835  0.4049
   97loPI    C3 1539  11.765   1.744  12.058  0.0929  0.0907 -0.1111
   97loPI   PO4 1540  11.958   1.284  11.666 -0.1190 -0.1499  0.0976
   97loPI   GL1 1541  11.910   1.147  11.212  0.0198  0.0238  0.2842
   97loPI   GL2 1542  11.695   0.904  11.040  0.2639  0.1929 -0.2892
   97loPI   C1A 1543  11.960   1.206  10.791 -0.1883  0.0487  0.0203
   97loPI   C2A 1544  11.955   1.158  10.280 -0.0055 -0.0730  0.1952
   97loPI   C3A 1545  12.034   1.218   9.832 -0.1864  0.0617 -0.2280
   97loPI   C4A 1546  12.001   1.238   9.471 -0.0523 -0.0447  0.0656
   97loPI   C5A 1547  11.819   1.372   9.014 -0.4138  0.0024  0.1504
   97loPI   C6A 1548  12.112   1.474   8.660 -0.1198  0.1489  0.1462
   97loPI   C1B 1549  11.617   0.900  10.554 -0.2526 -0.1178  0.0058
   97loPI   C2B 1550  11.541   0.819  10.198 -0.0443  0.0522  0.0303
   97loPI   C3B 1551  11.796   0.812   9.758  0.0274 -0.2903 -0.1553
   97loPI   C4B 1552  11.748   0.699   9.392  0.1013  0.0565  0.0144
   98loPI    C1 1553   6.464   3.787  11.428 -0.0429  0.1148  0.1548
   98loPI    C2 1554   6.123   3.982  11.354  0.1458  0.3880 -0.0131
   98loPI    C3 1555   6.284   3.993  11.720 -0.0349  0.2396  0.0725
   98loPI   PO4 1556   6.370   3.527  11.287  0.1748  0.5272  0.3382
   98loPI   GL1 1557   6.534   3.315  10.930 -0.1239 -0.0329  0.0867
   98loPI   GL2 1558   6.188   3.252  10.912 -0.1045  0.0380  0.1144
   98loPI   C1A 1559   6.653   3.520  10.447 -0.0671 -0.0551  0.1694
   98loPI   C2A 1560   6.771   3.464  10.017 -0.0951 -0.2599 -0.3085
   98loPI   C3A 1561   6.824   3.523   9.546 -0.0914 -0.1492 -0.1509
   98loPI   C4A 1562   7.006   3.423   9.095  0.0430  0.1133 -0.1162
   98loPI   C5A 1563   7.188   3.311   8.732  0.0497  0.0595 -0.0799
   98loPI   C6A 1564   7.424   3.022   8.617  0.1782 -0.2620  0.0567
   98loPI   C1B 1565   6.136   3.449  10.523  0.1972  0.1523  0.0766
   98loPI   C2B 1566   6.232   3.532  10.104 -0.0954  0.3372 -0.1104
   98loPI   C3B 1567   6.326   3.547   9.700  0.3770 -0.1843  0.1449
   98loPI   C4B 1568   6.296   3.647   9.278  0.0970  0.0373  0.0141
   99loPI    C1 1569   7.336   3.561  11.791 -0.0823  0.0019 -0.0198
   99loPI    C2 1570   7.690   3.746  11.775 -0.1652  0.1540 -0.1212
   99loPI    C3 1571   7.637   3.436  12.022  0.0198  0.1700 -0.0603
   99loPI   PO4 1572   7.334   3.515  11.463 -0.3161 -0.3505 -0.0855
   99loPI   GL1 1573   7.484   3.689  11.125 -0.1424  0.3557 -0.2713
   99loPI   GL2 1574   7.568   3.415  11.011  0.0887 -0.2894  0.0702
   99loPI   C1A 1575   7.547   3.919  10.644  0.1589 -0.3147 -0.0911
   99loPI   C2A 1576   7.469   3.891  10.249 -0.2376  0.1623 -0.0087
   99loPI   C3A 1577   7.601   3.876   9.885  0.0493 -0.1841  0.2305
   99loPI   C4A 1578   7.619   3.804   9.531  0.4490  0.2250 -0.1483
   99loPI   C5A 1579   7.592   3.939   9.110  0.1175  0.0638 -0.2336
   99loPI   C6A 1580   7.544   3.596   8.914  0.0693  0.0976 -0.0573
   99loPI   C1B 1581   7.686   3.441  10.603 -0.0846  0.2452 -0.0046
   99loPI   C2B 1582   7.730   3.443  10.203 -0.3758 -0.0292 -0.0399
   99loPI   C3B 1583   7.894   3.345   9.858  0.2744 -0.3663 -0.1427
   99loPI   C4B 1584   7.859   3.373   9.328  0.0230  0.3994 -0.1052
  100loPI    C1 1585   5.196  15.630  11.954  0.1916 -0.1884  0.0517
  100loPI    C2 1586   4.849  15.783  12.081  0.4147  0.1891  0.2271
  100loPI    C3 1587   5.079  15.572  12.332  0.1692 -0.3415  0.0217
  100loPI   PO4 1588   5.100  15.560  11.670 -0.1941 -0.0382 -0.0716
  100loPI   GL1 1589   5.228  15.626  11.275  0.1333  0.1144  0.2353
  100loPI   GL2 1590   4.922  15.770  11.152 -0.1082  0.1082 -0.2627
  100loPI   C1A 1591   5.285  15.580  10.761  0.0872 -0.3987 -0.0082
  100loPI   C2A 1592   5.427  15.491  10.370 -0.1194  0.0943 -0.1007
  100loPI   C3A 1593   5.304  15.542   9.897  0.0006  0.1329 -0.1901
  100loPI   C4A 1594   5.317  15.539   9.473  0.0448 -0.0832  0.0553
  100loPI   C5A 1595   5.491  15.334   9.008 -0.1004  0.1387 -0.2704
  100loPI   C6A 1596   5.405  15.107   8.638  0.0394 -0.2476  0.1882
  100loPI   C1B 1597   4.769  15.591  10.803 -0.1862  0.1481  0.1451
  100loPI   C2B 1598   4.858  15.529  10.375 -0.2061  0.0783  0.0822
  100loPI   C3B 1599   4.844  15.575  10.004  0.0155 -0.1326  0.1098
  100loPI   C4B 1600   4.784  15.596   9.596  0.0519  0.0520  0.0938
  101loPI    C1 1601   8.710   9.559  11.501  0.1615 -0.0215 -0.1334
  101loPI    C2 1602   8.354   9.378  11.519  0.1293  0.0398 -0.1518
  101loPI    C3 1603   8.436   9.683  11.765  0.1658  0.0316 -0.1538
  101loPI   PO4 1604   8.778   9.603  11.252  0.2263 -0.1541 -0.1647
  101loPI   GL1 1605   8.901   9.594  10.789 -0.0716 -0.2530  0.0073
  101loPI   GL2 1606   8.849   9.357  10.738  0.0023  0.0500  0.2133
  101loPI   C1A 1607   9.022   9.709  10.388 -0.3332  0.2810  0.0837
  101loPI   C2A 1608   8.870   9.788   9.891  0.0378  0.0612  0.2280
  101loPI   C3A 1609   8.902   9.681   9.482 -0.0976  0.1828 -0.0641
  101loPI   C4A 1610   8.909   9.727   9.104  0.2097  0.0306  0.0608
  101loPI   C5A 1611   8.644   9.754   8.827  0.4198  0.0256 -0.0083
  101loPI   C6A 1612   8.686   9.764   8.417 -0.2279 -0.1005  0.0630
  101loPI   C1B 1613   8.718   9.364  10.278 -0.2471 -0.1294  0.1098
  101loPI   C2B 1614   8.686   9.335   9.847 -0.0092  0.0312  0.1011
  101loPI   C3B 1615   8.798   9.047   9.494 -0.0017 -0.0234  0.0826
  101loPI   C4B 1616   8.857   8.717   9.282  0.2078 -0.0330 -0.0581
  102loPI    C1 1617   9.657  13.873  11.564 -0.1015 -0.0071 -0.0001
  102loPI    C2 1618   9.369  13.924  11.836 -0.0112  0.0115  0.0928
  102loPI    C3 1619   9.730  13.794  11.949  0.0054 -0.0493 -0.0285
  102loPI   PO4 1620   9.503  13.769  11.329 -0.2148  0.1216 -0.1070
  102loPI   GL1 1621   9.666  13.536  10.969  0.2103 -0.0435  0.2017
  102loPI   GL2 1622   9.680  13.826  10.874 -0.4179  0.1416  0.0516
  102loPI   C1A 1623   9.446  13.476  10.623 -0.3971  0.0030  0.1102
  102loPI   C2A 1624   9.202  13.632  10.321 -0.1639  0.2461  0.0050
  102loPI   C3A 1625   9.050  13.723   9.972 -0.0443 -0.2024 -0.1991
  102loPI   C4A 1626   9.040  13.740   9.541 -0.1806 -0.2227  0.2504
  102loPI   C5A 1627   8.978  13.710   9.047 -0.1745 -0.0733 -0.1345
  102loPI   C6A 1628   9.127  13.663   8.575 -0.1533  0.0636 -0.2675
  102loPI   C1B 1629   9.712  13.849  10.444  0.2604  0.1044  0.2605
  102loPI   C2B 1630   9.653  13.794   9.982  0.1126  0.1368 -0.0568
  102loPI   C3B 1631   9.502  13.679   9.649 -0.1013  0.0891  0.1800
  102loPI   C4B 1632   9.343  13.375   9.364 -0.3308  0.0195  0.0806
  103loPI    C1 1633   2.668   2.657  11.395  0.2034 -0.0331  0.2753
  103loPI    C2 1634   2.523   2.850  11.714 -0.0636  0.1988  0.0186
  103loPI    C3 1635   2.836   3.000  11.514  0.0835  0.0702  0.1500
  103loPI   PO4 1636   2.359   2.560  11.310  0.1447  0.0004 -0.3338
  103loPI   GL1 1637   2.062   2.702  10.925  0.2227 -0.2384 -0.1478
  103loPI   GL2 1638   1.814   2.592  10.840  0.0354  0.0932 -0.0213
  103loPI   C1A 1639   2.071   2.602  10.392  0.1631 -0.0542  0.0333
  103loPI   C2A 1640   2.085   2.567   9.957 -0.2372 -0.3429 -0.0171
  103loPI   C3A 1641   2.221   2.508   9.520  0.4118 -0.0750  0.4800
  103loPI   C4A 1642   2.300   2.235   9.141 -0.0572  0.0232  0.0859
  103loPI   C5A 1643   2.149   1.823   9.038  0.0241  0.2816 -0.0842
  103loPI   C6A 1644   1.990   1.423   8.991 -0.2603  0.0936  0.1988
  103loPI   C1B 1645   1.537   2.594  10.541 -0.1606  0.0886 -0.1436
  103loPI   C2B 1646   1.600   2.622  10.139 -0.1438 -0.4721  0.1251
  103loPI   C3B 1647   1.740   2.568   9.623 -0.0483 -0.0264 -0.2692
  103loPI   C4B 1648   1.672   2.744   9.136 -0.0692  0.1800 -0.2373
  104loPI    C1 1649  16.590   9.800  11.822  0.2899  0.1440 -0.0956
  104loPI    C2 1650  16.812   9.925  12.130 -0.0113  0.1822  0.1096
  104loPI    C3 1651  16.543   9.634  12.183  0.1885 -0.0660 -0.2036
  104loPI   PO4 1652  16.765   9.814  11.657 -0.0893 -0.1049 -0.1132
  104loPI   GL1 1653  16.632   9.670  11.206 -0.1089 -0.1911  0.1428
  104loPI   GL2 1654  16.918   9.704  11.073  0.0784 -0.1658  0.0332
  104loPI   C1A 1655  16.368   9.709  10.903 -0.2603 -0.1931  0.1174
  104loPI   C2A 1656  16.331   9.810  10.463 -0.0143  0.1286 -0.0496
  104loPI   C3A 1657  16.398   9.844   9.934  0.2359  0.0140 -0.0072
  104loPI   C4A 1658  16.389   9.830   9.589  0.0498 -0.3019 -0.1220
  104loPI   C5A 1659  16.299   9.864   9.152 -0.2902 -0.0141 -0.3170
  104loPI   C6A 1660  16.441   9.969   8.744 -0.0373  0.1848 -0.0148
  104loPI   C1B 1661  16.831   9.767  10.645 -0.2165 -0.3013  0.0070
  104loPI   C2B 1662  16.793   9.643  10.169  0.0271 -0.0304 -0.0672
  104loPI   C3B 1663  16.827   9.690   9.819  0.0996 -0.1513 -0.2321
  104loPI   C4B 1664  16.886   9.772   9.418 -0.0720 -0.0014  0.1466
  105loPI    C1 1665   2.660  13.396  11.650  0.0205  0.0549  0.1478
  105loPI    C2 1666   2.901  13.628  11.868 -0.1036  0.1110  0.2263
  105loPI    C3 1667   2.569  13.476  12.031 -0.0209 -0.1263  0.1768
  105loPI   PO4 1668   2.673  13.497  11.403  0.2163  0.1332 -0.3753
  105loPI   GL1 1669   2.778  13.311  11.082  0.0090  0.2099  0.0295
  105loPI   GL2 1670   2.575  13.051  10.934 -0.1210 -0.0160 -0.2684
  105loPI   C1A 1671   2.784  13.580  10.724 -0.1161 -0.2289  0.0067
  105loPI   C2A 1672   2.775  13.543  10.251 -0.3673 -0.1282  0.0526
  105loPI   C3A 1673   2.674  13.464   9.867  0.0538 -0.1417  0.2241
  105loPI   C4A 1674   2.724  13.502   9.405 -0.2473 -0.2465  0.1642
  105loPI   C5A 1675   2.516  13.769   9.082  0.1681  0.0637  0.0813
  105loPI   C6A 1676   2.068  13.930   8.826 -0.0254 -0.0660 -0.2859
  105loPI   C1B 1677   2.545  13.056  10.518  0.0968  0.0214  0.2724
  105loPI   C2B 1678   2.488  13.144  10.166 -0.0765  0.1129 -0.0425
  105loPI   C3B 1679   2.490  13.010   9.747 -0.0787 -0.0787 -0.0602
  105loPI   C4B 1680   2.373  13.014   9.406  0.0342  0.3279 -0.0909
  106loPI    C1 1681  10.654   1.473  11.751 -0.0439 -0.0359  0.2799
  106loPI    C2 1682  10.525   1.183  11.507 -0.2641 -0.0168  0.3714
  106loPI    C3 1683  10.712   1.089  11.849  0.3199 -0.0424  0.0583
  106loPI   PO4 1684  10.730   1.663  11.585  0.0910  0.0411  0.0278
  106loPI   GL1 1685  10.751   1.637  11.250 -0.0999 -0.1804  0.1412
  106loPI   GL2 1686  10.534   1.608  11.106 -0.2442  0.0774 -0.3424
  106loPI   C1A 1687  10.718   1.818  10.698 -0.0668 -0.1132  0.3151
  106loPI   C2A 1688  10.640   1.775  10.254 -0.0603 -0.2747 -0.0941
  106loPI   C3A 1689  10.725   1.858   9.851 -0.0569  0.1178 -0.1054
  106loPI   C4A 1690  10.724   1.851   9.440 -0.1566 -0.3977 -0.1605
  106loPI   C5A 1691  10.689   1.906   9.121 -0.0945 -0.1536  0.3633
  106loPI   C6A 1692  10.605   2.359   8.930  0.2133  0.1952 -0.0942
  106loPI   C1B 1693  10.402   1.372  10.781  0.3748 -0.1240  0.0686
  106loPI   C2B 1694  10.417   1.341  10.353  0.0984 -0.1984  0.0680
  106loPI   C3B 1695  10.444   1.337   9.854  0.0872 -0.1996  0.0632
  106loPI   C4B 1696  10.597   1.366   9.459  0.3398 -0.0680  0.0448
  107loPI    C1 1697   2.234  15.468  12.097  0.1810 -0.2781  0.1633
  107loPI    C2 1698   2.298  15.099  12.238  0.2772 -0.2021  0.3209
  107loPI    C3 1699   2.112  15.371  12.465  0.1493 -0.1714  0.1812
  107loPI   PO4 1700   2.278  15.407  11.817  0.4832  0.0914  0.0393
  107loPI   GL1 1701   2.141  15.163  11.365  0.1004  0.1831 -0.1309
  107loPI   GL2 1702   2.144  14.926  11.227 -0.1896 -0.0366 -0.1121
  107loPI   C1A 1703   2.375  15.216  10.865 -0.1291 -0.1133  0.0491
  107loPI   C2A 1704   2.477  15.271  10.511  0.0145 -0.3025  0.0277
  107loPI   C3A 1705   2.361  15.268  10.112  0.1476  0.0062 -0.1146
  107loPI   C4A 1706   2.437  15.328   9.662 -0.0424 -0.0242  0.1762
  107loPI   C5A 1707   2.382  15.225   9.176  0.1670 -0.0605  0.1903
  107loPI   C6A 1708   2.085  14.956   8.895  0.0299  0.3584  0.1581
  107loPI   C1B 1709   2.045  14.879  10.767  0.0907  0.2021 -0.0223
  107loPI   C2B 1710   2.113  14.836  10.317  0.1511  0.1781 -0.0990
  107loPI   C3B 1711   2.153  14.885   9.859  0.0529  0.1229  0.1222
  107loPI   C4B 1712   2.026  14.820   9.412 -0.3137 -0.1068  0.1775
  108loPI    C1 1713   4.644  11.062  11.588  0.1331  0.1036  0.2283
  108loPI    C2 1714   4.301  11.235  11.699 -0.1149 -0.1217 -0.1633
  108loPI    C3 1715   4.449  10.929  11.911 -0.2023 -0.0822 -0.0438
  108loPI   PO4 1716   4.589  11.020  11.360 -0.0346  0.0289  0.1452
  108loPI   GL1 1717   4.754  11.146  10.923  0.1615  0.1033 -0.2404
  108loPI   GL2 1718   4.783  11.466  10.962 -0.2657 -0.0919  0.0868
  108loPI   C1A 1719   4.937  11.059  10.553  0.2180 -0.4285  0.0136
  108loPI   C2A 1720   4.918  11.121  10.161  0.4372 -0.2645 -0.2853
  108loPI   C3A 1721   4.914  11.104   9.783 -0.1531 -0.1479 -0.0554
  108loPI   C4A 1722   4.856  11.162   9.324 -0.4594 -0.0595 -0.0437
  108loPI   C5A 1723   4.741  11.250   8.884  0.1594 -0.1795 -0.1978
  108loPI   C6A 1724   4.497  11.588   8.685 -0.1896 -0.3853 -0.1285
  108loPI   C1B 1725   4.691  11.461  10.479 -0.0248 -0.3408  0.1610
  108loPI   C2B 1726   4.726  11.523   9.949  0.1444 -0.0323 -0.2623
  108loPI   C3B 1727   4.687  11.555   9.544  0.1591  0.1146  0.0076
  108loPI   C4B 1728   4.498  11.650   9.144  0.1543  0.2052 -0.1475
  109loPI    C1 1729  12.574   6.289  11.176  0.1079  0.0726 -0.0154
  109loPI    C2 1730  12.626   6.430  11.546 -0.0170 -0.0084  0.0334
  109loPI    C3 1731  12.357   6.142  11.477 -0.0099  0.0218 -0.1240
  109loPI   PO4 1732  12.548   6.552  11.070  0.2920 -0.1301  0.3353
  109loPI   GL1 1733  12.667   6.568  10.680  0.1636  0.4769 -0.1418
  109loPI   GL2 1734  12.323   6.592  10.611 -0.1527 -0.3482  0.0077
  109loPI   C1A 1735  12.660   6.614  10.249  0.0936  0.2092 -0.0060
  109loPI   C2A 1736  12.580   6.558   9.884  0.0044 -0.0202  0.1185
  109loPI   C3A 1737  12.464   6.257   9.573 -0.0772  0.0892 -0.1398
  109loPI   C4A 1738  12.302   6.188   9.137  0.1165 -0.0376 -0.0593
  109loPI   C5A 1739  12.086   6.011   8.866 -0.1119 -0.2292 -0.0548
  109loPI   C6A 1740  12.150   5.741   8.585 -0.3680 -0.0204 -0.1309
  109loPI   C1B 1741  12.198   6.648  10.175  0.0304 -0.2206 -0.2570
  109loPI   C2B 1742  12.152   6.730   9.739 -0.0144  0.0864 -0.0711
  109loPI   C3B 1743  12.329   6.683   9.329  0.2607  0.1216 -0.1119
  109loPI   C4B 1744  12.238   6.647   8.853 -0.3000 -0.1334 -0.1776
  110loPI    C1 1745   2.680  15.051  11.933  0.0131 -0.0367 -0.0231
  110loPI    C2 1746   2.705  15.438  12.032  0.2035 -0.0700  0.0639
  110loPI    C3 1747   2.771  15.156  12.308 -0.0538 -0.1660  0.0300
  110loPI   PO4 1748   2.594  14.966  11.612  0.0939 -0.0275  0.0252
  110loPI   GL1 1749   2.754  14.809  11.216 -0.1031  0.1341 -0.1521
  110loPI   GL2 1750   2.818  15.136  11.214 -0.1812  0.1286  0.3013
  110loPI   C1A 1751   2.692  14.881  10.731  0.1874 -0.2291  0.2454
  110loPI   C2A 1752   2.586  14.811  10.289  0.1680  0.0842  0.0197
  110loPI   C3A 1753   2.619  14.772   9.917 -0.0860 -0.0558  0.2095
  110loPI   C4A 1754   2.634  14.848   9.534 -0.0357 -0.2179 -0.2118
  110loPI   C5A 1755   2.463  14.649   9.175  0.1417  0.0308  0.2278
  110loPI   C6A 1756   2.537  14.756   8.707  0.0691  0.1596  0.0019
  110loPI   C1B 1757   3.003  15.262  10.807  0.1860 -0.0931  0.1236
  110loPI   C2B 1758   2.949  15.249  10.331 -0.0708 -0.1343  0.0322
  110loPI   C3B 1759   2.915  15.191   9.940 -0.1188  0.1866 -0.0741
  110loPI   C4B 1760   2.958  15.275   9.459 -0.2868 -0.1580 -0.0878
  111loPI    C1 1761   7.571  10.671  11.891  0.0108  0.0687  0.0139
  111loPI    C2 1762   7.201  10.599  12.027  0.0780 -0.0720  0.1258
  111loPI    C3 1763   7.489  10.715  12.280  0.1832 -0.2522  0.0907
  111loPI   PO4 1764   7.507  10.817  11.648 -0.1107  0.3387  0.0057
  111loPI   GL1 1765   7.545  10.690  11.235  0.0193 -0.1491  0.0001
  111loPI   GL2 1766   7.824  10.648  11.145  0.1199 -0.0189 -0.0151
  111loPI   C1A 1767   7.429  10.775  10.832  0.0456 -0.1243  0.0652
  111loPI   C2A 1768   7.430  10.689  10.304 -0.0413  0.2022 -0.0312
  111loPI   C3A 1769   7.437  10.798   9.960 -0.3090  0.0876 -0.1999
  111loPI   C4A 1770   7.352  10.665   9.550 -0.0737  0.2109  0.1401
  111loPI   C5A 1771   7.397  10.513   9.128  0.2445  0.1880  0.1541
  111loPI   C6A 1772   7.244  10.314   8.838  0.1014 -0.1916 -0.1456
  111loPI   C1B 1773   7.936  10.755  10.753  0.0450 -0.0733  0.0862
  111loPI   C2B 1774   7.886  10.720  10.282  0.4064 -0.0735 -0.1364
  111loPI   C3B 1775   7.927  10.783   9.746 -0.0039 -0.2953 -0.1230
  111loPI   C4B 1776   7.862  10.956   9.366 -0.1759 -0.0441  0.0451
  112loPI    C1 1777  13.737  13.129  11.868 -0.1203 -0.0751 -0.2856
  112loPI    C2 1778  13.739  13.519  11.778 -0.1815 -0.0078 -0.0039
  112loPI    C3 1779  13.465  13.373  12.030  0.3290 -0.0824  0.5306
  112loPI   PO4 1780  13.942  13.054  11.670 -0.1545  0.3046  0.3703
  112loPI   GL1 1781  14.275  12.970  11.313 -0.0219 -0.4869 -0.0590
  112loPI   GL2 1782  14.501  13.201  11.108 -0.0332  0.1067 -0.0056
  112loPI   C1A 1783  14.129  12.830  10.914 -0.2196 -0.2784 -0.0048
  112loPI   C2A 1784  13.986  12.868  10.492 -0.3420 -0.3088 -0.1118
  112loPI   C3A 1785  14.010  12.865   9.990 -0.2820  0.4318  0.2150
  112loPI   C4A 1786  14.068  12.857   9.508 -0.1795 -0.0621 -0.1707
  112loPI   C5A 1787  14.004  12.940   9.154 -0.2391  0.1262  0.0775
  112loPI   C6A 1788  14.275  12.989   8.871  0.0578  0.2659  0.2255
  112loPI   C1B 1789  14.343  13.202  10.675 -0.1111  0.0144  0.0909
  112loPI   C2B 1790  14.323  13.254  10.252  0.0097 -0.2168 -0.3372
  112loPI   C3B 1791  14.358  13.270   9.820  0.0809 -0.1009  0.2786
  112loPI   C4B 1792  14.483  13.173   9.312  0.0989  0.0521 -0.2415
  113loPI    C1 1793   5.837   8.077  11.467  0.1872  0.1479 -0.1568
  113loPI    C2 1794   6.140   7.881  11.640  0.0821  0.0761 -0.0523
  113loPI    C3 1795   5.768   7.738  11.667  0.0375  0.1670 -0.1751
  113loPI   PO4 1796   5.906   8.178  11.150 -0.0047  0.2723  0.2627
  113loPI   GL1 1797   6.041   7.962  10.756  0.0935 -0.0891  0.2560
  113loPI   GL2 1798   5.842   7.738  10.712  0.0336 -0.0799 -0.4117
  113loPI   C1A 1799   6.227   8.114  10.424 -0.0423 -0.1763  0.1548
  113loPI   C2A 1800   6.221   8.135   9.948 -0.2206 -0.0354  0.0692
  113loPI   C3A 1801   6.055   8.130   9.594  0.0776  0.2125  0.1700
  113loPI   C4A 1802   6.147   7.975   9.186  0.0826  0.0984 -0.0176
  113loPI   C5A 1803   6.219   8.076   8.705  0.0287  0.1284 -0.1060
  113loPI   C6A 1804   6.396   7.857   8.486 -0.1666 -0.2627 -0.0626
  113loPI   C1B 1805   5.952   7.643  10.276  0.1427 -0.1240 -0.0577
  113loPI   C2B 1806   5.847   7.664   9.871 -0.1879 -0.1716  0.0754
  113loPI   C3B 1807   5.832   7.658   9.471  0.4138 -0.2573 -0.1648
  113loPI   C4B 1808   5.834   7.571   9.033  0.0307  0.0497  0.0211
  114loPI    C1 1809   2.167  13.205  11.808  0.1752  0.2768 -0.0659
  114loPI    C2 1810   2.318  13.126  11.446 -0.0943 -0.2096 -0.0810
  114loPI    C3 1811   2.481  12.959  11.771 -0.1517 -0.1594 -0.0262
  114loPI   PO4 1812   2.127  13.461  11.802  0.1412  0.4990 -0.0371
  114loPI   GL1 1813   2.160  13.601  11.407 -0.3976 -0.3598 -0.2126
  114loPI   GL2 1814   1.874  13.668  11.406 -0.0650  0.0186 -0.1831
  114loPI   C1A 1815   2.321  13.512  10.878 -0.0656  0.0762 -0.1172
  114loPI   C2A 1816   2.308  13.583  10.508 -0.2063  0.5106 -0.1452
  114loPI   C3A 1817   2.194  13.527  10.026 -0.0646 -0.1638  0.0734
  114loPI   C4A 1818   2.177  13.555   9.592 -0.1156 -0.0458 -0.2351
  114loPI   C5A 1819   1.950  13.696   9.291 -0.0995  0.1009  0.1710
  114loPI   C6A 1820   1.648  14.046   9.192 -0.2466  0.1955 -0.1244
  114loPI   C1B 1821   1.810  13.565  10.944 -0.0101  0.2020 -0.1372
  114loPI   C2B 1822   1.706  13.551  10.538  0.2365  0.3688  0.0227
  114loPI   C3B 1823   1.661  13.539  10.108 -0.1190  0.1134  0.0000
  114loPI   C4B 1824   1.668  13.616   9.703 -0.1144  0.0295 -0.1304
  115loPI    C1 1825   2.134   4.729  11.749  0.0607 -0.0031  0.2245
  115loPI    C2 1826   2.472   4.921  11.654  0.0169 -0.0291  0.0112
  115loPI    C3 1827   2.474   4.642  11.940  0.1843 -0.0563 -0.0156
  115loPI   PO4 1828   2.001   4.651  11.403 -0.0960 -0.1646 -0.0756
  115loPI   GL1 1829   2.123   4.499  11.058  0.1582 -0.1400 -0.2041
  115loPI   GL2 1830   2.285   4.892  11.044 -0.1763  0.0903  0.0486
  115loPI   C1A 1831   2.146   4.468  10.680  0.2199 -0.0308 -0.1337
  115loPI   C2A 1832   2.238   4.359  10.186  0.0708  0.0190  0.1420
  115loPI   C3A 1833   2.324   4.338   9.687  0.0186 -0.1247 -0.0023
  115loPI   C4A 1834   2.406   4.321   9.274  0.0860 -0.2559 -0.0755
  115loPI   C5A 1835   2.551   4.094   8.929 -0.1828  0.1656 -0.2693
  115loPI   C6A 1836   2.814   3.923   8.721  0.1560 -0.0384 -0.0276
  115loPI   C1B 1837   2.091   4.984  10.666  0.1002  0.1145  0.1888
  115loPI   C2B 1838   2.178   4.868  10.254  0.0523  0.0023 -0.0827
  115loPI   C3B 1839   2.103   4.820   9.883  0.0984 -0.1644 -0.1059
  115loPI   C4B 1840   2.197   4.834   9.407 -0.0904 -0.3422 -0.1812
  116loPI    C1 1841   4.979   4.059  11.564  0.1358 -0.0129 -0.1797
  116loPI    C2 1842   4.955   3.823  11.885 -0.1856 -0.1083 -0.2699
  116loPI    C3 1843   5.155   4.169  11.906 -0.0551 -0.1958 -0.0205
  116loPI   PO4 1844   5.043   3.903  11.322  0.4233 -0.1109  0.0712
  116loPI   GL1 1845   5.267   3.876  10.946 -0.0617  0.1472 -0.0848
  116loPI   GL2 1846   5.194   3.526  11.035  0.0589  0.2041 -0.0231
  116loPI   C1A 1847   5.395   3.908  10.438  0.0938  0.1359  0.0933
  116loPI   C2A 1848   5.544   4.106  10.010 -0.1956  0.4479  0.2171
  116loPI   C3A 1849   5.523   4.089   9.588 -0.0709  0.1038  0.0921
  116loPI   C4A 1850   5.571   3.991   9.122  0.2312  0.1041 -0.1358
  116loPI   C5A 1851   5.910   4.004   8.889 -0.1790  0.0156  0.1533
  116loPI   C6A 1852   6.141   4.368   8.637 -0.1440  0.1460  0.0831
  116loPI   C1B 1853   5.145   3.517  10.585  0.2185 -0.1176 -0.0695
  116loPI   C2B 1854   5.170   3.529  10.211  0.2298  0.1610  0.2663
  116loPI   C3B 1855   5.273   3.706   9.770 -0.1270  0.0798  0.1484
  116loPI   C4B 1856   5.235   3.553   9.351 -0.1284  0.0143  0.1235
  117loPI    C1 1857   0.721  16.599  11.735  0.2276 -0.0174 -0.0543
  117loPI    C2 1858   0.884  16.466  12.075  0.1405 -0.2525 -0.1024
  117loPI    C3 1859   0.908  16.853  11.980  0.1558 -0.1829  0.1761
  117loPI   PO4 1860   0.791  16.406  11.581 -0.1396 -0.0064 -0.1046
  117loPI   GL1 1861   0.576  16.100  11.366  0.3546 -0.1589 -0.3277
  117loPI   GL2 1862   0.475  16.299  11.207 -0.3330 -0.0571  0.0638
  117loPI   C1A 1863   0.882  16.254  10.958  0.0837  0.0239 -0.2301
  117loPI   C2A 1864   0.946  16.292  10.485 -0.1901  0.3525 -0.2640
  117loPI   C3A 1865   0.959  16.311  10.084  0.1447  0.1228 -0.0515
  117loPI   C4A 1866   0.961  16.295   9.664  0.3524 -0.1699  0.1152
  117loPI   C5A 1867   0.978  16.422   9.228 -0.0482 -0.0213 -0.0317
  117loPI   C6A 1868   0.546  16.650   8.946 -0.1609 -0.1787  0.4379
  117loPI   C1B 1869   0.428  16.247  10.688  0.0187 -0.0272  0.0930
  117loPI   C2B 1870   0.450  16.336  10.287  0.2877 -0.0282  0.0162
  117loPI   C3B 1871   0.497  16.374   9.876 -0.2313  0.0858  0.0176
  117loPI   C4B 1872   0.487  16.307   9.437  0.0224 -0.0087 -0.1137
  118loPI    C1 1873   7.492  10.120  11.335  0.0945  0.0766  0.0678
  118loPI    C2 1874   7.730  10.342  11.567  0.1207 -0.1227  0.2341
  118loPI    C3 1875   7.345  10.293  11.664  0.1073 -0.1234  0.1803
  118loPI   PO4 1876   7.656  10.157  11.095  0.1501  0.1478 -0.0041
  118loPI   GL1 1877   7.555  10.296  10.722 -0.2425  0.1639  0.1493
  118loPI   GL2 1878   7.222  10.325  10.804 -0.2228  0.1408 -0.0188
  118loPI   C1A 1879   7.658  10.206  10.245  0.0381  0.2002 -0.0546
  118loPI   C2A 1880   7.687  10.380   9.865  0.0771 -0.0632 -0.4083
  118loPI   C3A 1881   7.800  10.391   9.398 -0.0513 -0.0121  0.0494
  118loPI   C4A 1882   8.015  10.544   9.049  0.1403  0.0343 -0.0880
  118loPI   C5A 1883   8.328  10.885   8.975  0.1188  0.0759  0.1794
  118loPI   C6A 1884   8.471  11.118   8.542  0.1684 -0.1530 -0.1941
  118loPI   C1B 1885   7.179  10.261  10.375  0.2780 -0.0905 -0.0435
  118loPI   C2B 1886   7.205  10.279   9.919  0.0307 -0.0154  0.1477
  118loPI   C3B 1887   6.987  10.303   9.528 -0.0936 -0.1728 -0.1562
  118loPI   C4B 1888   6.885  10.204   9.173  0.0283  0.0488 -0.1452
  119loPI    C1 1889   5.072  12.820  11.685  0.0896 -0.0903 -0.1759
  119loPI    C2 1890   4.795  13.078  11.816  0.3923  0.0222  0.2681
  119loPI    C3 1891   4.731  12.684  11.844  0.1580  0.0456  0.0938
  119loPI   PO4 1892   5.143  12.959  11.422  0.0429 -0.1065 -0.0290
  119loPI   GL1 1893   5.054  12.840  10.998  0.1795 -0.1102  0.0304
  119loPI   GL2 1894   4.927  12.968  10.741  0.0464  0.1030 -0.0997
  119loPI   C1A 1895   4.839  12.483  10.711 -0.1081  0.0348 -0.1029
  119loPI   C2A 1896   4.725  12.337  10.247  0.0110 -0.3198  0.4002
  119loPI   C3A 1897   4.679  12.393   9.714 -0.0126 -0.0918 -0.1447
  119loPI   C4A 1898   4.683  12.536   9.295 -0.1025  0.2181  0.3434
  119loPI   C5A 1899   4.704  12.583   8.860 -0.0936 -0.0894 -0.0523
  119loPI   C6A 1900   5.026  12.758   8.531 -0.1149  0.0013  0.2250
  119loPI   C1B 1901   5.016  12.795  10.381 -0.0217 -0.1750 -0.3781
  119loPI   C2B 1902   4.926  12.787   9.967  0.0898  0.2934  0.0890
  119loPI   C3B 1903   5.063  12.871   9.555 -0.1766  0.1352 -0.0963
  119loPI   C4B 1904   5.050  12.827   9.088 -0.2547  0.1961 -0.1636
  120loPI    C1 1905  15.788   6.742  11.766 -0.0709  0.0491  0.3643
  120loPI    C2 1906  15.457   6.751  11.541  0.0629  0.2018  0.1700
  120loPI    C3 1907  15.428   6.712  11.938 -0.1794  0.0304  0.1376
  120loPI   PO4 1908  15.985   6.675  11.524  0.1635  0.1184 -0.1289
  120loPI   GL1 1909  16.066   6.682  11.037  0.0543  0.0149 -0.2866
  120loPI   GL2 1910  16.067   6.396  10.961  0.1320  0.0830 -0.0088
  120loPI   C1A 1911  16.130   6.689  10.592  0.0191 -0.0342 -0.1784
  120loPI   C2A 1912  16.129   6.651  10.097  0.0928 -0.2019  0.0792
  120loPI   C3A 1913  16.182   6.657   9.627  0.0070 -0.4936 -0.0291
  120loPI   C4A 1914  16.288   6.713   9.226  0.0122  0.0737  0.0203
  120loPI   C5A 1915  16.403   6.803   8.761 -0.2588  0.1602 -0.0551
  120loPI   C6A 1916  16.633   7.069   8.551 -0.3806  0.2397 -0.0525
  120loPI   C1B 1917  15.872   6.289  10.489  0.0875 -0.0390 -0.3005
  120loPI   C2B 1918  15.817   6.252  10.061  0.2505  0.1439  0.0473
  120loPI   C3B 1919  15.845   6.251   9.681  0.3597  0.1215  0.0332
  120loPI   C4B 1920  16.004   6.263   9.245  0.1781 -0.0820 -0.0251
  121loPI    C1 1921   5.091   3.053  11.858  0.1387  0.0187  0.0903
  121loPI    C2 1922   5.156   3.389  12.065 -0.4714 -0.0460  0.4100
  121loPI    C3 1923   5.302   3.041  12.197  0.3188  0.1000 -0.0175
  121loPI   PO4 1924   4.958   3.037  11.630  0.1792  0.2255  0.1324
  121loPI   GL1 1925   4.972   3.110  11.258 -0.1357 -0.0509 -0.0764
  121loPI   GL2 1926   5.000   2.767  11.206 -0.2280 -0.0658  0.0547
  121loPI   C1A 1927   4.948   3.128  10.809  0.0524  0.2407 -0.1283
  121loPI   C2A 1928   4.913   3.099  10.308 -0.0053  0.0315  0.0499
  121loPI   C3A 1929   4.994   3.147   9.901 -0.0006  0.1849 -0.1595
  121loPI   C4A 1930   4.965   3.143   9.469 -0.0190 -0.1336  0.0623
  121loPI   C5A 1931   4.990   2.888   9.013  0.1765  0.0519  0.0568
  121loPI   C6A 1932   4.901   3.001   8.658  0.1751 -0.3242 -0.1168
  121loPI   C1B 1933   5.080   2.654  10.778 -0.1747  0.1181 -0.1660
  121loPI   C2B 1934   5.160   2.651  10.296  0.4936  0.0852  0.0495
  121loPI   C3B 1935   5.217   2.654   9.820  0.1141  0.0673  0.0843
  121loPI   C4B 1936   5.227   2.688   9.403 -0.4542  0.0385  0.1201
  122loPI    C1 1937   3.677  16.736  11.819  0.2560  0.1469 -0.0557
  122loPI    C2 1938   3.783  17.073  12.005  0.2978 -0.0315  0.2504
  122loPI    C3 1939   3.711  16.742  12.217  0.2238 -0.2076 -0.0443
  122loPI   PO4 1940   3.604  16.764  11.534 -0.2557 -0.1121  0.1699
  122loPI   GL1 1941   3.811  16.671  11.134 -0.1024  0.0827 -0.3935
  122loPI   GL2 1942   3.998  16.794  11.234  0.3118  0.0411 -0.2365
  122loPI   C1A 1943   3.884  16.613  10.688  0.1415 -0.3061 -0.1235
  122loPI   C2A 1944   3.746  16.534  10.189  0.1519 -0.1743  0.0379
  122loPI   C3A 1945   3.875  16.509   9.773  0.0241 -0.1408 -0.2149
  122loPI   C4A 1946   3.860  16.532   9.356 -0.1765  0.0902  0.1307
  122loPI   C5A 1947   3.798  16.627   8.886 -0.1190  0.1160  0.1422
  122loPI   C6A 1948   3.774  16.815   8.552  0.1437  0.3065 -0.0734
  122loPI   C1B 1949   4.142  17.051  10.911 -0.1719  0.0455 -0.0252
  122loPI   C2B 1950   4.196  17.015  10.464  0.0115  0.2625 -0.0881
  122loPI   C3B 1951   4.094  16.976  10.073 -0.2620 -0.0336 -0.1601
  122loPI   C4B 1952   4.163  16.941   9.710 -0.2536  0.2173  0.2183
  123loPI    C1 1953  12.708   5.110  11.464 -0.1451 -0.0009  0.2348
  123loPI    C2 1954  12.757   5.357  11.774  0.1188  0.0428  0.1601
  123loPI    C3 1955  13.009   5.051  11.721  0.1824  0.1389 -0.1081
  123loPI   PO4 1956  12.678   5.339  11.276 -0.1283 -0.1205  0.1329
  123loPI   GL1 1957  12.496   5.564  10.877 -0.2042  0.1288  0.0543
  123loPI   GL2 1958  12.289   5.887  10.933  0.1234 -0.0737 -0.1334
  123loPI   C1A 1959  12.322   5.460  10.519  0.1654  0.3310 -0.0702
  123loPI   C2A 1960  12.116   5.455  10.114  0.1329 -0.1476  0.1029
  123loPI   C3A 1961  12.121   5.368   9.652  0.1251  0.0583 -0.0034
  123loPI   C4A 1962  11.891   5.384   9.290  0.0391 -0.2771 -0.2920
  123loPI   C5A 1963  11.816   5.474   8.942 -0.1664 -0.0407 -0.0446
  123loPI   C6A 1964  11.874   5.405   8.596  0.0288  0.0884 -0.2937
  123loPI   C1B 1965  12.051   6.108  10.738 -0.3526  0.0896 -0.0229
  123loPI   C2B 1966  11.944   6.263  10.377  0.0733 -0.1636  0.1919
  123loPI   C3B 1967  11.539   6.226  10.104 -0.0201  0.1241  0.3055
  123loPI   C4B 1968  11.470   6.290   9.622 -0.1676  0.1735 -0.1143
  124loPI    C1 1969   8.302  15.534  11.867 -0.1146 -0.1124  0.0682
  124loPI    C2 1970   8.594  15.347  12.067 -0.2570 -0.3543  0.0549
  124loPI    C3 1971   8.275  15.488  12.263  0.0913  0.3577  0.1429
  124loPI   PO4 1972   8.261  15.327  11.603  0.0014 -0.0797 -0.0280
  124loPI   GL1 1973   8.213  15.083  11.266  0.1476  0.1865  0.0540
  124loPI   GL2 1974   8.435  15.348  11.148  0.2254 -0.1714 -0.0721
  124loPI   C1A 1975   8.161  14.817  10.973  0.4210  0.0452 -0.1704
  124loPI   C2A 1976   8.184  14.888  10.531 -0.2349 -0.1110  0.1418
  124loPI   C3A 1977   8.135  14.876  10.062  0.2232 -0.0435  0.1047
  124loPI   C4A 1978   8.102  14.722   9.668 -0.0566  0.0428 -0.3833
  124loPI   C5A 1979   8.180  14.833   9.258  0.0306 -0.1167  0.0190
  124loPI   C6A 1980   8.254  14.909   8.897 -0.1511 -0.0920 -0.0839
  124loPI   C1B 1981   8.421  15.307  10.698 -0.2899 -0.0567 -0.1099
  124loPI   C2B 1982   8.489  15.295  10.182  0.2377 -0.1374 -0.1220
  124loPI   C3B 1983   8.380  15.260   9.823  0.0697  0.1294 -0.2691
  124loPI   C4B 1984   8.453  15.261   9.475  0.2428 -0.4953 -0.0550
  125loPI    C1 1985  11.637  15.495  11.665 -0.2011  0.1720  0.0073
  125loPI    C2 1986  11.456  15.661  11.980 -0.0427 -0.0033  0.1935
  125loPI    C3 1987  11.560  15.275  11.990 -0.0033 -0.0008 -0.0606
  125loPI   PO4 1988  11.490  15.551  11.403  0.1557 -0.1947 -0.1532
  125loPI   GL1 1989  11.489  15.592  10.973  0.0935  0.0833 -0.0762
  125loPI   GL2 1990  11.481  15.229  10.956  0.1879  0.0009  0.0160
  125loPI   C1A 1991  11.360  15.493  10.570  0.1815 -0.1668  0.2072
  125loPI   C2A 1992  11.377  15.389  10.117 -0.0152  0.1042  0.1417
  125loPI   C3A 1993  11.193  15.474   9.696  0.2136  0.2461  0.0323
  125loPI   C4A 1994  11.105  15.604   9.249  0.1565 -0.0170 -0.0502
  125loPI   C5A 1995  10.874  15.718   8.945 -0.1422  0.2768  0.0913
  125loPI   C6A 1996  10.769  15.869   8.527 -0.1313  0.3029  0.0600
  125loPI   C1B 1997  11.668  15.066  10.702  0.2595  0.0414 -0.1113
  125loPI   C2B 1998  11.440  14.948  10.357 -0.1948  0.2079  0.0926
  125loPI   C3B 1999  11.557  14.896   9.973 -0.3187 -0.0350  0.3081
  125loPI   C4B 2000  11.421  14.849   9.558 -0.1151 -0.0790  0.1884
  126loPI    C1 2001   3.609  11.769  11.881  0.0369  0.0881  0.0974
  126loPI    C2 2002   3.509  12.127  12.030 -0.0716 -0.0241  0.2977
  126loPI    C3 2003   3.424  11.794  12.235  0.0938 -0.1613  0.1466
  126loPI   PO4 2004   3.581  11.803  11.532 -0.0119 -0.1401  0.1035
  126loPI   GL1 2005   3.852  11.884  11.122 -0.2439 -0.0787 -0.4124
  126loPI   GL2 2006   3.817  11.558  11.055  0.0538  0.0914  0.1435
  126loPI   C1A 2007   3.552  12.081  10.810  0.3643 -0.2179  0.3832
  126loPI   C2A 2008   3.471  12.045  10.367 -0.2739  0.2583  0.0687
  126loPI   C3A 2009   3.408  12.036   9.939 -0.3061 -0.2785 -0.0583
  126loPI   C4A 2010   3.307  12.080   9.518  0.3024  0.0964  0.0214
  126loPI   C5A 2011   3.154  11.984   9.091  0.1704  0.1747  0.1976
  126loPI   C6A 2012   3.200  11.698   8.749  0.0292  0.0062 -0.1281
  126loPI   C1B 2013   3.676  11.633  10.616  0.0827  0.4032 -0.0791
  126loPI   C2B 2014   3.680  11.574  10.176 -0.0148  0.0413 -0.1727
  126loPI   C3B 2015   3.520  11.609   9.732  0.1878  0.1476 -0.1370
  126loPI   C4B 2016   3.504  11.660   9.255 -0.0493  0.1741 -0.1221
  127loPI    C1 2017   8.432   8.028  11.664 -0.1574 -0.1404  0.1312
  127loPI    C2 2018   8.357   8.236  11.998 -0.0717 -0.0144  0.0730
  127loPI    C3 2019   8.651   7.965  11.993  0.0089  0.0729  0.0637
  127loPI   PO4 2020   8.177   7.917  11.525 -0.1915 -0.3072  0.0075
  127loPI   GL1 2021   7.981   7.883  11.115 -0.0146 -0.2658  0.0963
  127loPI   GL2 2022   7.871   8.200  11.046 -0.0190  0.2865  0.0938
  127loPI   C1A 2023   8.244   7.899  10.740  0.3381  0.1632 -0.1844
  127loPI   C2A 2024   8.361   7.874  10.312 -0.0325  0.1883 -0.2846
  127loPI   C3A 2025   8.329   7.817   9.920  0.2680 -0.1213 -0.3884
  127loPI   C4A 2026   8.218   7.913   9.481  0.0712  0.0741  0.0792
  127loPI   C5A 2027   8.317   7.837   9.018  0.0302 -0.3305 -0.1504
  127loPI   C6A 2028   8.610   7.728   8.753 -0.0457 -0.0505  0.0641
  127loPI   C1B 2029   7.767   7.985  10.697  0.0014  0.0689 -0.1939
  127loPI   C2B 2030   7.796   7.888  10.302 -0.1207 -0.0017 -0.0528
  127loPI   C3B 2031   7.824   7.979   9.831  0.1593 -0.1455 -0.0649
  127loPI   C4B 2032   7.679   7.952   9.404 -0.2275  0.0148 -0.0849
  128loPI    C1 2033   4.217   8.070  11.820  0.1390  0.1457 -0.0589
  128loPI    C2 2034   4.299   7.815  12.116  0.1784  0.0973 -0.1112
  128loPI    C3 2035   4.405   8.199  12.149  0.2814  0.0689 -0.1090
  128loPI   PO4 2036   4.321   7.939  11.569 -0.0092  0.3092  0.0811
  128loPI   GL1 2037   4.398   7.906  11.128 -0.2896 -0.0116  0.0137
  128loPI   GL2 2038   4.469   8.276  10.966 -0.0627 -0.3455  0.1745
  128loPI   C1A 2039   4.338   7.858  10.696  0.0954  0.0809 -0.0218
  128loPI   C2A 2040   4.327   7.794  10.286  0.4211 -0.0861 -0.1727
  128loPI   C3A 2041   4.225   7.862   9.844  0.0873 -0.3787  0.0592
  128loPI   C4A 2042   4.098   7.874   9.435  0.0061  0.2195  0.1645
  128loPI   C5A 2043   4.177   7.907   8.995  0.0728 -0.3555  0.2221
  128loPI   C6A 2044   3.976   8.161   8.559  0.3132  0.2537  0.0061
  128loPI   C1B 2045   4.623   8.305  10.553  0.1510 -0.0326  0.0468
  128loPI   C2B 2046   4.572   8.210  10.101 -0.1676  0.1202 -0.0626
  128loPI   C3B 2047   4.546   8.265   9.662  0.1215  0.0270 -0.0970
  128loPI   C4B 2048   4.523   8.241   9.271 -0.0091 -0.2051 -0.1300
  129loPI    C1 2049   3.531   1.193  11.784  0.1849  0.0787 -0.0505
  129loPI    C2 2050   3.766   1.491  11.909  0.3470 -0.1550  0.2131
  129loPI    C3 2051   3.690   1.182  12.151 -0.1087 -0.1587  0.0735
  129loPI   PO4 2052   3.609   1.109  11.512 -0.0079 -0.1268  0.2421
  129loPI   GL1 2053   3.552   1.009  11.147 -0.3487 -0.1513  0.0676
  129loPI   GL2 2054   3.361   1.256  11.045 -0.0999 -0.2352 -0.0677
  129loPI   C1A 2055   3.871   1.088  10.853  0.0244 -0.1642  0.0995
  129loPI   C2A 2056   3.909   1.007  10.353  0.3500  0.0420  0.0334
  129loPI   C3A 2057   3.997   1.024   9.892 -0.1790  0.2793 -0.2222
  129loPI   C4A 2058   3.958   0.994   9.459  0.2451  0.2913  0.0248
  129loPI   C5A 2059   3.809   1.130   9.064 -0.0739  0.0330 -0.2492
  129loPI   C6A 2060   3.530   1.175   8.672  0.0059 -0.0057  0.0475
  129loPI   C1B 2061   3.414   1.161  10.674 -0.1064  0.4191 -0.0341
  129loPI   C2B 2062   3.458   1.073  10.133 -0.1708  0.2163 -0.1317
  129loPI   C3B 2063   3.521   0.996   9.686  0.1000  0.1924  0.0940
  129loPI   C4B 2064   3.328   0.858   9.230  0.2530 -0.1200  0.1637
  130loPI    C1 2065  13.699   9.118  11.683  0.0037 -0.0199  0.1176
  130loPI    C2 2066  13.898   8.942  11.982 -0.0174  0.2916  0.3192
  130loPI    C3 2067  13.500   8.973  11.998 -0.0661 -0.1078  0.0337
  130loPI   PO4 2068  13.861   9.324  11.580  0.1801 -0.0177 -0.1938
  130loPI   GL1 2069  14.021   9.286  11.221 -0.1935  0.4539 -0.1516
  130loPI   GL2 2070  13.825   9.484  11.032 -0.0363 -0.1097  0.0611
  130loPI   C1A 2071  14.097   9.126  10.793  0.2352  0.0079 -0.2330
  130loPI   C2A 2072  14.115   9.049  10.388 -0.2861  0.0657  0.3538
  130loPI   C3A 2073  14.177   9.149  10.005 -0.0284 -0.1095 -0.1804
  130loPI   C4A 2074  14.060   9.130   9.537 -0.1811 -0.0162  0.0516
  130loPI   C5A 2075  13.917   9.166   9.116  0.1939 -0.1787 -0.1264
  130loPI   C6A 2076  13.756   9.221   8.672  0.2186  0.1947  0.0260
  130loPI   C1B 2077  13.897   9.502  10.595 -0.1930  0.0035  0.0486
  130loPI   C2B 2078  13.830   9.519  10.242  0.1664 -0.0691  0.2529
  130loPI   C3B 2079  13.991   9.557   9.763  0.3216 -0.3119  0.0197
  130loPI   C4B 2080  13.907   9.608   9.368  0.0001 -0.1383  0.0102
  131loPI    C1 2081  16.051   2.407  11.399  0.1207  0.1393 -0.1619
  131loPI    C2 2082  15.711   2.215  11.311  0.0494  0.1993 -0.0208
  131loPI    C3 2083  15.791   2.318  11.689  0.1883  0.2552 -0.0645
  131loPI   PO4 2084  16.116   2.465  11.158 -0.0357  0.0562 -0.0145
  131loPI   GL1 2085  16.341   2.476  10.875 -0.0480  0.1600 -0.0170
  131loPI   GL2 2086  16.202   2.803  10.799  0.0956  0.2306  0.1018
  131loPI   C1A 2087  16.423   2.371  10.483 -0.0995  0.0814  0.0558
  131loPI   C2A 2088  16.467   2.392  10.187 -0.1260 -0.2959 -0.0195
  131loPI   C3A 2089  16.341   2.504   9.727 -0.1075  0.1145 -0.1585
  131loPI   C4A 2090  16.443   2.596   9.267 -0.0778  0.1051 -0.2468
  131loPI   C5A 2091  16.245   2.741   8.997  0.2225  0.1529 -0.3332
  131loPI   C6A 2092  16.019   3.035   8.719  0.0084  0.1880  0.0865
  131loPI   C1B 2093  16.161   2.905  10.383  0.0295 -0.0086  0.0751
  131loPI   C2B 2094  16.199   2.919   9.984  0.1217 -0.0330  0.0077
  131loPI   C3B 2095  16.256   2.995   9.590  0.2038 -0.3271  0.2020
  131loPI   C4B 2096  16.522   3.115   9.270 -0.0206  0.0737 -0.0548
  132loPI    C1 2097   8.708   0.843  11.559 -0.1964 -0.2525 -0.1531
  132loPI    C2 2098   8.540   0.626  11.851 -0.0949 -0.1311 -0.0031
  132loPI    C3 2099   8.937   0.624  11.803 -0.0908  0.0415  0.0159
  132loPI   PO4 2100   8.713   0.776  11.354 -0.0820  0.3908 -0.1188
  132loPI   GL1 2101   8.590   0.657  11.045  0.4113 -0.1731 -0.2177
  132loPI   GL2 2102   8.300   0.677  10.936 -0.1721 -0.0125 -0.0358
  132loPI   C1A 2103   8.724   0.619  10.639 -0.2208 -0.0931 -0.1802
  132loPI   C2A 2104   8.712   0.578  10.142 -0.1123  0.3931  0.1041
  132loPI   C3A 2105   8.777   0.588   9.778 -0.3949  0.0224 -0.1686
  132loPI   C4A 2106   8.791   0.706   9.403 -0.0979 -0.1222 -0.1254
  132loPI   C5A 2107   8.918   0.704   8.991 -0.0397  0.3782 -0.0174
  132loPI   C6A 2108   8.580   0.744   8.646  0.1387 -0.1564 -0.0015
  132loPI   C1B 2109   8.238   0.666  10.559  0.2048  0.1147 -0.1485
  132loPI   C2B 2110   8.203   0.703  10.239 -0.1683 -0.1502  0.0438
  132loPI   C3B 2111   8.187   0.652   9.848  0.1986  0.1449 -0.1698
  132loPI   C4B 2112   7.966   0.631   9.477 -0.2276 -0.0528  0.0034
  133loPI    C1 2113  14.429   9.345  11.512 -0.1427  0.0242 -0.0787
  133loPI    C2 2114  14.332   9.225  11.881 -0.1452  0.1754 -0.0292
  133loPI    C3 2115  14.630   9.486  11.827 -0.0846  0.0842 -0.1422
  133loPI   PO4 2116  14.525   9.106  11.368 -0.0371  0.0708  0.1143
  133loPI   GL1 2117  14.690   9.069  11.011 -0.0027 -0.0557  0.2037
  133loPI   GL2 2118  14.820   9.319  10.900  0.2678  0.0980 -0.0752
  133loPI   C1A 2119  14.614   8.976  10.537 -0.1362  0.0263  0.1762
  133loPI   C2A 2120  14.612   9.101  10.158 -0.0194 -0.2713 -0.1934
  133loPI   C3A 2121  14.633   9.163   9.777 -0.0670  0.2059 -0.0857
  133loPI   C4A 2122  14.811   9.029   9.461 -0.1717  0.0371 -0.0194
  133loPI   C5A 2123  15.022   9.041   9.100 -0.1444  0.2698 -0.1669
  133loPI   C6A 2124  15.220   9.306   8.694  0.0259  0.0887 -0.2885
  133loPI   C1B 2125  14.949   9.376  10.481  0.0813 -0.0342 -0.0529
  133loPI   C2B 2126  15.103   9.505  10.072 -0.2683 -0.2076 -0.0257
  133loPI   C3B 2127  15.028   9.527   9.594 -0.1532  0.3327 -0.2093
  133loPI   C4B 2128  14.972   9.586   9.155  0.3184 -0.0466  0.0163
  134loPI    C1 2129  15.798  17.027  11.991 -0.1018  0.0571  0.2037
  134loPI    C2 2130  15.466  16.825  12.087 -0.0370 -0.1987 -0.0939
  134loPI    C3 2131  15.822  16.643  12.103  0.0314 -0.0840 -0.2863
  134loPI   PO4 2132  15.844  17.073  11.736  0.0817 -0.2604 -0.2456
  134loPI   GL1 2133  15.717  17.112  11.344  0.0531 -0.2552 -0.0787
  134loPI   GL2 2134  15.699  17.418  11.152 -0.2346 -0.0250 -0.0511
  134loPI   C1A 2135  15.447  17.027  10.950 -0.0788 -0.2184 -0.2874
  134loPI   C2A 2136  15.551  17.079  10.536  0.0076  0.2432 -0.2807
  134loPI   C3A 2137  15.517  17.081  10.136 -0.3104 -0.0819 -0.1383
  134loPI   C4A 2138  15.552  17.002   9.665  0.3731 -0.0220 -0.0902
  134loPI   C5A 2139  15.501  17.027   9.307 -0.0438  0.2488 -0.3641
  134loPI   C6A 2140  15.311  17.131   8.992 -0.0193 -0.0244  0.2549
  134loPI   C1B 2141  15.810  17.428  10.741 -0.4516  0.0965  0.0653
  134loPI   C2B 2142  15.730  17.565  10.392 -0.0510 -0.0524 -0.0200
  134loPI   C3B 2143  15.809  17.471  10.014  0.0116 -0.2864  0.1315
  134loPI   C4B 2144  15.823  17.488   9.614  0.4054 -0.0807 -0.2602
  135loPI    C1 2145  12.240   5.516  11.242  0.2772  0.0674 -0.0565
  135loPI    C2 2146  12.253   5.301  11.579  0.0945  0.1513  0.0056
  135loPI    C3 2147  12.406   5.671  11.571 -0.0746  0.2234  0.0532
  135loPI   PO4 2148  12.005   5.493  11.172  0.2140 -0.2991  0.1420
  135loPI   GL1 2149  11.837   5.484  10.838  0.0895 -0.0236 -0.0314
  135loPI   GL2 2150  11.494   5.477  10.699  0.5735 -0.2886  0.0875
  135loPI   C1A 2151  11.899   5.699  10.439 -0.1088 -0.2040 -0.1303
  135loPI   C2A 2152  11.785   5.826   9.969 -0.0458 -0.1884 -0.1050
  135loPI   C3A 2153  11.714   5.823   9.587 -0.0446  0.2472 -0.0985
  135loPI   C4A 2154  11.619   5.872   9.182  0.2108 -0.0416  0.2437
  135loPI   C5A 2155  11.629   6.016   8.814  0.3190 -0.1901  0.3231
  135loPI   C6A 2156  11.810   6.456   8.684  0.0975 -0.0065 -0.1146
  135loPI   C1B 2157  11.473   5.426  10.253  0.0731 -0.0518 -0.2891
  135loPI   C2B 2158  11.602   5.402   9.873  0.0917 -0.0951 -0.2310
  135loPI   C3B 2159  11.425   5.361   9.492  0.2671 -0.0566 -0.1956
  135loPI   C4B 2160  11.259   5.466   9.025 -0.0340 -0.0197  0.1994
  136loPI    C1 2161  14.822  14.373  11.838 -0.0132 -0.0197  0.1302
  136loPI    C2 2162  14.474  14.570  11.826 -0.1994 -0.3470  0.0415
  136loPI    C3 2163  14.771  14.704  12.058 -0.3390  0.0041  0.0246
  136loPI   PO4 2164  14.837  14.235  11.608  0.1597 -0.0400 -0.0700
  136loPI   GL1 2165  15.042  14.118  11.309 -0.1324 -0.1515 -0.0282
  136loPI   GL2 2166  14.866  14.421  11.092  0.0155 -0.1751 -0.0808
  136loPI   C1A 2167  15.030  13.892  11.011  0.2777  0.1517  0.0370
  136loPI   C2A 2168  14.976  13.985  10.665 -0.1010 -0.1198 -0.0249
  136loPI   C3A 2169  14.933  14.028  10.267 -0.2802  0.1616  0.1563
  136loPI   C4A 2170  14.927  14.015   9.793 -0.2544  0.0308  0.0785
  136loPI   C5A 2171  14.784  14.068   9.368 -0.0121  0.1910 -0.1870
  136loPI   C6A 2172  14.936  14.018   9.024 -0.4244  0.1049 -0.1699
  136loPI   C1B 2173  14.671  14.466  10.650  0.2279 -0.2962  0.1964
  136loPI   C2B 2174  14.691  14.499  10.262  0.1197 -0.2585  0.0572
  136loPI   C3B 2175  14.734  14.499   9.859 -0.2592  0.0120  0.2036
  136loPI   C4B 2176  14.670  14.569   9.454 -0.2648  0.0664 -0.2439
  137loPI    C1 2177  13.740   2.508  11.496 -0.1769 -0.1950  0.1877
  137loPI    C2 2178  13.411   2.733  11.474 -0.1009 -0.0860  0.1558
  137loPI    C3 2179  13.478   2.509  11.798 -0.3573 -0.3458  0.0337
  137loPI   PO4 2180  13.861   2.680  11.275  0.2325 -0.0376  0.0383
  137loPI   GL1 2181  13.951   2.724  10.941 -0.1453  0.0668  0.1406
  137loPI   GL2 2182  14.048   2.390  10.872 -0.2367 -0.1221  0.2490
  137loPI   C1A 2183  13.770   2.782  10.482  0.0073  0.2400  0.2167
  137loPI   C2A 2184  13.689   2.685  10.093  0.2687 -0.1862  0.1472
  137loPI   C3A 2185  13.667   2.547   9.756  0.1312  0.3158  0.1264
  137loPI   C4A 2186  13.450   2.353   9.369 -0.1166  0.1129 -0.2533
  137loPI   C5A 2187  13.654   2.397   8.923  0.3030  0.0471  0.1282
  137loPI   C6A 2188  14.021   2.594   8.824  0.1698  0.3354 -0.0002
  137loPI   C1B 2189  13.992   2.328  10.453  0.2571  0.0304 -0.0523
  137loPI   C2B 2190  14.039   2.251   9.991  0.0089 -0.0319 -0.0190
  137loPI   C3B 2191  14.072   2.216   9.578  0.1261 -0.1237  0.0046
  137loPI   C4B 2192  14.037   2.293   9.216  0.1078 -0.0455 -0.3646
  138loPI    C1 2193   4.978  17.013  11.651 -0.1312 -0.3043  0.1547
  138loPI    C2 2194   4.675  17.133  11.882 -0.0167 -0.0389  0.1714
  138loPI    C3 2195   5.011  16.995  12.049  0.1788  0.4283  0.1786
  138loPI   PO4 2196   4.915  16.861  11.475 -0.1018  0.2560  0.1318
  138loPI   GL1 2197   5.096  16.958  11.104 -0.0201  0.2497  0.0052
  138loPI   GL2 2198   5.006  17.208  11.110  0.0485  0.0580 -0.1426
  138loPI   C1A 2199   5.228  16.873  10.739 -0.0397  0.1547 -0.2442
  138loPI   C2A 2200   5.155  16.859  10.292  0.3802  0.4597 -0.0722
  138loPI   C3A 2201   5.182  16.887   9.861  0.1838  0.1943  0.1951
  138loPI   C4A 2202   5.156  17.012   9.436  0.0402 -0.2416  0.1391
  138loPI   C5A 2203   5.043  17.102   8.955 -0.1187  0.2124 -0.0425
  138loPI   C6A 2204   5.152  17.165   8.598  0.1177 -0.1527 -0.1495
  138loPI   C1B 2205   5.030  17.300  10.651 -0.0996 -0.0867 -0.0246
  138loPI   C2B 2206   4.901  17.366  10.267 -0.1415  0.1778  0.0895
  138loPI   C3B 2207   4.933  17.321   9.760  0.2423  0.0253  0.1881
  138loPI   C4B 2208   4.995  17.448   9.308 -0.1087 -0.1628  0.1923
  139loPI    C1 2209  10.422   0.060  12.113  0.0590 -0.0483 -0.1252
  139loPI    C2 2210  10.693  -0.226  12.045  0.0077 -0.1009 -0.1089
  139loPI    C3 2211  10.758   0.048  12.329  0.0201 -0.1447 -0.0697
  139loPI   PO4 2212  10.359   0.077  11.815 -0.0325 -0.1300 -0.2043
  139loPI   GL1 2213  10.537   0.037  11.388 -0.0084  0.0357 -0.0587
  139loPI   GL2 2214  10.236  -0.121  11.248 -0.0751  0.1169 -0.1669
  139loPI   C1A 2215  10.534   0.272  11.104 -0.1879  0.0986 -0.0490
  139loPI   C2A 2216  10.777   0.475  10.736  0.1574 -0.2673 -0.1300
  139loPI   C3A 2217  10.787   0.470  10.361  0.0190 -0.0214 -0.2922
  139loPI   C4A 2218  10.827   0.444   9.896  0.0168 -0.1177 -0.2068
  139loPI   C5A 2219  10.856   0.497   9.446 -0.3420  0.0600  0.2594
  139loPI   C6A 2220  10.617   0.300   9.204 -0.2413 -0.7263  0.0863
  139loPI   C1B 2221  10.309  -0.039  10.809 -0.1828  0.3599 -0.0056
  139loPI   C2B 2222  10.501   0.057  10.426  0.1875 -0.2812  0.0031
  139loPI   C3B 2223  10.535   0.066  10.040 -0.3415 -0.1374  0.2672
  139loPI   C4B 2224  10.465   0.053   9.567 -0.1383  0.3104  0.1294
  140loPI    C1 2225   1.162  11.080  12.135 -0.2323 -0.1554 -0.1543
  140loPI    C2 2226   1.202  10.811  12.427 -0.2082 -0.0105 -0.0226
  140loPI    C3 2227   0.844  10.975  12.354 -0.2059 -0.0166 -0.0479
  140loPI   PO4 2228   1.290  11.001  11.898  0.2214 -0.2368  0.1240
  140loPI   GL1 2229   1.426  10.958  11.436  0.2180 -0.0084  0.3023
  140loPI   GL2 2230   1.213  11.269  11.397  0.4095 -0.0970  0.0048
  140loPI   C1A 2231   1.549  10.782  11.084  0.0516  0.0447  0.1659
  140loPI   C2A 2232   1.453  10.843  10.613 -0.5132 -0.0400  0.0007
  140loPI   C3A 2233   1.411  10.828  10.154  0.1800  0.0085  0.2385
  140loPI   C4A 2234   1.442  10.890   9.739  0.2410  0.1096 -0.1129
  140loPI   C5A 2235   1.576  11.256   9.457 -0.0893  0.1751  0.2283
  140loPI   C6A 2236   1.876  11.284   9.229 -0.0705 -0.1549  0.4587
  140loPI   C1B 2237   1.245  11.282  11.042 -0.2665 -0.1236 -0.0121
  140loPI   C2B 2238   1.241  11.373  10.527  0.1638 -0.0839 -0.3604
  140loPI   C3B 2239   1.235  11.342  10.149 -0.1654  0.0143 -0.3210
  140loPI   C4B 2240   1.200  11.479   9.754  0.0353  0.2142 -0.1859
  141loPI    C1 2241   0.723  10.235  12.056  0.0133 -0.1551  0.1558
  141loPI    C2 2242   0.925  10.577  12.102 -0.1242 -0.0034 -0.3154
  141loPI    C3 2243   0.566  10.532  12.272 -0.0101 -0.0000 -0.0705
  141loPI   PO4 2244   0.728  10.214  11.763  0.1070 -0.1552 -0.0158
  141loPI   GL1 2245   0.751  10.076  11.346 -0.2126  0.1592  0.0661
  141loPI   GL2 2246   0.449  10.175  11.144 -0.0983  0.2391 -0.0945
  141loPI   C1A 2247   0.868  10.080  10.914 -0.0241 -0.0857  0.1204
  141loPI   C2A 2248   0.777   9.945  10.463 -0.1125 -0.1445  0.1007
  141loPI   C3A 2249   0.738  10.045  10.078  0.3988  0.2540  0.1018
  141loPI   C4A 2250   0.872  10.075   9.670 -0.0963 -0.0760 -0.1067
  141loPI   C5A 2251   0.837  10.139   9.262 -0.1412 -0.1140 -0.0273
  141loPI   C6A 2252   0.442  10.164   9.165  0.1879  0.2261 -0.1626
  141loPI   C1B 2253   0.307  10.115  10.707 -0.1180  0.1741  0.0840
  141loPI   C2B 2254   0.299  10.132  10.342 -0.3831 -0.2261  0.2944
  141loPI   C3B 2255   0.204  10.078  10.003  0.1492 -0.2217  0.1450
  141loPI   C4B 2256   0.310  10.031   9.634  0.1591 -0.0124  0.0438
  142loPI    C1 2257   9.292   6.961  11.775 -0.0239  0.0917  0.1467
  142loPI    C2 2258   9.012   6.745  11.962 -0.1765  0.0797 -0.0909
  142loPI    C3 2259   9.386   6.755  12.105 -0.2475 -0.0718  0.1105
  142loPI   PO4 2260   9.272   6.818  11.466 -0.1571 -0.0925 -0.0656
  142loPI   GL1 2261   9.528   6.912  11.035 -0.1030 -0.0104  0.0764
  142loPI   GL2 2262   9.248   6.926  10.883  0.0352  0.2736 -0.0184
  142loPI   C1A 2263   9.716   6.800  10.630 -0.0440 -0.0662  0.1347
  142loPI   C2A 2264   9.754   6.843  10.071  0.2155 -0.0427  0.0681
  142loPI   C3A 2265   9.690   6.864   9.673  0.0635  0.3006 -0.1089
  142loPI   C4A 2266   9.813   6.889   9.220  0.0464 -0.1102  0.2853
  142loPI   C5A 2267   9.626   6.988   8.904 -0.3765  0.1726  0.0454
  142loPI   C6A 2268   9.663   6.962   8.522  0.1835 -0.0590  0.1567
  142loPI   C1B 2269   9.242   6.836  10.437  0.0667  0.3977 -0.2277
  142loPI   C2B 2270   9.270   6.849  10.034 -0.2037  0.0812 -0.1462
  142loPI   C3B 2271   9.246   6.920   9.537  0.1375  0.0213  0.1756
  142loPI   C4B 2272   9.073   7.020   9.113 -0.0815 -0.1472 -0.0556
  143loPI    C1 2273  15.441   1.543  11.581 -0.0235  0.2126  0.0117
  143loPI    C2 2274  15.559   1.469  11.956 -0.0271 -0.0758 -0.0415
  143loPI    C3 2275  15.196   1.352  11.834 -0.0248  0.0151 -0.1360
  143loPI   PO4 2276  15.408   1.875  11.547  0.2538 -0.0788  0.0540
  143loPI   GL1 2277  15.342   1.937  11.121 -0.2539 -0.2234 -0.0913
  143loPI   GL2 2278  15.285   1.636  11.072 -0.1689 -0.1459 -0.1288
  143loPI   C1A 2279  15.542   2.033  10.646 -0.0760  0.0372  0.2468
  143loPI   C2A 2280  15.482   1.963  10.240  0.0656 -0.1671 -0.0988
  143loPI   C3A 2281  15.602   2.086   9.841  0.0073 -0.0599  0.2674
  143loPI   C4A 2282  15.642   2.059   9.454 -0.0378  0.1248 -0.2757
  143loPI   C5A 2283  15.410   1.942   9.103  0.1364 -0.0334  0.1116
  143loPI   C6A 2284  15.276   1.780   8.710  0.0906  0.4766  0.2775
  143loPI   C1B 2285  15.216   1.675  10.711  0.1890  0.1039  0.2649
  143loPI   C2B 2286  15.195   1.556  10.215 -0.1069 -0.0512  0.0826
  143loPI   C3B 2287  15.239   1.681   9.789  0.3894 -0.3120 -0.2555
  143loPI   C4B 2288  15.461   1.569   9.485  0.4039  0.0170  0.1759
  144loPI    C1 2289  14.288   1.940  11.661 -0.0342  0.2059  0.0763
  144loPI    C2 2290  14.378   2.303  11.804 -0.1517  0.2084  0.1453
  144loPI    C3 2291  14.006   2.160  11.841 -0.0140 -0.0799  0.4689
  144loPI   PO4 2292  14.498   1.926  11.379 -0.0253 -0.2626 -0.2021
  144loPI   GL1 2293  14.841   2.073  11.106  0.0376  0.3059 -0.1619
  144loPI   GL2 2294  15.055   2.254  10.955 -0.1862 -0.1378 -0.1348
  144loPI   C1A 2295  14.704   1.802  10.764  0.3912  0.3126 -0.0496
  144loPI   C2A 2296  14.685   1.683  10.382 -0.2208  0.1731 -0.0317
  144loPI   C3A 2297  14.741   1.675   9.996  0.2603 -0.2656 -0.0808
  144loPI   C4A 2298  14.782   1.708   9.557 -0.2666  0.2461 -0.0773
  144loPI   C5A 2299  14.812   1.519   9.047 -0.1507  0.1029 -0.5696
  144loPI   C6A 2300  14.956   1.177   8.833  0.1352  0.2901  0.4978
  144loPI   C1B 2301  15.032   2.069  10.489 -0.1874  0.1896 -0.0320
  144loPI   C2B 2302  15.108   2.132  10.000  0.3326 -0.1701  0.1562
  144loPI   C3B 2303  15.182   2.110   9.531 -0.0326  0.2532  0.1710
  144loPI   C4B 2304  14.826   2.052   9.171  0.0734  0.3390  0.2275
  145loPI    C1 2305   1.597  16.265  11.652  0.1341 -0.0066  0.0794
  145loPI    C2 2306   1.578  16.661  11.710  0.0082 -0.0400  0.2741
  145loPI    C3 2307   1.264  16.430  11.798  0.1433 -0.2050  0.3307
  145loPI   PO4 2308   1.664  16.132  11.470  0.1315  0.2105 -0.3327
  145loPI   GL1 2309   1.459  15.936  11.148 -0.0012 -0.3823  0.0523
  145loPI   GL2 2310   1.561  16.309  10.966 -0.0182  0.3967 -0.2547
  145loPI   C1A 2311   1.219  15.856  10.746 -0.2708 -0.3420 -0.1815
  145loPI   C2A 2312   1.120  15.804  10.395  0.1190  0.0558  0.3116
  145loPI   C3A 2313   1.186  15.888   9.920  0.0219  0.0327  0.1435
  145loPI   C4A 2314   1.159  15.920   9.491  0.2711 -0.0522  0.2019
  145loPI   C5A 2315   1.144  15.939   9.054 -0.0502 -0.3090  0.0346
  145loPI   C6A 2316   1.289  16.144   8.709 -0.0184  0.0621  0.2223
  145loPI   C1B 2317   1.481  16.255  10.551 -0.0216  0.3591  0.2609
  145loPI   C2B 2318   1.522  16.240  10.155  0.0676  0.1362  0.2117
  145loPI   C3B 2319   1.488  16.216   9.670  0.0272 -0.0928 -0.1179
  145loPI   C4B 2320   1.525  16.344   9.169  0.0835 -0.2261 -0.4517
  146loPI    C1 2321   4.066  14.223  11.896  0.0924  0.1528 -0.0123
  146loPI    C2 2322   3.701  14.361  11.983  0.1146  0.1273  0.1231
  146loPI    C3 2323   4.022  14.591  12.047  0.1418  0.0587  0.2350
  146loPI   PO4 2324   4.055  14.072  11.700  0.1968 -0.0225 -0.1650
  146loPI   GL1 2325   3.883  14.131  11.267  0.2407 -0.0853 -0.1039
  146loPI   GL2 2326   3.836  14.398  11.014  0.2255 -0.3674 -0.3490
  146loPI   C1A 2327   3.589  13.986  10.933  0.2026  0.1719  0.3714
  146loPI   C2A 2328   3.653  13.951  10.533  0.2965 -0.0009 -0.0450
  146loPI   C3A 2329   3.673  13.987  10.130  0.2349  0.0352  0.5760
  146loPI   C4A 2330   3.559  13.886   9.830  0.3043  0.0980  0.2799
  146loPI   C5A 2331   3.482  13.826   9.350 -0.2188  0.1532 -0.0415
  146loPI   C6A 2332   3.626  13.871   8.957  0.1634  0.1880  0.0974
  146loPI   C1B 2333   4.021  14.271  10.623 -0.1326 -0.4240 -0.3183
  146loPI   C2B 2334   4.007  14.356  10.286  0.4267  0.2718  0.0123
  146loPI   C3B 2335   3.978  14.357   9.892  0.1205 -0.0091 -0.1652
  146loPI   C4B 2336   3.788  14.290   9.662  0.4206  0.0948  0.2493
  147loPI    C1 2337   2.469  14.563  11.974  0.0066 -0.1129 -0.0499
  147loPI    C2 2338   2.250  14.569  12.309  0.0684  0.0060 -0.0110
  147loPI    C3 2339   2.646  14.518  12.330  0.0856  0.1167 -0.0583
  147loPI   PO4 2340   2.281  14.359  11.837 -0.4889  0.1205  0.2164
  147loPI   GL1 2341   2.278  14.386  11.387 -0.0498 -0.0634 -0.1603
  147loPI   GL2 2342   2.130  14.082  11.472 -0.1013  0.0824  0.0193
  147loPI   C1A 2343   2.373  14.513  10.893  0.2849 -0.0827  0.4113
  147loPI   C2A 2344   2.309  14.456  10.536 -0.0726 -0.0119  0.1468
  147loPI   C3A 2345   2.326  14.414  10.131  0.3910 -0.1920  0.1610
  147loPI   C4A 2346   2.276  14.434   9.643  0.0935 -0.2202 -0.2684
  147loPI   C5A 2347   2.086  14.234   9.287  0.1799  0.0458  0.0762
  147loPI   C6A 2348   1.892  14.441   8.955  0.0978  0.1639 -0.0776
  147loPI   C1B 2349   2.083  13.955  11.010 -0.1882  0.0631 -0.0916
  147loPI   C2B 2350   2.014  13.987  10.581 -0.2062  0.1854  0.1006
  147loPI   C3B 2351   2.082  13.975  10.135 -0.0794  0.0184  0.0058
  147loPI   C4B 2352   1.948  13.995   9.682  0.1000  0.1064 -0.0255
  148loPI    C1 2353   7.332   4.045  11.577 -0.3571  0.0387 -0.1078
  148loPI    C2 2354   7.292   4.376  11.798 -0.1168  0.0388 -0.0621
  148loPI    C3 2355   7.340   4.021  11.976  0.1153  0.0437 -0.1113
  148loPI   PO4 2356   7.456   4.093  11.346  0.1458  0.0143  0.2852
  148loPI   GL1 2357   7.747   4.257  11.039  0.1788 -0.0669  0.1160
  148loPI   GL2 2358   7.766   4.573  11.085  0.0371 -0.0150  0.0298
  148loPI   C1A 2359   7.896   4.276  10.551  0.0777 -0.2125  0.1204
  148loPI   C2A 2360   7.920   4.199  10.142  0.1665  0.2414  0.0606
  148loPI   C3A 2361   7.861   4.225   9.627  0.0592 -0.1137 -0.0018
  148loPI   C4A 2362   7.889   4.467   9.213  0.3416  0.0893  0.1379
  148loPI   C5A 2363   8.034   4.969   9.073  0.0968  0.5696  0.1176
  148loPI   C6A 2364   8.218   5.280   8.871  0.2041  0.0342  0.2330
  148loPI   C1B 2365   7.719   4.721  10.671 -0.3738 -0.2411 -0.1677
  148loPI   C2B 2366   7.648   4.769  10.254  0.2314  0.4320  0.0430
  148loPI   C3B 2367   7.781   4.706   9.871  0.0751  0.0363  0.2105
  148loPI   C4B 2368   7.637   4.794   9.461  0.3305 -0.0304  0.2093
  149loPI    C1 2369  13.719  11.560  11.743  0.0946  0.1183  0.0979
  149loPI    C2 2370  14.061  11.504  11.943  0.1044 -0.0560  0.0345
  149loPI    C3 2371  13.726  11.326  12.067 -0.0023  0.2506  0.1961
  149loPI   PO4 2372  13.732  11.491  11.536 -0.2693  0.2363  0.0409
  149loPI   GL1 2373  13.835  11.433  11.114 -0.0071 -0.0639  0.2900
  149loPI   GL2 2374  13.630  11.669  11.086 -0.0608  0.3848  0.1104
  149loPI   C1A 2375  14.068  11.213  10.802 -0.1939 -0.0222  0.1890
  149loPI   C2A 2376  14.241  11.339  10.349 -0.0992  0.2606 -0.1722
  149loPI   C3A 2377  14.072  11.430   9.864 -0.2242  0.1848  0.1953
  149loPI   C4A 2378  14.215  11.453   9.460 -0.2662  0.1067 -0.0527
  149loPI   C5A 2379  14.268  11.486   9.017 -0.0853 -0.0544 -0.0192
  149loPI   C6A 2380  14.185  11.552   8.526 -0.2054 -0.0006  0.2938
  149loPI   C1B 2381  13.588  11.395  10.650  0.4016 -0.2366  0.0067
  149loPI   C2B 2382  13.519  11.388  10.230  0.0416  0.0312 -0.0440
  149loPI   C3B 2383  13.583  11.540   9.850 -0.1244 -0.1591 -0.0030
  149loPI   C4B 2384  13.624  11.570   9.440 -0.0697 -0.1328  0.3739
  150loPI    C1 2385  12.253   9.672  11.859  0.1220  0.2487 -0.0157
  150loPI    C2 2386  12.532   9.426  12.005  0.3173  0.3193 -0.2621
  150loPI    C3 2387  12.465   9.779  12.181 -0.1478 -0.0090  0.2535
  150loPI   PO4 2388  12.359   9.618  11.587 -0.2260 -0.3558  0.3361
  150loPI   GL1 2389  12.300   9.487  11.198  0.0018 -0.1410 -0.0145
  150loPI   GL2 2390  12.308   9.818  11.171  0.0284 -0.0180  0.1915
  150loPI   C1A 2391  12.093   9.258  10.756 -0.2382 -0.2181 -0.3731
  150loPI   C2A 2392  12.036   9.346  10.246  0.1929  0.0578 -0.0783
  150loPI   C3A 2393  11.994   9.350   9.766 -0.2539  0.3992 -0.0917
  150loPI   C4A 2394  11.923   9.470   9.346  0.0694  0.3725  0.1981
  150loPI   C5A 2395  11.986   9.774   9.044  0.2294 -0.0514  0.0619
  150loPI   C6A 2396  12.411   9.962   8.939 -0.3254  0.0089  0.0600
  150loPI   C1B 2397  12.425   9.746  10.748  0.1180 -0.4016  0.4995
  150loPI   C2B 2398  12.294   9.758  10.289  0.1360  0.0522 -0.2380
  150loPI   C3B 2399  12.288   9.713   9.919 -0.0236 -0.3934  0.0825
  150loPI   C4B 2400  12.440   9.851   9.454  0.1116  0.2270 -0.1375
  151loPI    C1 2401   7.920  17.333  11.799  0.0036  0.0213 -0.0311
  151loPI    C2 2402   8.074  17.700  11.765 -0.1210  0.0647 -0.1387
  151loPI    C3 2403   8.050  17.525  12.124 -0.1071  0.1814 -0.0806
  151loPI   PO4 2404   8.024  17.232  11.516 -0.3532 -0.5399  0.0309
  151loPI   GL1 2405   7.813  16.978  11.190 -0.0064  0.1048  0.3853
  151loPI   GL2 2406   8.148  17.021  11.044  0.0483 -0.0808  0.0863
  151loPI   C1A 2407   7.568  17.083  10.819 -0.1958  0.2464  0.0417
  151loPI   C2A 2408   7.646  17.127  10.381  0.0476  0.3178  0.1685
  151loPI   C3A 2409   7.605  17.174   9.928  0.1936  0.1251  0.0980
  151loPI   C4A 2410   7.555  17.115   9.524  0.0559 -0.3831 -0.1154
  151loPI   C5A 2411   7.505  17.045   9.116 -0.1356 -0.0580 -0.0246
  151loPI   C6A 2412   7.168  17.320   8.994 -0.3698  0.0592 -0.1607
  151loPI   C1B 2413   8.099  17.079  10.597 -0.1613 -0.0417 -0.1398
  151loPI   C2B 2414   8.151  17.089  10.126  0.2803  0.0067 -0.0534
  151loPI   C3B 2415   8.035  17.115   9.739 -0.2258  0.1993  0.0064
  151loPI   C4B 2416   8.018  17.139   9.261  0.1866  0.2428  0.0789
  152loPI    C1 2417  16.049   7.216  11.656 -0.1164 -0.0951 -0.2295
  152loPI    C2 2418  15.694   7.197  11.473 -0.2055 -0.1845 -0.0494
  152loPI    C3 2419  15.712   7.230  11.871 -0.0116 -0.1383 -0.0612
  152loPI   PO4 2420  16.226   7.533  11.494  0.0532 -0.1289 -0.0550
  152loPI   GL1 2421  16.201   7.650  11.113 -0.0797  0.1575 -0.0622
  152loPI   GL2 2422  15.948   7.845  11.037 -0.0087 -0.0805  0.1582
  152loPI   C1A 2423  16.277   7.537  10.708  0.0920  0.3899 -0.0023
  152loPI   C2A 2424  16.271   7.571  10.357  0.1413  0.2702 -0.0549
  152loPI   C3A 2425  16.228   7.496   9.977  0.1263  0.1667 -0.0493
  152loPI   C4A 2426  16.227   7.574   9.631  0.2953  0.1582 -0.0006
  152loPI   C5A 2427  16.070   7.613   9.249 -0.0195  0.3608  0.0287
  152loPI   C6A 2428  16.059   7.872   8.849  0.1761  0.1521  0.1225
  152loPI   C1B 2429  16.063   8.054  10.716  0.0492  0.1876 -0.0141
  152loPI   C2B 2430  16.073   8.099  10.320 -0.0851  0.1297  0.3813
  152loPI   C3B 2431  16.015   8.001   9.836  0.1067 -0.0212 -0.1165
  152loPI   C4B 2432  16.008   8.024   9.455  0.1044 -0.2651  0.3779
  153loPI    C1 2433   4.612   6.016  11.447  0.2371  0.0186 -0.0395
  153loPI    C2 2434   4.796   6.371  11.447  0.3472 -0.0372  0.0998
  153loPI    C3 2435   4.591   6.253  11.769  0.1200 -0.0037 -0.0303
  153loPI   PO4 2436   4.473   5.994  11.263  0.1650 -0.0932 -0.0497
  153loPI   GL1 2437   4.201   5.839  10.929  0.1672  0.1140  0.1607
  153loPI   GL2 2438   3.949   5.912  11.103  0.0821  0.1848  0.0533
  153loPI   C1A 2439   4.415   5.943  10.444  0.0922  0.1883 -0.0120
  153loPI   C2A 2440   4.774   5.991  10.114  0.0129 -0.2262 -0.3441
  153loPI   C3A 2441   4.784   5.935   9.681 -0.2222  0.4298  0.0828
  153loPI   C4A 2442   4.679   6.034   9.248 -0.3801  0.3855 -0.2296
  153loPI   C5A 2443   4.531   6.088   8.824  0.1483  0.0062  0.1465
  153loPI   C6A 2444   4.226   6.244   8.542  0.1976  0.2473  0.2932
  153loPI   C1B 2445   3.912   6.104  10.628  0.0414 -0.1160  0.2095
  153loPI   C2B 2446   3.964   6.168  10.161  0.1122  0.1003 -0.1484
  153loPI   C3B 2447   4.162   6.103   9.722  0.0089 -0.2436 -0.2605
  153loPI   C4B 2448   4.171   5.977   9.314 -0.0769  0.1750  0.0892
  154loPI    C1 2449   0.903   4.878  11.239  0.1808  0.1132 -0.2333
  154loPI    C2 2450   0.986   5.128  11.540 -0.2421  0.2504 -0.2245
  154loPI    C3 2451   0.856   4.757  11.617  0.1738  0.0964 -0.2396
  154loPI   PO4 2452   0.865   5.171  11.088 -0.1961  0.2851  0.4634
  154loPI   GL1 2453   0.550   5.145  10.878  0.2385 -0.1206  0.0186
  154loPI   GL2 2454   0.263   5.383  10.985 -0.1673 -0.2249  0.1437
  154loPI   C1A 2455   0.646   5.401  10.463  0.0808 -0.2659 -0.2400
  154loPI   C2A 2456   0.751   5.524  10.137 -0.1902 -0.0514  0.2600
  154loPI   C3A 2457   0.921   5.443   9.744  0.0225 -0.4809  0.2825
  154loPI   C4A 2458   0.921   5.459   9.401  0.2063  0.0039 -0.0933
  154loPI   C5A 2459   0.957   5.534   8.879 -0.0862  0.1911  0.1054
  154loPI   C6A 2460   0.932   6.005   8.725 -0.0842  0.1436  0.1198
  154loPI   C1B 2461   0.198   5.575  10.582 -0.2157  0.4495  0.4103
  154loPI   C2B 2462   0.248   5.587  10.251  0.1281  0.1906 -0.2155
  154loPI   C3B 2463   0.314   5.671   9.896 -0.2899 -0.0564 -0.1450
  154loPI   C4B 2464   0.414   5.529   9.442  0.1940  0.1465  0.2010
  155loPI    C1 2465  10.214   0.798  11.764 -0.1267  0.2017  0.1248
  155loPI    C2 2466   9.925   0.891  12.024 -0.1687 -0.0467  0.1694
  155loPI    C3 2467  10.105   0.534  12.044  0.0710  0.0668  0.0767
  155loPI   PO4 2468  10.093   0.842  11.526  0.1129  0.0089 -0.3066
  155loPI   GL1 2469  10.196   0.671  11.122 -0.0811  0.1257  0.1072
  155loPI   GL2 2470  10.575   0.737  11.073 -0.0814 -0.0203 -0.0268
  155loPI   C1A 2471  10.245   0.485  10.726  0.1724  0.0538 -0.4027
  155loPI   C2A 2472  10.260   0.534  10.359  0.4420 -0.1316 -0.3631
  155loPI   C3A 2473  10.299   0.463   9.978  0.1515  0.0541  0.1382
  155loPI   C4A 2474  10.172   0.551   9.514  0.0532 -0.1926 -0.1317
  155loPI   C5A 2475  10.057   0.346   9.068  0.2280 -0.1536 -0.2610
  155loPI   C6A 2476   9.752   0.248   8.726 -0.0621 -0.1599  0.2287
  155loPI   C1B 2477  10.549   0.899  10.618  0.0795 -0.4537 -0.0418
  155loPI   C2B 2478  10.560   0.863  10.158  0.0603 -0.0597 -0.2268
  155loPI   C3B 2479  10.621   0.906   9.703 -0.1061  0.1096  0.1426
  155loPI   C4B 2480  10.529   0.868   9.269 -0.0345  0.1289  0.0532
  156loPI    C1 2481  15.400  13.718  12.048 -0.0681  0.2613 -0.1332
  156loPI    C2 2482  15.395  13.930  12.387  0.3365 -0.0509  0.0779
  156loPI    C3 2483  15.309  13.540  12.394 -0.1406  0.0386 -0.2647
  156loPI   PO4 2484  15.638  13.692  11.897 -0.0446  0.1465  0.0844
  156loPI   GL1 2485  15.650  13.675  11.510 -0.3710  0.0496  0.2217
  156loPI   GL2 2486  15.527  13.909  11.328  0.1979  0.1379  0.0669
  156loPI   C1A 2487  15.801  13.475  11.170  0.1300 -0.2195  0.1868
  156loPI   C2A 2488  15.728  13.411  10.806  0.2627 -0.1211 -0.2087
  156loPI   C3A 2489  15.733  13.457  10.290  0.0254 -0.0200  0.0543
  156loPI   C4A 2490  15.682  13.583   9.843 -0.0817  0.2572  0.0480
  156loPI   C5A 2491  15.757  13.620   9.357  0.0458 -0.1665 -0.1745
  156loPI   C6A 2492  16.163  13.607   9.212 -0.1644 -0.1006 -0.0739
  156loPI   C1B 2493  15.544  13.808  10.932 -0.0107  0.0316  0.3096
  156loPI   C2B 2494  15.446  13.850  10.539  0.0920 -0.0092  0.1886
  156loPI   C3B 2495  15.403  13.888  10.144  0.2480  0.4964 -0.0641
  156loPI   C4B 2496  15.480  13.986   9.656  0.2058  0.0283  0.0387
  157loPI    C1 2497   6.819  14.845  11.889 -0.0800 -0.0077 -0.1618
  157loPI    C2 2498   6.775  15.182  12.100  0.0641 -0.0738 -0.0233
  157loPI    C3 2499   6.589  14.847  12.216 -0.0535 -0.0506 -0.1427
  157loPI   PO4 2500   6.758  14.834  11.657  0.0295 -0.0816  0.0074
  157loPI   GL1 2501   6.519  15.136  11.474  0.1451  0.0484 -0.1328
  157loPI   GL2 2502   6.411  15.414  11.304 -0.1009 -0.1524  0.0634
  157loPI   C1A 2503   6.599  14.980  11.068  0.0344  0.2536 -0.2768
  157loPI   C2A 2504   6.661  15.007  10.646 -0.0190  0.0942  0.0475
  157loPI   C3A 2505   6.595  14.941  10.207  0.1426  0.0475 -0.0827
  157loPI   C4A 2506   6.571  15.008   9.794 -0.1723  0.1263  0.1182
  157loPI   C5A 2507   6.499  15.003   9.328 -0.1979 -0.0527  0.0144
  157loPI   C6A 2508   6.201  14.844   9.108 -0.1237 -0.3508 -0.1267
  157loPI   C1B 2509   6.382  15.418  10.747  0.2753  0.2120 -0.1557
  157loPI   C2B 2510   6.388  15.416  10.417  0.1479 -0.2051  0.0546
  157loPI   C3B 2511   6.335  15.387   9.887  0.0909 -0.1335 -0.1870
  157loPI   C4B 2512   6.262  15.437   9.493 -0.1276  0.1127 -0.0384
  158loPI    C1 2513   3.620  16.220  11.634  0.0159  0.0302  0.1609
  158loPI    C2 2514   3.559  15.885  11.844 -0.0413  0.0043  0.1027
  158loPI    C3 2515   3.791  16.174  11.993  0.2428 -0.1820  0.0290
  158loPI   PO4 2516   3.323  16.199  11.517  0.1075 -0.1611  0.1445
  158loPI   GL1 2517   3.123  16.425  11.126 -0.0400 -0.0814  0.0654
  158loPI   GL2 2518   3.331  16.617  11.104  0.1537  0.1052 -0.0325
  158loPI   C1A 2519   3.027  16.225  10.655  0.2802 -0.0077  0.4119
  158loPI   C2A 2520   2.997  16.111  10.227  0.2895  0.1198 -0.2823
  158loPI   C3A 2521   2.996  16.091   9.801  0.1661 -0.2703 -0.2265
  158loPI   C4A 2522   3.078  16.182   9.413  0.1767 -0.2767 -0.0545
  158loPI   C5A 2523   3.074  16.149   8.911  0.1939  0.0385 -0.0346
  158loPI   C6A 2524   3.332  15.921   8.600 -0.1716  0.2359  0.3294
  158loPI   C1B 2525   3.383  16.632  10.593  0.2262  0.1366 -0.3119
  158loPI   C2B 2526   3.268  16.656  10.154 -0.1229  0.2034  0.4078
  158loPI   C3B 2527   3.270  16.560   9.756  0.2384 -0.1122  0.0409
  158loPI   C4B 2528   3.420  16.653   9.334  0.2683  0.0176 -0.1107
  159loPI    C1 2529   0.058   6.921  11.270 -0.0924  0.0114 -0.1457
  159loPI    C2 2530   0.279   7.205  11.444 -0.2351  0.0206  0.0228
  159loPI    C3 2531   0.195   6.868  11.641  0.1429 -0.2512 -0.2665
  159loPI   PO4 2532   0.109   6.848  11.040 -0.1040 -0.0399 -0.0395
  159loPI   GL1 2533   0.182   6.925  10.589 -0.0390 -0.1132  0.0851
  159loPI   GL2 2534  -0.147   6.943  10.639  0.0865 -0.1476 -0.0987
  159loPI   C1A 2535   0.326   6.932  10.195  0.1436  0.0358  0.0245
  159loPI   C2A 2536   0.163   6.951   9.799  0.0880 -0.1897 -0.0174
  159loPI   C3A 2537   0.142   6.928   9.346  0.0610 -0.1463  0.3644
  159loPI   C4A 2538   0.020   6.980   8.931 -0.0598  0.1564 -0.3229
  159loPI   C5A 2539   0.364   7.026   8.602  0.1689  0.1418  0.0717
  159loPI   C6A 2540   0.776   7.408   8.332 -0.0572 -0.0097  0.1307
  159loPI   C1B 2541  -0.205   6.967  10.270  0.0171  0.0460  0.0554
  159loPI   C2B 2542  -0.334   6.982   9.831 -0.2284  0.1920 -0.1585
  159loPI   C3B 2543  -0.379   7.018   9.383 -0.2938  0.1678  0.0522
  159loPI   C4B 2544  -0.506   6.882   8.976  0.2847 -0.2681 -0.0336
  160loPI    C1 2545  11.334  16.297  11.875 -0.2860 -0.0854  0.2869
  160loPI    C2 2546  11.441  16.656  12.017 -0.1300 -0.0112 -0.0115
  160loPI    C3 2547  11.665  16.334  12.096  0.0085  0.0466 -0.1646
  160loPI   PO4 2548  11.195  16.385  11.606 -0.2813  0.2081 -0.0229
  160loPI   GL1 2549  11.079  16.173  11.210  0.1263 -0.1130 -0.3286
  160loPI   GL2 2550  11.175  15.959  11.021  0.0042 -0.1285 -0.1822
  160loPI   C1A 2551  10.954  16.335  10.826  0.0445 -0.0456  0.0789
  160loPI   C2A 2552  10.981  16.388  10.418  0.0280  0.2355 -0.3008
  160loPI   C3A 2553  10.915  16.462   9.916  0.0075 -0.2083 -0.0191
  160loPI   C4A 2554  10.993  16.556   9.456 -0.1840  0.0020 -0.3164
  160loPI   C5A 2555  10.917  16.615   9.077 -0.1638  0.0228  0.1859
  160loPI   C6A 2556  11.082  16.446   8.716 -0.1826 -0.1702 -0.1709
  160loPI   C1B 2557  11.196  15.946  10.519  0.2145 -0.1378  0.0560
  160loPI   C2B 2558  11.066  15.776  10.166 -0.0343 -0.0284 -0.0504
  160loPI   C3B 2559  11.031  15.996   9.771 -0.0551  0.1117 -0.1044
  160loPI   C4B 2560  10.829  16.056   9.381 -0.3195 -0.0416  0.0667
  161loPI    C1 2561   1.625   2.062  11.759  0.1063  0.1641  0.0217
  161loPI    C2 2562   1.296   1.846  11.829 -0.0463  0.3680 -0.0564
  161loPI    C3 2563   1.588   1.858  12.101  0.2090 -0.3683 -0.2730
  161loPI   PO4 2564   1.673   2.019  11.552 -0.2969  0.1514 -0.3168
  161loPI   GL1 2565   1.609   2.082  11.114 -0.3391 -0.2401 -0.0447
  161loPI   GL2 2566   1.813   1.776  10.957  0.1798  0.2192  0.2499
  161loPI   C1A 2567   1.599   2.165  10.769  0.1063  0.1659  0.2454
  161loPI   C2A 2568   1.778   2.169  10.326  0.1444 -0.4517  0.0708
  161loPI   C3A 2569   1.953   2.042   9.990 -0.1080 -0.0963 -0.3639
  161loPI   C4A 2570   1.949   2.098   9.512  0.2621  0.0949 -0.0840
  161loPI   C5A 2571   1.765   2.233   9.136 -0.1701 -0.1481 -0.2333
  161loPI   C6A 2572   1.464   2.336   8.801  0.1179  0.1204 -0.1282
  161loPI   C1B 2573   1.971   1.752  10.588 -0.4764 -0.0855 -0.1938
  161loPI   C2B 2574   2.237   1.635  10.279  0.3457  0.2145 -0.0633
  161loPI   C3B 2575   2.190   1.592   9.833 -0.1439 -0.0298  0.1366
  161loPI   C4B 2576   2.236   1.457   9.486  0.2172  0.4766 -0.3791
  162loPI    C1 2577   1.074   5.684  11.563  0.0385 -0.0737  0.1363
  162loPI    C2 2578   0.995   5.594  11.944  0.0119 -0.2558  0.0888
  162loPI    C3 2579   0.700   5.600  11.675  0.0309 -0.1291  0.0703
  162loPI   PO4 2580   1.144   5.548  11.378 -0.1101 -0.1592  0.3755
  162loPI   GL1 2581   1.204   5.566  10.967 -0.1616  0.4559  0.0003
  162loPI   GL2 2582   0.958   5.829  10.762  0.0549 -0.2577  0.0113
  162loPI   C1A 2583   1.189   5.368  10.585 -0.4383 -0.1229  0.1826
  162loPI   C2A 2584   1.243   5.424  10.126 -0.0782 -0.0841  0.0601
  162loPI   C3A 2585   1.459   5.439   9.666 -0.0677  0.0828  0.2581
  162loPI   C4A 2586   1.408   5.437   9.243 -0.2003  0.0443 -0.0115
  162loPI   C5A 2587   1.450   5.380   8.833 -0.0857 -0.0249  0.1076
  162loPI   C6A 2588   1.800   5.513   8.535  0.0093  0.1287 -0.2276
  162loPI   C1B 2589   1.084   5.910  10.361  0.2356 -0.0372 -0.2174
  162loPI   C2B 2590   1.154   5.997   9.993  0.0753  0.1707 -0.0465
  162loPI   C3B 2591   1.154   5.854   9.639  0.0283 -0.1614 -0.0576
  162loPI   C4B 2592   1.303   5.900   9.145 -0.1884 -0.1048 -0.0821
  163loPI    C1 2593   4.488  14.733  11.354 -0.2765 -0.0226  0.0945
  163loPI    C2 2594   4.416  14.625  11.732 -0.2525 -0.2488  0.0356
  163loPI    C3 2595   4.258  14.415  11.430 -0.2740 -0.0676 -0.0808
  163loPI   PO4 2596   4.747  14.779  11.344 -0.1555  0.1194  0.1942
  163loPI   GL1 2597   5.029  14.695  11.058 -0.1915 -0.0509  0.0315
  163loPI   GL2 2598   5.360  14.666  11.007 -0.0551  0.1414 -0.0708
  163loPI   C1A 2599   4.709  14.722  10.699  0.0074  0.0662  0.1478
  163loPI   C2A 2600   4.809  14.712  10.307 -0.2587 -0.3819  0.1848
  163loPI   C3A 2601   4.743  14.707   9.912  0.0332 -0.0487  0.0612
  163loPI   C4A 2602   4.520  14.727   9.470 -0.1877 -0.1870 -0.0759
  163loPI   C5A 2603   4.417  14.678   9.043 -0.1333 -0.0760  0.1135
  163loPI   C6A 2604   4.400  14.925   8.697 -0.1635 -0.0476  0.4350
  163loPI   C1B 2605   5.220  14.621  10.515 -0.1685  0.0119 -0.0347
  163loPI   C2B 2606   5.294  14.609   9.996  0.2758  0.1153 -0.1106
  163loPI   C3B 2607   5.180  14.682   9.539  0.2609 -0.3325 -0.0207
  163loPI   C4B 2608   5.297  14.929   9.179  0.0768 -0.0113  0.0715
  164loPI    C1 2609   2.745   8.627  11.853  0.1368 -0.0440  0.0481
  164loPI    C2 2610   2.665   8.242  11.928 -0.1243 -0.0226 -0.1091
  164loPI    C3 2611   2.628   8.514  12.219 -0.1788 -0.0810 -0.0611
  164loPI   PO4 2612   2.637   8.650  11.563 -0.0650 -0.0535  0.1419
  164loPI   GL1 2613   2.492   8.544  11.118 -0.2099 -0.4114  0.2089
  164loPI   GL2 2614   2.458   8.209  11.100  0.1226 -0.0476 -0.1492
  164loPI   C1A 2615   2.584   8.571  10.624  0.1537 -0.1356 -0.1045
  164loPI   C2A 2616   2.519   8.508  10.241 -0.3963 -0.2575  0.1971
  164loPI   C3A 2617   2.450   8.450   9.831  0.0642 -0.1722  0.0971
  164loPI   C4A 2618   2.378   8.469   9.417  0.4413  0.1441 -0.3602
  164loPI   C5A 2619   2.479   8.639   9.018  0.0069  0.1475 -0.2981
  164loPI   C6A 2620   2.539   9.016   8.631 -0.0247  0.0570 -0.1693
  164loPI   C1B 2621   2.181   8.124  10.772 -0.0096  0.3005  0.0124
  164loPI   C2B 2622   2.232   8.204  10.428  0.3063  0.1599 -0.0807
  164loPI   C3B 2623   2.148   8.097  10.012 -0.0064 -0.0825  0.2655
  164loPI   C4B 2624   2.105   8.031   9.623 -0.1393  0.0317  0.1587
  165loPI    C1 2625  11.476  13.576  11.795 -0.0001  0.2567  0.2029
  165loPI    C2 2626  11.189  13.635  12.067 -0.3781  0.1826 -0.1703
  165loPI    C3 2627  11.227  13.278  11.891  0.0691  0.1354  0.0104
  165loPI   PO4 2628  11.483  13.841  11.624 -0.1395 -0.1878  0.0514
  165loPI   GL1 2629  11.488  13.771  11.230  0.0721  0.1414  0.6544
  165loPI   GL2 2630  11.817  13.627  11.036  0.2014 -0.1057  0.1911
  165loPI   C1A 2631  11.267  13.693  10.932  0.0277 -0.0878  0.2921
  165loPI   C2A 2632  11.229  13.673  10.498 -0.2627  0.2642  0.0447
  165loPI   C3A 2633  11.204  13.597  10.048 -0.0629 -0.2258  0.0441
  165loPI   C4A 2634  11.148  13.557   9.645 -0.1583 -0.2351 -0.0894
  165loPI   C5A 2635  11.276  13.762   9.209  0.0816  0.0111 -0.2973
  165loPI   C6A 2636  11.263  13.630   8.862 -0.1137 -0.1362  0.0471
  165loPI   C1B 2637  11.742  13.553  10.592 -0.1119  0.3114  0.3090
  165loPI   C2B 2638  11.753  13.495  10.134  0.0595  0.0439  0.2377
  165loPI   C3B 2639  11.674  13.580   9.731 -0.1351  0.6442 -0.0922
  165loPI   C4B 2640  11.766  13.614   9.250  0.4577 -0.0565 -0.1543
  166loPI    C1 2641   4.993  16.192  11.747  0.0378 -0.2283  0.3312
  166loPI    C2 2642   5.322  16.183  11.974  0.2351  0.1380  0.0708
  166loPI    C3 2643   5.172  16.533  11.853 -0.1148 -0.0358 -0.0126
  166loPI   PO4 2644   5.023  16.054  11.523 -0.0642  0.3526  0.1524
  166loPI   GL1 2645   5.246  16.100  11.175 -0.0617  0.0065 -0.3052
  166loPI   GL2 2646   5.030  16.396  11.207 -0.0075 -0.2821 -0.0678
  166loPI   C1A 2647   5.077  16.049  10.769  0.0518  0.0108  0.1467
  166loPI   C2A 2648   5.049  15.968  10.302  0.0176 -0.0225 -0.3113
  166loPI   C3A 2649   5.110  16.031   9.945 -0.3362 -0.3830 -0.1317
  166loPI   C4A 2650   5.051  15.996   9.476 -0.1423 -0.0958 -0.0529
  166loPI   C5A 2651   4.996  16.187   9.146  0.0378  0.0748 -0.0958
  166loPI   C6A 2652   4.805  16.651   9.010  0.2138 -0.0675 -0.2720
  166loPI   C1B 2653   4.909  16.530  10.866  0.1551 -0.3248  0.0841
  166loPI   C2B 2654   4.809  16.473  10.382  0.1656  0.0605 -0.1667
  166loPI   C3B 2655   4.829  16.473   9.970 -0.0947  0.1612 -0.1588
  166loPI   C4B 2656   4.924  16.482   9.552 -0.1473 -0.0248 -0.0175
  167loPI    C1 2657   8.731  12.669  11.593  0.1722  0.0662  0.2709
  167loPI    C2 2658   8.513  12.344  11.514  0.2905  0.0723 -0.0986
  167loPI    C3 2659   8.529  12.488  11.887 -0.2803  0.0345 -0.0510
  167loPI   PO4 2660   8.680  12.804  11.329 -0.0962  0.0646  0.0281
  167loPI   GL1 2661   8.669  12.797  10.958 -0.0640 -0.0767 -0.4826
  167loPI   GL2 2662   8.747  12.469  10.868  0.1336 -0.0677  0.2387
  167loPI   C1A 2663   8.804  12.945  10.537  0.2482  0.0820 -0.3397
  167loPI   C2A 2664   8.726  12.867  10.134  0.0170  0.0288 -0.1387
  167loPI   C3A 2665   8.443  12.963   9.796  0.0740  0.0634 -0.0393
  167loPI   C4A 2666   8.460  12.968   9.422 -0.0632  0.1621  0.1141
  167loPI   C5A 2667   8.572  13.039   9.036  0.1471 -0.2926  0.0147
  167loPI   C6A 2668   8.431  12.771   8.775  0.2330 -0.0586  0.3257
  167loPI   C1B 2669   8.725  12.400  10.456 -0.0890  0.2188  0.2942
  167loPI   C2B 2670   8.651  12.415  10.057 -0.3847  0.4312 -0.0206
  167loPI   C3B 2671   8.733  12.516   9.674  0.1408  0.1507  0.0083
  167loPI   C4B 2672   8.501  12.547   9.216 -0.0663  0.2497 -0.4048
  168loPI    C1 2673   9.086   2.957  11.720 -0.0825  0.2723 -0.1831
  168loPI    C2 2674   9.132   3.310  11.903  0.0516 -0.0046  0.3370
  168loPI    C3 2675   9.450   3.120  11.751 -0.0093  0.0615  0.1248
  168loPI   PO4 2676   8.961   3.011  11.537 -0.0651  0.2312 -0.2663
  168loPI   GL1 2677   9.019   3.247  11.141 -0.1375  0.0209 -0.0112
  168loPI   GL2 2678   8.958   3.556  11.093  0.0707  0.0479 -0.1186
  168loPI   C1A 2679   9.362   3.266  10.797  0.0258  0.3444 -0.1214
  168loPI   C2A 2680   9.427   3.241  10.365 -0.2399  0.0779  0.1084
  168loPI   C3A 2681   9.557   3.249   9.906  0.2462  0.1707  0.2063
  168loPI   C4A 2682   9.340   3.271   9.539  0.0414 -0.0073 -0.4236
  168loPI   C5A 2683   9.143   3.050   9.162 -0.3124  0.0858 -0.2166
  168loPI   C6A 2684   9.112   2.640   8.847 -0.3622  0.1200 -0.1551
  168loPI   C1B 2685   8.859   3.243  10.713 -0.0414 -0.0571  0.2426
  168loPI   C2B 2686   8.848   3.332  10.215  0.3819 -0.0624 -0.1810
  168loPI   C3B 2687   8.882   3.356   9.828  0.2337 -0.2064  0.3184
  168loPI   C4B 2688   8.756   3.350   9.407 -0.1223  0.1154 -0.3367
  169loPI    C1 2689   3.515   9.000  11.712 -0.0924 -0.0287 -0.5093
  169loPI    C2 2690   3.252   8.821  11.954 -0.1436  0.0157 -0.5318
  169loPI    C3 2691   3.628   8.688  11.934  0.0211  0.3663  0.0071
  169loPI   PO4 2692   3.429   9.028  11.482 -0.0186  0.0136 -0.0754
  169loPI   GL1 2693   3.549   8.963  11.083  0.1037 -0.2305  0.1581
  169loPI   GL2 2694   3.463   8.571  11.099  0.0020 -0.0047  0.0177
  169loPI   C1A 2695   3.385   8.875  10.662 -0.1372  0.1614  0.2171
  169loPI   C2A 2696   3.420   8.824  10.221 -0.1170 -0.0616  0.3086
  169loPI   C3A 2697   3.317   8.888   9.786 -0.0266 -0.0384 -0.0087
  169loPI   C4A 2698   3.286   8.889   9.386  0.5289  0.0073  0.1220
  169loPI   C5A 2699   3.410   8.663   8.988  0.0675  0.0753  0.2523
  169loPI   C6A 2700   3.501   8.241   8.843 -0.1496 -0.1808  0.4272
  169loPI   C1B 2701   3.626   8.459  10.690  0.0037 -0.1053 -0.2025
  169loPI   C2B 2702   3.656   8.361  10.295 -0.0363 -0.1041 -0.1172
  169loPI   C3B 2703   3.558   8.432   9.861  0.1173 -0.0251  0.0335
  169loPI   C4B 2704   3.467   8.396   9.402 -0.0236 -0.1140 -0.3596
  170loPI    C1 2705   6.505  13.538  11.866 -0.1082 -0.1967 -0.0154
  170loPI    C2 2706   6.665  13.861  12.039 -0.1340 -0.0476 -0.2662
  170loPI    C3 2707   6.687  13.506  12.221  0.0532  0.0611 -0.0723
  170loPI   PO4 2708   6.558  13.516  11.652 -0.3658 -0.2231 -0.1975
  170loPI   GL1 2709   6.551  13.565  11.205 -0.1636  0.0313  0.0891
  170loPI   GL2 2710   6.339  13.570  11.199  0.3481 -0.0002  0.1797
  170loPI   C1A 2711   6.705  13.633  10.795  0.3016  0.1708  0.0727
  170loPI   C2A 2712   6.766  13.591  10.398  0.0121  0.1833 -0.1230
  170loPI   C3A 2713   6.647  13.663   9.908 -0.2214  0.1591 -0.0209
  170loPI   C4A 2714   6.692  13.599   9.481  0.0942  0.0074  0.1981
  170loPI   C5A 2715   6.903  13.638   9.076 -0.2486  0.0580 -0.1968
  170loPI   C6A 2716   7.032  13.489   8.743  0.1034 -0.2865  0.1199
  170loPI   C1B 2717   6.231  13.781  10.906 -0.0467 -0.2770  0.0464
  170loPI   C2B 2718   6.241  13.721  10.559  0.0692  0.0966  0.3642
  170loPI   C3B 2719   6.157  13.716  10.088  0.0164 -0.5744 -0.2488
  170loPI   C4B 2720   6.239  13.751   9.615  0.0248  0.2530  0.2679
  171loPI    C1 2721  10.869   0.693  11.620  0.0369  0.0468 -0.1542
  171loPI    C2 2722  10.541   0.486  11.523  0.0417  0.0158 -0.1041
  171loPI    C3 2723  10.609   0.587  11.904 -0.1537  0.4377 -0.1757
  171loPI   PO4 2724  10.938   0.870  11.468 -0.0223  0.1828 -0.1242
  171loPI   GL1 2725  11.087   0.897  11.162  0.0752 -0.0716 -0.0360
  171loPI   GL2 2726  11.098   1.222  11.178  0.1849 -0.0299  0.1855
  171loPI   C1A 2727  11.079   0.847  10.738 -0.1603 -0.0556  0.2154
  171loPI   C2A 2728  11.050   0.881  10.296 -0.0655 -0.1747 -0.2701
  171loPI   C3A 2729  11.115   0.955   9.849  0.0836  0.1999  0.0028
  171loPI   C4A 2730  11.092   0.912   9.416 -0.1692 -0.0615  0.1041
  171loPI   C5A 2731  11.319   0.691   9.152 -0.2439  0.0240  0.0850
  171loPI   C6A 2732  11.474   0.306   9.099 -0.3017  0.0196 -0.1860
  171loPI   C1B 2733  10.850   1.253  10.925  0.3446  0.0195  0.2554
  171loPI   C2B 2734  10.853   1.348  10.529  0.0956  0.3895 -0.2198
  171loPI   C3B 2735  10.846   1.292  10.095  0.0120 -0.0361 -0.0215
  171loPI   C4B 2736  11.048   1.385   9.687 -0.3853  0.1597  0.3673
  172loPI    C1 2737  10.190  14.421  11.454  0.3980  0.0322 -0.1575
  172loPI    C2 2738  10.402  14.243  11.743  0.0431  0.1966  0.2144
  172loPI    C3 2739  10.003  14.224  11.748  0.0272  0.3421 -0.1784
  172loPI   PO4 2740  10.335  14.658  11.411  0.2978  0.0128  0.0860
  172loPI   GL1 2741  10.336  14.971  11.113 -0.0731 -0.0981 -0.4861
  172loPI   GL2 2742  10.681  14.852  11.092 -0.0154  0.1132 -0.0565
  172loPI   C1A 2743  10.537  15.135  10.748 -0.1818  0.0312  0.0788
  172loPI   C2A 2744  10.513  15.038  10.257  0.0374 -0.0079 -0.3507
  172loPI   C3A 2745  10.529  14.915   9.846 -0.3683  0.0778  0.0852
  172loPI   C4A 2746  10.438  14.916   9.418  0.1860 -0.0559 -0.2717
  172loPI   C5A 2747  10.330  14.870   9.068 -0.0534  0.1056  0.1446
  172loPI   C6A 2748  10.108  14.688   8.647  0.1129  0.1552  0.1218
  172loPI   C1B 2749  10.841  14.630  10.760 -0.1476 -0.0546 -0.2195
  172loPI   C2B 2750  10.865  14.540  10.341  0.1381  0.0944 -0.0129
  172loPI   C3B 2751  10.814  14.516   9.957  0.1847  0.0024 -0.4078
  172loPI   C4B 2752  10.759  14.521   9.535  0.1519  0.0963 -0.2312
  173loPI    C1 2753   0.069  10.625  11.957 -0.0711  0.2535  0.2143
  173loPI    C2 2754  -0.219  10.428  12.153 -0.0944 -0.0534 -0.1167
  173loPI    C3 2755   0.155  10.286  12.151 -0.0484  0.0663 -0.1153
  173loPI   PO4 2756  -0.093  10.610  11.678  0.1354 -0.1551  0.0431
  173loPI   GL1 2757   0.172  10.762  11.383  0.3305 -0.2211 -0.2327
  173loPI   GL2 2758   0.403  10.974  11.312 -0.6635  0.0730  0.3403
  173loPI   C1A 2759   0.101  10.566  10.952 -0.0069  0.1101  0.3646
  173loPI   C2A 2760   0.104  10.544  10.541  0.0078 -0.2859 -0.0752
  173loPI   C3A 2761   0.123  10.586  10.184 -0.1392 -0.2156  0.0342
  173loPI   C4A 2762   0.099  10.477   9.751 -0.0508  0.0522  0.2464
  173loPI   C5A 2763   0.176  10.702   9.351 -0.1053 -0.1956 -0.1564
  173loPI   C6A 2764   0.518  10.994   9.158  0.0284  0.2886  0.0050
  173loPI   C1B 2765   0.455  10.960  10.986 -0.0656 -0.1093 -0.0662
  173loPI   C2B 2766   0.433  10.934  10.572  0.0046  0.0338 -0.3751
  173loPI   C3B 2767   0.512  10.971  10.116 -0.0225  0.2599 -0.1496
  173loPI   C4B 2768   0.482  10.975   9.644 -0.0166  0.1473 -0.3345
  174loPI    C1 2769   6.415   0.773  11.682  0.0501  0.1200  0.0284
  174loPI    C2 2770   6.251   0.496  11.445  0.0814  0.4240 -0.3596
  174loPI    C3 2771   6.060   0.614  11.776  0.0838 -0.0779 -0.1701
  174loPI   PO4 2772   6.641   0.960  11.523 -0.0217  0.3814  0.1184
  174loPI   GL1 2773   6.857   0.969  11.233 -0.4731 -0.1867 -0.1008
  174loPI   GL2 2774   7.080   0.725  11.168  0.4182 -0.3167 -0.1191
  174loPI   C1A 2775   6.971   1.138  10.776  0.2121 -0.1616  0.0350
  174loPI   C2A 2776   6.969   1.180  10.339 -0.2985 -0.3378  0.3635
  174loPI   C3A 2777   6.964   1.142   9.906  0.1635 -0.0530  0.1183
  174loPI   C4A 2778   6.889   1.133   9.403 -0.1662 -0.0153 -0.0629
  174loPI   C5A 2779   7.053   0.798   9.058  0.0191 -0.2013 -0.1777
  174loPI   C6A 2780   6.899   0.463   8.848  0.1762 -0.0748 -0.1694
  174loPI   C1B 2781   7.195   0.615  10.838 -0.0806 -0.1180 -0.0537
  174loPI   C2B 2782   7.285   0.747  10.426  0.1499 -0.2360 -0.1351
  174loPI   C3B 2783   7.201   0.750  10.064  0.1591  0.1364 -0.2674
  174loPI   C4B 2784   7.026   0.729   9.654 -0.2041 -0.0986 -0.0061
  175loPI    C1 2785  15.473   8.672  11.849  0.0139 -0.0468 -0.0303
  175loPI    C2 2786  15.509   8.391  12.132  0.0375 -0.0043  0.0090
  175loPI    C3 2787  15.754   8.707  12.132  0.1107 -0.0603 -0.1241
  175loPI   PO4 2788  15.540   8.569  11.610 -0.0049  0.3945 -0.0753
  175loPI   GL1 2789  15.691   8.710  11.200  0.1670  0.0351  0.1820
  175loPI   GL2 2790  15.685   8.978  11.155 -0.0501 -0.1653  0.2332
  175loPI   C1A 2791  15.839   8.480  10.875 -0.1369  0.0630  0.0173
  175loPI   C2A 2792  15.684   8.508  10.526 -0.2948 -0.0298  0.0269
  175loPI   C3A 2793  15.868   8.509  10.101  0.1061  0.0341  0.1934
  175loPI   C4A 2794  15.773   8.438   9.657 -0.0714 -0.2601  0.1781
  175loPI   C5A 2795  15.762   8.367   9.115  0.0579  0.0269  0.1507
  175loPI   C6A 2796  15.715   8.399   8.696 -0.0653  0.1174  0.1362
  175loPI   C1B 2797  15.806   8.996  10.709 -0.1814 -0.1457 -0.1705
  175loPI   C2B 2798  15.803   9.014  10.293 -0.1379  0.0079  0.4282
  175loPI   C3B 2799  15.730   8.996   9.914  0.1629  0.1840  0.1258
  175loPI   C4B 2800  15.830   8.875   9.386  0.0232 -0.2010  0.0563
  176loPI    C1 2801   9.513   2.663  11.977  0.1816  0.0090  0.0216
  176loPI    C2 2802   9.385   2.311  12.119  0.2651  0.0126  0.1068
  176loPI    C3 2803   9.659   2.521  12.321  0.1496  0.1694  0.1026
  176loPI   PO4 2804   9.431   2.605  11.702 -0.3226 -0.2190  0.0691
  176loPI   GL1 2805   9.725   2.531  11.306 -0.2825  0.1894 -0.1573
  176loPI   GL2 2806  10.008   2.491  11.112  0.0417 -0.3075  0.0903
  176loPI   C1A 2807   9.549   2.361  10.932 -0.1752 -0.2620  0.0224
  176loPI   C2A 2808   9.536   2.497  10.550  0.0750 -0.0079  0.0668
  176loPI   C3A 2809   9.378   2.499  10.134 -0.0665 -0.2530  0.1781
  176loPI   C4A 2810   9.395   2.298   9.732 -0.2824 -0.0580  0.1353
  176loPI   C5A 2811   9.335   2.411   9.334  0.1687  0.0617  0.2537
  176loPI   C6A 2812   9.530   2.244   8.917  0.3596 -0.1532 -0.2644
  176loPI   C1B 2813   9.995   2.477  10.734 -0.1359 -0.0034  0.1768
  176loPI   C2B 2814   9.975   2.420  10.289  0.0728  0.0219  0.3250
  176loPI   C3B 2815   9.975   2.338   9.849  0.1546  0.1201 -0.1372
  176loPI   C4B 2816   9.813   2.356   9.406 -0.0161 -0.0570 -0.0520
  177loPI    C1 2817   5.813   0.137  11.550 -0.1170  0.3456  0.0349
  177loPI    C2 2818   5.530   0.113  11.832 -0.1719  0.3250 -0.0216
  177loPI    C3 2819   5.917   0.100  11.934 -0.1928  0.0620  0.0300
  177loPI   PO4 2820   5.815   0.264  11.372 -0.1568 -0.2629 -0.4991
  177loPI   GL1 2821   5.815   0.365  11.013 -0.0443  0.0174 -0.0322
  177loPI   GL2 2822   6.050   0.614  10.955  0.1140  0.1634  0.1705
  177loPI   C1A 2823   5.859   0.363  10.576 -0.2819 -0.4112  0.1911
  177loPI   C2A 2824   5.688   0.277  10.317 -0.2904 -0.2512 -0.1434
  177loPI   C3A 2825   5.714   0.396   9.794  0.2153  0.0577 -0.1020
  177loPI   C4A 2826   5.745   0.445   9.375 -0.0981  0.0452  0.0599
  177loPI   C5A 2827   5.974   0.410   8.883 -0.3972  0.2338  0.0023
  177loPI   C6A 2828   5.753   0.424   8.445 -0.0289 -0.0108  0.1864
  177loPI   C1B 2829   6.075   0.814  10.563  0.1110  0.0759 -0.0817
  177loPI   C2B 2830   6.103   0.819  10.077 -0.0461  0.2232  0.1881
  177loPI   C3B 2831   6.071   0.799   9.677 -0.1793 -0.1615  0.2510
  177loPI   C4B 2832   6.210   0.768   9.208 -0.0598  0.2244 -0.1345
  178loPI    C1 2833  15.571  12.853  12.018 -0.0456 -0.0234  0.0619
  178loPI    C2 2834  15.638  13.225  12.148 -0.0566 -0.0144  0.0418
  178loPI    C3 2835  15.836  12.919  12.311  0.0247  0.0108 -0.0090
  178loPI   PO4 2836  15.570  12.828  11.762 -0.4588 -0.1599  0.0440
  178loPI   GL1 2837  15.663  13.040  11.329 -0.5536  0.2233 -0.2094
  178loPI   GL2 2838  15.936  12.864  11.312 -0.0638  0.2661 -0.0832
  178loPI   C1A 2839  15.397  13.042  10.974  0.0689 -0.0743 -0.1904
  178loPI   C2A 2840  15.456  13.036  10.536 -0.0890 -0.1450 -0.3195
  178loPI   C3A 2841  15.355  13.033  10.164  0.0896  0.1230  0.0533
  178loPI   C4A 2842  15.459  13.134   9.786 -0.2336  0.2474 -0.1225
  178loPI   C5A 2843  15.475  13.139   9.354 -0.2158 -0.1637  0.1038
  178loPI   C6A 2844  15.393  13.033   8.973  0.0768 -0.1507 -0.0105
  178loPI   C1B 2845  15.956  12.950  10.851  0.2893  0.2977  0.0253
  178loPI   C2B 2846  15.965  12.955  10.419  0.1039  0.0171 -0.0870
  178loPI   C3B 2847  15.898  13.018   9.998 -0.1384 -0.4470  0.3242
  178loPI   C4B 2848  15.904  13.052   9.560 -0.0597 -0.1115 -0.0733
  179loPI    C1 2849   3.552   6.882  11.503 -0.1243 -0.2683 -0.1686
  179loPI    C2 2850   3.931   6.784  11.589 -0.0402  0.0338 -0.1828
  179loPI    C3 2851   3.639   6.707  11.852  0.0813  0.1101 -0.0243
  179loPI   PO4 2852   3.556   6.925  11.235 -0.0229 -0.0081  0.0925
  179loPI   GL1 2853   3.749   7.152  10.972 -0.0460 -0.1735  0.1543
  179loPI   GL2 2854   3.928   7.395  10.948 -0.0656 -0.2739  0.2616
  179loPI   C1A 2855   3.548   7.115  10.590  0.0242 -0.1787 -0.0825
  179loPI   C2A 2856   3.536   7.033  10.155  0.1461  0.0213  0.0290
  179loPI   C3A 2857   3.586   6.961   9.709  0.0244 -0.1208 -0.0445
  179loPI   C4A 2858   3.600   6.910   9.344  0.0674 -0.0026  0.2303
  179loPI   C5A 2859   3.482   6.589   8.961 -0.4032 -0.2609  0.1238
  179loPI   C6A 2860   3.450   6.220   8.822 -0.1414  0.1087  0.3125
  179loPI   C1B 2861   3.889   7.441  10.471 -0.3901 -0.0307 -0.0215
  179loPI   C2B 2862   3.931   7.446  10.130 -0.0243 -0.1193  0.1847
  179loPI   C3B 2863   3.929   7.436   9.743 -0.1001  0.0767 -0.0658
  179loPI   C4B 2864   3.855   7.401   9.294 -0.1253  0.1100 -0.0559
  180loPI    C1 2865  12.181   2.315  11.618 -0.1500 -0.3089 -0.1265
  180loPI    C2 2866  11.873   2.148  11.811 -0.2113  0.0706  0.1148
  180loPI    C3 2867  12.068   2.457  11.974  0.1585 -0.0224 -0.1375
  180loPI   PO4 2868  12.072   2.212  11.360 -0.0922  0.0137 -0.3263
  180loPI   GL1 2869  11.902   2.381  11.036  0.1346 -0.1059 -0.0182
  180loPI   GL2 2870  12.118   2.411  10.802 -0.0260  0.5678  0.0856
  180loPI   C1A 2871  11.627   2.172  10.681  0.0969 -0.1636 -0.0707
  180loPI   C2A 2872  11.428   2.097  10.251  0.0515  0.0724  0.1672
  180loPI   C3A 2873  11.465   2.209   9.825 -0.1889 -0.1880 -0.2025
  180loPI   C4A 2874  11.440   2.189   9.373  0.1342 -0.0756 -0.2054
  180loPI   C5A 2875  11.478   2.046   9.020 -0.0082 -0.0236  0.0324
  180loPI   C6A 2876  11.831   2.268   8.938 -0.0028 -0.2302 -0.1735
  180loPI   C1B 2877  11.964   2.469  10.406 -0.1581  0.0299 -0.1933
  180loPI   C2B 2878  11.895   2.367   9.916  0.0015  0.1341  0.1062
  180loPI   C3B 2879  11.925   2.126   9.430  0.0619 -0.1489 -0.2140
  180loPI   C4B 2880  12.034   1.848   9.076 -0.0434  0.3257  0.2253
  181loPI    C1 2881  13.580  14.512  11.957  0.4417  0.2071 -0.1419
  181loPI    C2 2882  13.817  14.193  12.004  0.1027 -0.0293  0.0046
  181loPI    C3 2883  13.599  14.327  12.311 -0.1997 -0.0168 -0.2104
  181loPI   PO4 2884  13.524  14.408  11.663 -0.0831  0.0448  0.3919
  181loPI   GL1 2885  13.707  14.332  11.253  0.1904 -0.0067  0.1391
  181loPI   GL2 2886  13.449  14.259  11.175  0.4142  0.1565  0.1306
  181loPI   C1A 2887  14.136  14.586  10.933 -0.1353  0.3293  0.1328
  181loPI   C2A 2888  14.153  14.587  10.488 -0.0985  0.0818 -0.1167
  181loPI   C3A 2889  14.243  14.526  10.105  0.1301  0.2196 -0.3418
  181loPI   C4A 2890  14.211  14.597   9.762 -0.2696 -0.0151  0.1906
  181loPI   C5A 2891  14.200  14.658   9.272  0.0855  0.2089  0.0854
  181loPI   C6A 2892  14.261  14.731   8.850 -0.0224  0.1334 -0.0743
  181loPI   C1B 2893  13.453  14.173  10.778  0.1211 -0.0793  0.3102
  181loPI   C2B 2894  13.332  14.234  10.345  0.3087 -0.0860 -0.4124
  181loPI   C3B 2895  13.339  14.255   9.920  0.1563  0.1075 -0.1794
  181loPI   C4B 2896  13.339  14.300   9.424 -0.1693  0.0782 -0.1689
  182loPI    C1 2897   9.745  13.395  11.668 -0.0897  0.1832 -0.0286
  182loPI    C2 2898   9.350  13.447  11.701 -0.1118 -0.0223  0.0417
  182loPI    C3 2899   9.505  13.078  11.712  0.0972  0.0681  0.1800
  182loPI   PO4 2900   9.880  13.437  11.466 -0.1146  0.2664  0.2725
  182loPI   GL1 2901  10.087  13.273  11.124  0.0584 -0.0347  0.3037
  182loPI   GL2 2902  10.159  13.560  11.041  0.2428 -0.0691 -0.0705
  182loPI   C1A 2903   9.961  13.327  10.657 -0.1660  0.2025  0.1014
  182loPI   C2A 2904   9.757  13.343  10.262 -0.0503  0.1171 -0.0018
  182loPI   C3A 2905   9.825  13.279   9.841  0.0088 -0.1093 -0.1972
  182loPI   C4A 2906   9.829  13.284   9.433  0.2934 -0.2916 -0.1882
  182loPI   C5A 2907   9.870  13.189   9.022 -0.0080  0.0880  0.0321
  182loPI   C6A 2908  10.068  13.084   8.581  0.1863 -0.0033 -0.0652
  182loPI   C1B 2909  10.202  13.770  10.586  0.1400 -0.1256  0.1858
  182loPI   C2B 2910  10.175  13.763  10.169  0.1289  0.0018 -0.1835
  182loPI   C3B 2911  10.137  13.654   9.736 -0.1298 -0.0506  0.0342
  182loPI   C4B 2912  10.190  13.649   9.233  0.0597  0.1896 -0.3438
  183loPI    C1 2913   9.278   4.514  11.601 -0.0327  0.1547  0.1448
  183loPI    C2 2914   9.558   4.252  11.716  0.0304  0.0528 -0.2269
  183loPI    C3 2915   9.510   4.595  11.916  0.2013 -0.0737  0.0356
  183loPI   PO4 2916   9.217   4.476  11.443 -0.1451 -0.3853  0.1041
  183loPI   GL1 2917   9.233   4.440  11.032 -0.0110  0.0251  0.0104
  183loPI   GL2 2918   8.895   4.560  11.003  0.3109  0.0829 -0.0381
  183loPI   C1A 2919   9.316   4.664  10.676 -0.3163 -0.0112  0.1670
  183loPI   C2A 2920   9.354   4.736  10.223 -0.0042 -0.0926 -0.2620
  183loPI   C3A 2921   9.182   4.665   9.891  0.0178 -0.1582  0.1300
  183loPI   C4A 2922   9.201   4.671   9.435 -0.2438  0.0888 -0.2045
  183loPI   C5A 2923   9.155   4.311   9.112  0.2320  0.1999  0.0880
  183loPI   C6A 2924   9.197   3.988   8.792 -0.0784  0.0585  0.1314
  183loPI   C1B 2925   8.745   4.683  10.453  0.2526  0.1565 -0.0956
  183loPI   C2B 2926   8.743   4.749  10.035  0.0196  0.0969  0.0859
  183loPI   C3B 2927   8.753   4.688   9.627  0.0761 -0.1657 -0.1793
  183loPI   C4B 2928   8.856   4.704   9.107 -0.0578 -0.2569  0.1011
  184loPI    C1 2929  13.239   7.542  11.958 -0.1473 -0.0773 -0.0746
  184loPI    C2 2930  13.574   7.347  12.058 -0.3217 -0.3970 -0.0984
  184loPI    C3 2931  13.225   7.243  12.224 -0.4685 -0.3166 -0.3509
  184loPI   PO4 2932  13.298   7.669  11.662 -0.0233  0.0171  0.0674
  184loPI   GL1 2933  13.442   7.575  11.278  0.0894  0.1743  0.0683
  184loPI   GL2 2934  13.626   7.843  11.197 -0.0026  0.1407  0.0834
  184loPI   C1A 2935  13.544   7.355  10.883  0.1569  0.0746  0.1289
  184loPI   C2A 2936  13.783   7.296  10.513  0.1166  0.0612  0.2386
  184loPI   C3A 2937  13.932   7.395  10.073  0.2085  0.0180  0.1086
  184loPI   C4A 2938  13.858   7.331   9.624 -0.1928  0.0532 -0.2847
  184loPI   C5A 2939  13.925   7.343   9.218 -0.0906 -0.0453 -0.1619
  184loPI   C6A 2940  13.863   7.302   8.866 -0.0229  0.0347  0.1172
  184loPI   C1B 2941  13.683   7.805  10.746  0.1383 -0.0454  0.1479
  184loPI   C2B 2942  13.649   7.743  10.289 -0.0672  0.2030  0.1951
  184loPI   C3B 2943  13.681   7.781   9.881 -0.3445  0.1319 -0.0545
  184loPI   C4B 2944  13.650   7.832   9.527 -0.0444  0.0462  0.0353
  185loPI    C1 2945  15.709  15.337  11.955  0.0797 -0.0051  0.0239
  185loPI    C2 2946  15.809  14.966  12.067 -0.0941 -0.0226  0.1260
  185loPI    C3 2947  15.546  15.176  12.283 -0.2553  0.0327 -0.1193
  185loPI   PO4 2948  15.845  15.408  11.793 -0.3328  0.1687  0.0175
  185loPI   GL1 2949  15.717  15.436  11.441  0.1553  0.0132 -0.1488
  185loPI   GL2 2950  15.715  15.233  11.278 -0.0302 -0.0367  0.0531
  185loPI   C1A 2951  15.596  15.747  11.057  0.0677  0.0028  0.1199
  185loPI   C2A 2952  15.538  15.809  10.512 -0.3611  0.1747  0.0212
  185loPI   C3A 2953  15.545  15.643  10.076  0.2564 -0.2528  0.2284
  185loPI   C4A 2954  15.654  15.791   9.629  0.2997  0.3615 -0.1307
  185loPI   C5A 2955  15.729  15.693   9.180  0.0832  0.0448  0.0933
  185loPI   C6A 2956  15.464  15.728   8.826  0.2331 -0.0308 -0.1276
  185loPI   C1B 2957  15.853  15.207  10.764 -0.0121 -0.0551  0.2181
  185loPI   C2B 2958  15.776  15.231  10.350 -0.0911 -0.1168  0.1400
  185loPI   C3B 2959  15.851  15.180   9.950  0.2330  0.1208  0.0366
  185loPI   C4B 2960  15.886  15.287   9.537 -0.2273 -0.1981  0.1496
  186loPI    C1 2961   7.707  11.675  12.040  0.1689 -0.1347  0.2531
  186loPI    C2 2962   7.788  12.047  12.163  0.1811 -0.0632  0.0317
  186loPI    C3 2963   7.784  11.747  12.426  0.2414  0.0818  0.2002
  186loPI   PO4 2964   7.878  11.736  11.799  0.1923 -0.2535  0.1952
  186loPI   GL1 2965   7.897  11.701  11.284 -0.1995 -0.0271 -0.0944
  186loPI   GL2 2966   7.606  11.618  11.365  0.0083 -0.1257 -0.0368
  186loPI   C1A 2967   8.078  11.527  10.852  0.0041 -0.3103 -0.2471
  186loPI   C2A 2968   8.085  11.733  10.568 -0.1911 -0.0516 -0.0790
  186loPI   C3A 2969   8.103  11.633  10.113  0.0609  0.2006 -0.0840
  186loPI   C4A 2970   8.147  11.616   9.646  0.2112  0.2748 -0.2590
  186loPI   C5A 2971   7.885  11.484   9.341  0.0769 -0.1606  0.1249
  186loPI   C6A 2972   7.520  11.576   9.181 -0.0172 -0.0721 -0.1541
  186loPI   C1B 2973   7.604  11.631  10.921 -0.0159 -0.1274  0.1222
  186loPI   C2B 2974   7.582  11.740  10.494  0.1363 -0.1647 -0.3358
  186loPI   C3B 2975   7.634  11.545  10.079 -0.0026 -0.1554 -0.3578
  186loPI   C4B 2976   7.535  11.675   9.687  0.1982 -0.0669 -0.1034
  187loPI    C1 2977   1.388  15.840  11.857 -0.1798  0.0073 -0.0357
  187loPI    C2 2978   1.156  15.608  12.087 -0.0839  0.0044  0.0592
  187loPI    C3 2979   1.088  16.002  12.066 -0.1126 -0.0002  0.0673
  187loPI   PO4 2980   1.427  15.681  11.594  0.0458 -0.1597 -0.1574
  187loPI   GL1 2981   1.171  15.514  11.253  0.1986 -0.0129  0.0743
  187loPI   GL2 2982   0.974  15.762  11.164 -0.2439  0.0821 -0.0833
  187loPI   C1A 2983   1.406  15.423  10.861 -0.3025  0.3505 -0.0537
  187loPI   C2A 2984   1.358  15.328  10.480 -0.2050  0.0605  0.1681
  187loPI   C3A 2985   1.342  15.326  10.083 -0.0240 -0.3592  0.1857
  187loPI   C4A 2986   1.306  15.388   9.696  0.1823  0.2437 -0.3367
  187loPI   C5A 2987   1.306  15.456   9.306  0.2120 -0.1251  0.1518
  187loPI   C6A 2988   1.558  15.713   8.992  0.0748  0.0677  0.0200
  187loPI   C1B 2989   0.729  15.858  10.770 -0.0127  0.2039 -0.0126
  187loPI   C2B 2990   0.622  15.862  10.352 -0.1758  0.0695  0.3264
  187loPI   C3B 2991   0.596  15.872   9.920 -0.0646 -0.1260 -0.1351
  187loPI   C4B 2992   0.589  15.825   9.388 -0.1364  0.1818 -0.2308
  188loPI    C1 2993  11.946   5.940  11.442 -0.1092  0.0320  0.1455
  188loPI    C2 2994  11.881   5.587  11.617 -0.0863  0.0571  0.2049
  188loPI    C3 2995  12.012   5.896  11.834  0.0616  0.0546  0.1201
  188loPI   PO4 2996  11.778   5.945  11.323 -0.0480  0.1902  0.0414
  188loPI   GL1 2997  11.616   5.897  10.921 -0.0892 -0.0828  0.1401
  188loPI   GL2 2998  11.567   6.281  10.958 -0.1089 -0.1170 -0.1313
  188loPI   C1A 2999  11.460   5.945  10.527 -0.4324  0.0042 -0.0342
  188loPI   C2A 3000  11.148   5.884  10.251 -0.2136 -0.0515  0.0586
  188loPI   C3A 3001  11.237   5.838   9.909 -0.0199 -0.3027 -0.0693
  188loPI   C4A 3002  11.221   5.827   9.477 -0.0005 -0.0781  0.1394
  188loPI   C5A 3003  11.157   6.166   9.162  0.1129  0.1178 -0.1029
  188loPI   C6A 3004  11.259   6.418   8.754  0.2528 -0.0148  0.1523
  188loPI   C1B 3005  11.421   6.471  10.543  0.0968  0.0175 -0.1265
  188loPI   C2B 3006  11.220   6.722  10.165  0.1236 -0.0865 -0.3291
  188loPI   C3B 3007  11.225   6.753   9.717  0.0899 -0.0427 -0.0078
  188loPI   C4B 3008  11.221   6.676   9.322 -0.1856  0.0619  0.0169
  189loPI    C1 3009  17.024  10.988  11.976 -0.0334  0.0108 -0.1064
  189loPI    C2 3010  17.019  10.930  12.372  0.0123 -0.0484 -0.1144
  189loPI    C3 3011  17.298  11.164  12.207  0.0564 -0.1064 -0.1225
  189loPI   PO4 3012  16.844  10.816  11.856 -0.0449 -0.0512 -0.1213
  189loPI   GL1 3013  16.743  10.605  11.467 -0.1983  0.3556  0.2235
  189loPI   GL2 3014  16.978  10.606  11.270  0.2424 -0.1737 -0.3171
  189loPI   C1A 3015  16.661  10.893  11.122 -0.1218 -0.1553  0.1231
  189loPI   C2A 3016  16.792  11.077  10.683 -0.3541 -0.1217  0.1941
  189loPI   C3A 3017  16.667  11.055  10.325  0.3430 -0.1090 -0.1535
  189loPI   C4A 3018  16.730  11.160   9.868  0.0108 -0.0396  0.1698
  189loPI   C5A 3019  16.849  11.147   9.499 -0.3318 -0.2141 -0.2985
  189loPI   C6A 3020  17.188  10.993   9.198  0.2283  0.0625 -0.0813
  189loPI   C1B 3021  16.893  10.586  10.837 -0.1107  0.1558  0.4905
  189loPI   C2B 3022  16.900  10.673  10.477  0.1747 -0.1070 -0.0737
  189loPI   C3B 3023  16.958  10.676   9.934 -0.1643 -0.1629  0.1020
  189loPI   C4B 3024  16.920  10.638   9.550  0.3747 -0.0992 -0.2897
  190loPI    C1 3025  13.393  15.035  11.842  0.0915  0.0538 -0.0863
  190loPI    C2 3026  13.149  14.730  11.757 -0.0909  0.1319  0.1452
  190loPI    C3 3027  13.211  14.836  12.138  0.1027  0.2785  0.0743
  190loPI   PO4 3028  13.283  15.199  11.606 -0.1725 -0.2129 -0.3863
  190loPI   GL1 3029  13.426  15.380  11.233  0.0540 -0.1222  0.1275
  190loPI   GL2 3030  13.543  15.165  11.050  0.0560  0.1114  0.3287
  190loPI   C1A 3031  13.206  15.622  10.845 -0.3745  0.2642 -0.0788
  190loPI   C2A 3032  13.238  15.714  10.360  0.1162 -0.0225  0.0357
  190loPI   C3A 3033  13.259  15.685   9.928  0.1832  0.5064 -0.1619
  190loPI   C4A 3034  13.240  15.511   9.586 -0.0981  0.3940 -0.0329
  190loPI   C5A 3035  12.905  15.286   9.342 -0.2497 -0.2883  0.0222
  190loPI   C6A 3036  12.716  15.435   8.975  0.0086  0.1517  0.0138
  190loPI   C1B 3037  13.392  15.194  10.603 -0.0205 -0.2494  0.2214
  190loPI   C2B 3038  13.559  15.137  10.224  0.1197 -0.1373  0.0847
  190loPI   C3B 3039  13.570  15.128   9.814 -0.1379 -0.1344 -0.1049
  190loPI   C4B 3040  13.492  15.109   9.446 -0.3288 -0.2663 -0.0692
  191loPI    C1 3041   3.317  12.869  11.709  0.0121  0.1470  0.0558
  191loPI    C2 3042   3.050  13.110  11.883  0.0210  0.1436  0.0742
  191loPI    C3 3043   3.393  13.023  12.069 -0.1670 -0.2276  0.2604
  191loPI   PO4 3044   3.303  12.922  11.456 -0.0508  0.2172  0.1141
  191loPI   GL1 3045   3.438  12.878  11.106  0.1716  0.2202  0.0893
  191loPI   GL2 3046   3.111  12.897  11.013  0.0821 -0.2386  0.1611
  191loPI   C1A 3047   3.557  12.948  10.696 -0.1678  0.2526  0.1156
  191loPI   C2A 3048   3.479  13.033  10.366  0.0917  0.0118 -0.1305
  191loPI   C3A 3049   3.471  12.903   9.911 -0.0139 -0.0655 -0.0177
  191loPI   C4A 3050   3.481  12.978   9.460 -0.2096 -0.0592 -0.0373
  191loPI   C5A 3051   3.288  12.875   9.155 -0.3302 -0.1151 -0.0764
  191loPI   C6A 3052   3.046  12.969   8.761  0.0149 -0.1076 -0.1163
  191loPI   C1B 3053   2.991  13.004  10.588 -0.0774 -0.0540 -0.0061
  191loPI   C2B 3054   2.992  12.959  10.096  0.0317 -0.0388 -0.2823
  191loPI   C3B 3055   3.014  13.033   9.621  0.1346  0.5762 -0.0241
  191loPI   C4B 3056   2.815  12.952   9.236 -0.3155  0.0225 -0.1601
  192loPI    C1 3057   3.451  11.235  11.887  0.0286  0.0612  0.1449
  192loPI    C2 3058   3.230  11.342  12.203 -0.0422 -0.2134  0.1908
  192loPI    C3 3059   3.426  10.994  12.205  0.0292 -0.1761 -0.0330
  192loPI   PO4 3060   3.306  11.385  11.706 -0.0420 -0.1729 -0.4361
  192loPI   GL1 3061   3.043  11.302  11.355  0.3864  0.2036 -0.0623
  192loPI   GL2 3062   3.190  11.549  11.276  0.0560 -0.1998 -0.0016
  192loPI   C1A 3063   2.802  11.120  10.875 -0.1520 -0.2894 -0.2083
  192loPI   C2A 3064   2.685  11.138  10.422 -0.0113  0.1562 -0.2456
  192loPI   C3A 3065   2.748  11.151  10.020  0.1793  0.1307  0.0618
  192loPI   C4A 3066   2.757  11.177   9.644  0.1118  0.1719 -0.0542
  192loPI   C5A 3067   2.939  11.243   9.230 -0.2940 -0.2049  0.2542
  192loPI   C6A 3068   2.785  11.599   9.001  0.2962  0.0878 -0.0318
  192loPI   C1B 3069   3.157  11.626  10.805  0.1331  0.1525  0.2900
  192loPI   C2B 3070   3.112  11.655  10.427  0.1658 -0.0597  0.1491
  192loPI   C3B 3071   3.082  11.502  10.023 -0.3191  0.0796  0.1118
  192loPI   C4B 3072   3.021  11.611   9.588 -0.0022  0.4483 -0.4523
  193loPI    C1 3073  14.447  17.114  12.098 -0.1172  0.0970  0.0669
  193loPI    C2 3074  14.183  16.848  12.240  0.0472 -0.1589 -0.0996
  193loPI    C3 3075  14.571  16.752  12.217  0.0883  0.0454 -0.2906
  193loPI   PO4 3076  14.435  17.258  11.758  0.1577  0.1381 -0.4383
  193loPI   GL1 3077  14.279  17.129  11.413  0.0418  0.3461  0.2095
  193loPI   GL2 3078  14.531  16.885  11.331 -0.0325 -0.2050  0.1017
  193loPI   C1A 3079  14.451  17.182  10.955  0.4043 -0.0171  0.3808
  193loPI   C2A 3080  14.500  17.193  10.550  0.0202 -0.2340  0.4138
  193loPI   C3A 3081  14.472  17.234  10.139  0.1882 -0.0991 -0.0612
  193loPI   C4A 3082  14.550  17.165   9.754  0.0721  0.2719 -0.0694
  193loPI   C5A 3083  14.522  17.332   9.352 -0.1434 -0.0302  0.1732
  193loPI   C6A 3084  14.334  17.419   8.958 -0.1905 -0.2363 -0.1227
  193loPI   C1B 3085  14.639  16.761  10.835  0.3699  0.1770 -0.0938
  193loPI   C2B 3086  14.725  16.706  10.492  0.0037 -0.0732 -0.3684
  193loPI   C3B 3087  14.735  16.763  10.142  0.1272  0.1753  0.2244
  193loPI   C4B 3088  14.726  16.679   9.696 -0.3533 -0.0236  0.0436
  194loPI    C1 3089  10.682  10.142  11.657 -0.0531 -0.0468 -0.1542
  194loPI    C2 3090  10.330  10.018  11.801 -0.0213 -0.0898 -0.1134
  194loPI    C3 3091  10.556  10.268  12.016 -0.0919  0.0515 -0.2020
  194loPI   PO4 3092  10.588  10.187  11.418 -0.0939 -0.1469 -0.1556
  194loPI   GL1 3093  10.762   9.987  10.955  0.1086 -0.1483 -0.2054
  194loPI   GL2 3094  11.086   9.999  11.042  0.1112 -0.1767 -0.1385
  194loPI   C1A 3095  10.836   9.873  10.588  0.0513  0.1411 -0.0034
  194loPI   C2A 3096  10.850   9.872  10.094  0.3436  0.2608 -0.1343
  194loPI   C3A 3097  10.812   9.943   9.703  0.0084  0.2560 -0.0585
  194loPI   C4A 3098  10.669   9.930   9.362  0.1031  0.0621 -0.3048
  194loPI   C5A 3099  10.446   9.522   9.153 -0.2310 -0.1485 -0.1163
  194loPI   C6A 3100  10.642   9.187   9.210  0.0673  0.0968 -0.0812
  194loPI   C1B 3101  11.335   9.814  10.701 -0.0598 -0.0309 -0.1433
  194loPI   C2B 3102  11.305   9.781  10.286  0.1225  0.1532  0.0891
  194loPI   C3B 3103  11.305   9.822   9.840 -0.3059  0.1010  0.0594
  194loPI   C4B 3104  11.437   9.951   9.415  0.3602  0.2212  0.0035
  195loPI    C1 3105   9.922   8.408  11.507  0.0889  0.0626 -0.1135
  195loPI    C2 3106  10.297   8.347  11.383  0.0339 -0.1411 -0.1842
  195loPI    C3 3107  10.217   8.374  11.774  0.1126 -0.1613 -0.1666
  195loPI   PO4 3108   9.788   8.458  11.250  0.3918 -0.0918  0.1949
  195loPI   GL1 3109   9.536   8.415  10.856 -0.0362  0.1664  0.0884
  195loPI   GL2 3110   9.252   8.423  10.810  0.0297 -0.1531 -0.2387
  195loPI   C1A 3111   9.614   8.339  10.482 -0.1772  0.2324  0.1078
  195loPI   C2A 3112   9.572   8.340  10.082  0.0135  0.0914 -0.4540
  195loPI   C3A 3113   9.637   8.245   9.719 -0.2687 -0.0295 -0.0491
  195loPI   C4A 3114   9.575   8.285   9.352 -0.2563 -0.0951 -0.1278
  195loPI   C5A 3115   9.478   8.481   8.986  0.0996 -0.2191 -0.1975
  195loPI   C6A 3116   9.622   8.697   8.720  0.0113 -0.2845 -0.0717
  195loPI   C1B 3117   9.136   8.415  10.452  0.0303 -0.0230 -0.1752
  195loPI   C2B 3118   9.066   8.305  10.047 -0.1226  0.1155 -0.0169
  195loPI   C3B 3119   9.162   8.181   9.687  0.1964  0.2084  0.0921
  195loPI   C4B 3120   9.081   8.304   9.325 -0.0165  0.1045  0.1013
  196loPI    C1 3121   4.341  16.004  11.948 -0.0411 -0.1979  0.1028
  196loPI    C2 3122   4.533  16.190  12.245  0.1480 -0.1097 -0.0722
  196loPI    C3 3123   4.171  16.031  12.309  0.0203  0.2408  0.1038
  196loPI   PO4 3124   4.338  16.149  11.782  0.0661  0.1660 -0.0585
  196loPI   GL1 3125   4.407  16.017  11.289 -0.1082  0.1856 -0.0525
  196loPI   GL2 3126   4.256  15.761  11.153  0.0077  0.2885  0.0246
  196loPI   C1A 3127   4.557  16.122  10.881  0.1549  0.1247 -0.1959
  196loPI   C2A 3128   4.563  16.054  10.521 -0.1505  0.0899  0.1516
  196loPI   C3A 3129   4.610  16.059  10.106  0.0661 -0.2312  0.1762
  196loPI   C4A 3130   4.541  16.069   9.683 -0.1883 -0.1239 -0.2550
  196loPI   C5A 3131   4.553  16.013   9.224 -0.0381 -0.3211  0.0599
  196loPI   C6A 3132   4.640  16.037   8.818  0.0228  0.1159 -0.3289
  196loPI   C1B 3133   4.257  15.658  10.713  0.3480 -0.3627 -0.0134
  196loPI   C2B 3134   4.368  15.667  10.310  0.1088 -0.0322  0.4021
  196loPI   C3B 3135   4.301  15.642   9.913  0.2011  0.1047 -0.0080
  196loPI   C4B 3136   4.283  15.649   9.482 -0.2583 -0.0921 -0.0190
  197loPI    C1 3137  15.393   9.483  11.672  0.0369  0.0409 -0.0581
  197loPI    C2 3138  15.386   9.110  11.528 -0.0601  0.0078  0.0310
  197loPI    C3 3139  15.432   9.173  11.920 -0.1431  0.0862  0.0285
  197loPI   PO4 3140  15.363   9.654  11.437  0.1844 -0.2403 -0.2703
  197loPI   GL1 3141  15.293   9.562  11.029  0.3801 -0.3354  0.1719
  197loPI   GL2 3142  15.380   9.351  10.937 -0.0122  0.1248 -0.0748
  197loPI   C1A 3143  15.281   9.838  10.719 -0.0683  0.0371  0.0909
  197loPI   C2A 3144  15.348   9.930  10.264 -0.0687 -0.0528 -0.0738
  197loPI   C3A 3145  15.325   9.985   9.791 -0.0715 -0.4305 -0.2083
  197loPI   C4A 3146  15.341   9.997   9.363 -0.1286 -0.1185  0.0435
  197loPI   C5A 3147  15.752   9.761   9.139  0.1574 -0.1434  0.2695
  197loPI   C6A 3148  15.852   9.715   8.715  0.0338 -0.1339 -0.2639
  197loPI   C1B 3149  15.561   9.469  10.588 -0.0174  0.3375 -0.1579
  197loPI   C2B 3150  15.586   9.455  10.155  0.1002  0.2492  0.2289
  197loPI   C3B 3151  15.560   9.514   9.703 -0.1626  0.1011 -0.1600
  197loPI   C4B 3152  15.449   9.377   9.290 -0.2813  0.1754 -0.0173
  198loPI    C1 3153   0.074  14.739  11.900 -0.3000 -0.0780  0.1040
  198loPI    C2 3154  -0.193  14.459  12.002  0.0107 -0.3042  0.3108
  198loPI    C3 3155   0.049  14.615  12.279  0.0833 -0.0885  0.1289
  198loPI   PO4 3156   0.233  14.670  11.710  0.0811  0.0262 -0.0471
  198loPI   GL1 3157   0.568  14.628  11.440 -0.1315  0.1671  0.1178
  198loPI   GL2 3158   0.775  14.443  11.246 -0.0131 -0.0822  0.0635
  198loPI   C1A 3159   0.570  14.848  11.075 -0.3761 -0.2438  0.3110
  198loPI   C2A 3160   0.574  14.967  10.701  0.2721  0.1206  0.1764
  198loPI   C3A 3161   0.566  14.989  10.271  0.1719 -0.1883 -0.0709
  198loPI   C4A 3162   0.529  15.032   9.878 -0.2167 -0.2919  0.2257
  198loPI   C5A 3163   0.348  14.964   9.402 -0.0539  0.1466  0.0051
  198loPI   C6A 3164   0.291  14.575   9.192 -0.0169 -0.0497  0.1376
  198loPI   C1B 3165   0.846  14.415  10.845 -0.0489 -0.1617  0.0462
  198loPI   C2B 3166   0.889  14.540  10.449  0.2592  0.0625 -0.0517
  198loPI   C3B 3167   0.757  14.590   9.903  0.2655 -0.5540  0.1744
  198loPI   C4B 3168   0.729  14.657   9.451 -0.1239 -0.0375 -0.0148
  199loPI    C1 3169   5.277   5.181  11.218 -0.1149  0.2948 -0.2007
  199loPI    C2 3170   5.431   5.159  11.586 -0.1825 -0.1707 -0.1933
  199loPI    C3 3171   5.646   5.317  11.288  0.0945 -0.3072 -0.0699
  199loPI   PO4 3172   5.107   4.880  11.160 -0.3314 -0.1046 -0.1688
  199loPI   GL1 3173   5.119   4.573  10.790  0.0630 -0.2727  0.2313
  199loPI   GL2 3174   5.275   4.483  10.645  0.3713  0.3341  0.0119
  199loPI   C1A 3175   4.764   4.531  10.607 -0.0385  0.1610 -0.0474
  199loPI   C2A 3176   4.617   4.593  10.210 -0.2240 -0.0711  0.0282
  199loPI   C3A 3177   4.831   4.627   9.874  0.2238  0.0353  0.1887
  199loPI   C4A 3178   4.820   4.593   9.420 -0.0391 -0.1627 -0.0542
  199loPI   C5A 3179   4.856   4.427   9.059 -0.3441 -0.2181  0.1754
  199loPI   C6A 3180   4.727   4.297   8.633 -0.1025 -0.2432  0.3011
  199loPI   C1B 3181   5.306   4.616  10.221  0.1887  0.2672  0.0397
  199loPI   C2B 3182   5.327   4.544   9.899 -0.1210  0.0544  0.0473
  199loPI   C3B 3183   5.343   4.545   9.542  0.0847  0.4385  0.1197
  199loPI   C4B 3184   5.390   4.468   9.213  0.2221  0.0898  0.0194
  200loPI    C1 3185  10.774  13.090  11.636  0.1358  0.0732  0.0043
  200loPI    C2 3186  10.983  12.826  11.852 -0.0671  0.0024  0.1177
  200loPI    C3 3187  10.590  12.868  11.914 -0.0895  0.1278 -0.0983
  200loPI   PO4 3188  10.815  13.063  11.435 -0.4284  0.0692 -0.1669
  200loPI   GL1 3189  11.019  12.976  11.112 -0.3380  0.0202 -0.3233
  200loPI   GL2 3190  11.081  12.730  10.986  0.0645  0.0626 -0.3700
  200loPI   C1A 3191  10.733  12.768  10.714 -0.0751 -0.2505  0.1455
  200loPI   C2A 3192  10.633  12.671  10.298  0.0360 -0.0492  0.2846
  200loPI   C3A 3193  10.598  12.781   9.933 -0.1076 -0.0894 -0.4789
  200loPI   C4A 3194  10.573  12.683   9.482 -0.0050  0.2844 -0.0498
  200loPI   C5A 3195  10.674  12.598   9.076 -0.0189 -0.1158  0.0558
  200loPI   C6A 3196  10.573  12.230   8.621 -0.0820 -0.1117  0.0476
  200loPI   C1B 3197  11.156  12.749  10.436 -0.2463  0.1117  0.0305
  200loPI   C2B 3198  11.111  12.596  10.043  0.0426 -0.1047  0.1894
  200loPI   C3B 3199  11.048  12.759   9.642 -0.0255 -0.0948 -0.4127
  200loPI   C4B 3200  11.172  12.702   9.241  0.1664 -0.1705 -0.1774
  201loPI    C1 3201   1.661   6.251  11.568  0.0251 -0.0975  0.0775
  201loPI    C2 3202   1.280   6.222  11.685 -0.0152  0.0928 -0.0018
  201loPI    C3 3203   1.524   6.484  11.863  0.0851 -0.0422  0.0619
  201loPI   PO4 3204   1.646   6.322  11.271 -0.0321 -0.0795 -0.2200
  201loPI   GL1 3205   1.628   6.311  10.934  0.0045  0.1668 -0.1382
  201loPI   GL2 3206   1.324   6.211  10.732 -0.0873 -0.1606  0.0152
  201loPI   C1A 3207   1.832   6.247  10.588  0.3753  0.0810 -0.2222
  201loPI   C2A 3208   1.974   6.248  10.158 -0.1938  0.1451  0.2275
  201loPI   C3A 3209   1.987   6.285   9.797 -0.1325  0.2020 -0.0838
  201loPI   C4A 3210   1.971   6.292   9.331  0.0135  0.0655 -0.0777
  201loPI   C5A 3211   1.909   6.333   9.009  0.0752 -0.0279  0.0642
  201loPI   C6A 3212   1.840   6.478   8.653 -0.1097  0.0160 -0.2323
  201loPI   C1B 3213   1.387   6.343  10.330 -0.1324  0.2099 -0.2065
  201loPI   C2B 3214   1.449   6.398   9.966  0.2408 -0.1031  0.4427
  201loPI   C3B 3215   1.466   6.326   9.477 -0.3075 -0.3149 -0.1423
  201loPI   C4B 3216   1.339   6.359   9.001 -0.0738 -0.1869  0.2333
  202loPI    C1 3217  15.689  14.517  11.910 -0.0716 -0.0384 -0.1321
  202loPI    C2 3218  15.377  14.462  12.154  0.0880  0.1941  0.1306
  202loPI    C3 3219  15.680  14.202  12.156 -0.1207 -0.0601 -0.1615
  202loPI   PO4 3220  15.664  14.556  11.722  0.2936  0.0554 -0.1796
  202loPI   GL1 3221  15.566  14.732  11.254 -0.0966 -0.0557  0.4808
  202loPI   GL2 3222  15.421  14.419  11.304  0.1369 -0.3492  0.0294
  202loPI   C1A 3223  15.406  14.776  10.911  0.4564  0.0284  0.0809
  202loPI   C2A 3224  15.443  14.915  10.550  0.0124  0.0234 -0.0920
  202loPI   C3A 3225  15.545  14.810  10.138  0.2945  0.0258  0.3620
  202loPI   C4A 3226  15.509  14.832   9.651  0.1677 -0.1913 -0.0540
  202loPI   C5A 3227  15.487  14.784   9.278  0.0389  0.0065 -0.0785
  202loPI   C6A 3228  15.204  14.686   8.974 -0.1077 -0.0453  0.2647
  202loPI   C1B 3229  15.310  14.293  10.874  0.1609  0.0194  0.0861
  202loPI   C2B 3230  15.164  14.470  10.551 -0.2200 -0.3784  0.0909
  202loPI   C3B 3231  15.231  14.387  10.057  0.2401  0.0191 -0.0353
  202loPI   C4B 3232  15.229  14.444   9.647  0.0351 -0.1790 -0.0580
  203loPI    C1 3233  11.981  15.929  11.845  0.4213 -0.0533  0.0919
  203loPI    C2 3234  11.877  15.885  12.229  0.0020  0.0415 -0.0061
  203loPI    C3 3235  11.966  15.564  12.007 -0.3296 -0.0712  0.0177
  203loPI   PO4 3236  11.692  16.037  11.689 -0.3627 -0.1547  0.0991
  203loPI   GL1 3237  11.596  16.147  11.311  0.0816 -0.0454  0.3065
  203loPI   GL2 3238  11.772  16.020  11.106  0.2042  0.0525 -0.0758
  203loPI   C1A 3239  11.454  16.360  10.914 -0.1134 -0.1438  0.3214
  203loPI   C2A 3240  11.469  16.374  10.532 -0.2332 -0.2643 -0.0062
  203loPI   C3A 3241  11.326  16.213  10.122  0.0106 -0.0489  0.0963
  203loPI   C4A 3242  11.483  16.330   9.688 -0.0652  0.1707 -0.2356
  203loPI   C5A 3243  11.413  16.369   9.229 -0.0106 -0.1117  0.4423
  203loPI   C6A 3244  11.213  16.100   9.052 -0.0806 -0.0459 -0.0252
  203loPI   C1B 3245  11.671  15.946  10.739  0.1328 -0.1602  0.0639
  203loPI   C2B 3246  11.617  15.839  10.313 -0.2418 -0.0914  0.2577
  203loPI   C3B 3247  11.645  15.792   9.866  0.1574  0.0648  0.2845
  203loPI   C4B 3248  11.543  15.877   9.417  0.5317  0.0778 -0.1849
  204loPI    C1 3249  17.165   7.216  11.572  0.1216 -0.1121 -0.1615
  204loPI    C2 3250  17.004   6.850  11.564 -0.2153  0.0305 -0.0542
  204loPI    C3 3251  16.912   7.103  11.861  0.0334  0.1950 -0.1147
  204loPI   PO4 3252  17.140   7.367  11.318 -0.0857 -0.1417  0.0447
  204loPI   GL1 3253  17.279   7.334  10.955 -0.0763  0.0468 -0.0411
  204loPI   GL2 3254  17.687   7.338  10.940  0.2276  0.3959 -0.1377
  204loPI   C1A 3255  17.373   7.401  10.472  0.0095 -0.0594 -0.0902
  204loPI   C2A 3256  17.426   7.394  10.048 -0.1026  0.0632 -0.1176
  204loPI   C3A 3257  17.262   7.376   9.627  0.0118 -0.2512 -0.2889
  204loPI   C4A 3258  17.243   7.477   9.309  0.3051  0.2707 -0.0521
  204loPI   C5A 3259  17.431   7.491   8.912 -0.1376  0.0340 -0.1947
  204loPI   C6A 3260  17.818   7.444   8.928  0.2987  0.2228 -0.0658
  204loPI   C1B 3261  17.875   7.320  10.650 -0.0342 -0.1032 -0.1874
  204loPI   C2B 3262  17.929   7.376  10.202 -0.0333  0.0285 -0.1273
  204loPI   C3B 3263  17.903   7.395   9.805 -0.4152 -0.0470  0.3616
  204loPI   C4B 3264  17.737   7.423   9.417 -0.0720 -0.0277  0.0431
  205loPI    C1 3265  12.411  12.464  11.636  0.1284  0.0689  0.1560
  205loPI    C2 3266  12.666  12.538  11.935 -0.0586  0.1187  0.3051
  205loPI    C3 3267  12.374  12.270  11.984  0.0174 -0.0028  0.1047
  205loPI   PO4 3268  12.461  12.460  11.412 -0.0802  0.1434  0.2302
  205loPI   GL1 3269  12.286  12.414  11.103  0.1692 -0.1254 -0.1322
  205loPI   GL2 3270  12.172  12.720  10.975 -0.1015 -0.2849  0.0785
  205loPI   C1A 3271  12.288  12.117  10.787  0.1374 -0.1049  0.0553
  205loPI   C2A 3272  12.493  12.040  10.378  0.0235  0.2572 -0.1534
  205loPI   C3A 3273  12.282  12.097   9.983 -0.1148  0.0673 -0.0553
  205loPI   C4A 3274  12.400  12.069   9.576 -0.0751 -0.1125 -0.2100
  205loPI   C5A 3275  12.297  12.257   9.208  0.1610 -0.2159 -0.2569
  205loPI   C6A 3276  12.397  12.563   8.856 -0.1703 -0.1641 -0.0971
  205loPI   C1B 3277  12.148  12.530  10.566  0.0083 -0.0191  0.0459
  205loPI   C2B 3278  12.109  12.523  10.144 -0.0588  0.3216 -0.0107
  205loPI   C3B 3279  12.123  12.642   9.700  0.2445  0.0877  0.0204
  205loPI   C4B 3280  12.047  12.695   9.212  0.0429  0.3866 -0.2281
  206loPI    C1 3281   6.657   2.065  11.366 -0.0548 -0.0346 -0.1159
  206loPI    C2 3282   6.766   1.856  11.689 -0.0943 -0.0790 -0.1312
  206loPI    C3 3283   6.527   2.174  11.729 -0.0927 -0.0798 -0.1158
  206loPI   PO4 3284   6.552   1.912  11.211 -0.2010  0.0309  0.1603
  206loPI   GL1 3285   6.383   1.669  10.974  0.1317  0.1606  0.3138
  206loPI   GL2 3286   5.980   1.671  10.818 -0.1314 -0.0807 -0.2744
  206loPI   C1A 3287   6.659   1.580  10.564 -0.2339 -0.1683 -0.1118
  206loPI   C2A 3288   6.807   1.677  10.072  0.0063  0.0571 -0.2193
  206loPI   C3A 3289   6.751   1.669   9.641  0.0910  0.0444 -0.0941
  206loPI   C4A 3290   6.742   1.592   9.228 -0.2745  0.0892  0.0241
  206loPI   C5A 3291   6.851   1.814   8.859  0.0700 -0.3698  0.1229
  206loPI   C6A 3292   6.588   2.205   8.825  0.1346  0.0434 -0.0365
  206loPI   C1B 3293   6.059   1.664  10.320 -0.3307  0.1728  0.0874
  206loPI   C2B 3294   6.279   1.652   9.882 -0.1669  0.1084  0.0895
  206loPI   C3B 3295   6.205   1.722   9.497  0.2288 -0.0801  0.0543
  206loPI   C4B 3296   6.334   1.758   9.015 -0.2541  0.0542  0.0032
  207loPI    C1 3297  16.476   1.192  11.637  0.2704 -0.1798  0.0900
  207loPI    C2 3298  16.459   1.584  11.713  0.1185 -0.1622 -0.0286
  207loPI    C3 3299  16.493   1.323  12.014  0.2778 -0.0561  0.0473
  207loPI   PO4 3300  16.704   1.112  11.414  0.0987  0.1008 -0.1033
  207loPI   GL1 3301  16.479   1.002  11.095  0.1167 -0.0105  0.0689
  207loPI   GL2 3302  16.588   0.680  10.942  0.0372  0.3230  0.2101
  207loPI   C1A 3303  16.366   1.114  10.687 -0.0296  0.1128  0.3442
  207loPI   C2A 3304  16.448   0.946  10.363 -0.0257  0.1414  0.0487
  207loPI   C3A 3305  16.428   0.999   9.963 -0.2040 -0.0217 -0.0881
  207loPI   C4A 3306  16.486   1.073   9.493  0.0576 -0.0044 -0.1607
  207loPI   C5A 3307  16.739   1.195   9.176  0.0803  0.2401 -0.2782
  207loPI   C6A 3308  17.052   0.889   9.067 -0.2870  0.0421 -0.1695
  207loPI   C1B 3309  16.542   0.471  10.574 -0.1417  0.0906 -0.0166
  207loPI   C2B 3310  16.609   0.487  10.121  0.0385  0.1274 -0.1418
  207loPI   C3B 3311  16.658   0.498   9.634  0.1974  0.0846 -0.1539
  207loPI   C4B 3312  16.521   0.503   9.149 -0.1930  0.0260  0.0755
  208loPI    C1 3313  13.207  12.214  11.472 -0.0221  0.0448 -0.1521
  208loPI    C2 3314  13.172  12.297  11.862  0.1127 -0.2847 -0.0658
  208loPI    C3 3315  12.856  12.161  11.656  0.0648 -0.1964 -0.0513
  208loPI   PO4 3316  13.301  12.457  11.374 -0.0493 -0.0611  0.3880
  208loPI   GL1 3317  13.294  12.930  11.105  0.0997 -0.0686 -0.0896
  208loPI   GL2 3318  13.459  12.727  10.914 -0.1363  0.2524 -0.1043
  208loPI   C1A 3319  12.992  12.981  10.766  0.0928  0.0397  0.0574
  208loPI   C2A 3320  13.045  12.927  10.357 -0.3286  0.0561 -0.0404
  208loPI   C3A 3321  12.967  12.908   9.800  0.0028 -0.1035  0.0536
  208loPI   C4A 3322  13.050  12.967   9.328 -0.0754  0.1522 -0.0017
  208loPI   C5A 3323  12.879  12.900   8.946  0.1033 -0.0277 -0.0412
  208loPI   C6A 3324  12.542  13.070   8.665 -0.1484 -0.0026  0.2647
  208loPI   C1B 3325  13.484  12.963  10.506  0.2377  0.0588 -0.5593
  208loPI   C2B 3326  13.524  12.894  10.002  0.0353 -0.2131  0.0438
  208loPI   C3B 3327  13.594  12.984   9.501 -0.0750 -0.0089 -0.1091
  208loPI   C4B 3328  13.483  13.108   9.046 -0.0025 -0.1433 -0.1802
  209loPI    C1 3329  14.200   7.308  11.680  0.1511 -0.1517 -0.0384
  209loPI    C2 3330  14.086   7.132  12.021  0.0055 -0.1757 -0.0989
  209loPI    C3 3331  14.441   7.316  12.000 -0.0600 -0.0204  0.1195
  209loPI   PO4 3332  14.142   7.257  11.508  0.0335  0.0265  0.0052
  209loPI   GL1 3333  14.053   7.498  11.217  0.0750  0.3112 -0.0630
  209loPI   GL2 3334  14.419   7.621  11.273  0.0819  0.3510 -0.2829
  209loPI   C1A 3335  14.146   7.690  10.835 -0.2878 -0.0144  0.0093
  209loPI   C2A 3336  14.167   7.781  10.426  0.1978 -0.1237 -0.0602
  209loPI   C3A 3337  14.162   7.815   9.943 -0.1207  0.1137 -0.2456
  209loPI   C4A 3338  14.148   7.834   9.455  0.2301 -0.1657 -0.1519
  209loPI   C5A 3339  14.180   7.751   8.998 -0.2624  0.1861  0.3280
  209loPI   C6A 3340  14.380   7.592   8.588 -0.1246 -0.1493  0.1522
  209loPI   C1B 3341  14.652   7.593  10.837 -0.1669 -0.1948 -0.1104
  209loPI   C2B 3342  14.652   7.674  10.410  0.3701  0.1009 -0.2690
  209loPI   C3B 3343  14.699   7.699   9.926 -0.2462 -0.1905  0.1735
  209loPI   C4B 3344  14.671   7.703   9.584  0.0840  0.0623  0.1436
  210loPI    C1 3345  14.998   7.783  11.784 -0.0902 -0.0379 -0.1203
  210loPI    C2 3346  15.307   7.548  11.685 -0.0364 -0.0938  0.1735
  210loPI    C3 3347  15.247   7.650  12.067 -0.2459  0.1102  0.0885
  210loPI   PO4 3348  14.969   7.945  11.502  0.3189  0.3216 -0.1565
  210loPI   GL1 3349  14.994   8.138  11.149 -0.1315  0.0849 -0.1475
  210loPI   GL2 3350  15.273   8.396  11.218 -0.1271 -0.2423  0.1156
  210loPI   C1A 3351  14.954   7.986  10.796  0.2841 -0.1983  0.0006
  210loPI   C2A 3352  15.021   8.082  10.367 -0.0436 -0.0492 -0.0345
  210loPI   C3A 3353  14.995   8.110   9.894  0.2467  0.3230 -0.1028
  210loPI   C4A 3354  15.048   8.089   9.490 -0.4219 -0.2373 -0.0185
  210loPI   C5A 3355  15.074   8.133   8.947  0.1437 -0.1502  0.1343
  210loPI   C6A 3356  15.112   8.212   8.536 -0.0664 -0.0231 -0.1412
  210loPI   C1B 3357  15.235   8.438  10.772 -0.1851 -0.0030  0.3702
  210loPI   C2B 3358  15.332   8.473  10.238 -0.0537 -0.0146 -0.3979
  210loPI   C3B 3359  15.326   8.500   9.866 -0.2321  0.2112  0.2429
  210loPI   C4B 3360  15.334   8.485   9.361 -0.0362  0.2300 -0.0717
  211loPI    C1 3361   9.585   0.185  11.709  0.0877  0.0892 -0.0424
  211loPI    C2 3362   9.635   0.550  11.866 -0.1182  0.0622  0.0904
  211loPI    C3 3363   9.326   0.324  11.981 -0.0387 -0.1220 -0.0530
  211loPI   PO4 3364   9.601   0.218  11.419 -0.3199 -0.0363 -0.0059
  211loPI   GL1 3365   9.811   0.297  10.941 -0.2297 -0.0059 -0.4010
  211loPI   GL2 3366   9.550   0.455  10.929 -0.1047 -0.1411  0.0596
  211loPI   C1A 3367   9.929   0.154  10.514 -0.1049  0.0914  0.3377
  211loPI   C2A 3368  10.000   0.085  10.104 -0.0860  0.1285  0.2029
  211loPI   C3A 3369   9.932   0.037   9.630  0.2003  0.0312 -0.0618
  211loPI   C4A 3370   9.846  -0.156   9.291 -0.1166  0.0457  0.2078
  211loPI   C5A 3371   9.593  -0.400   9.047 -0.0918  0.2206  0.1178
  211loPI   C6A 3372   9.212  -0.451   8.767 -0.1041 -0.1043 -0.1474
  211loPI   C1B 3373   9.757   0.648  10.587 -0.3760  0.1259 -0.1087
  211loPI   C2B 3374   9.751   0.558  10.232 -0.0798  0.0497 -0.1607
  211loPI   C3B 3375   9.799   0.532   9.839  0.0141  0.0605  0.1683
  211loPI   C4B 3376   9.701   0.447   9.419  0.2159  0.0345  0.1618
  212loPI    C1 3377   1.926   8.944  11.931 -0.0626 -0.0269 -0.2493
  212loPI    C2 3378   2.064   9.306  12.029 -0.0312 -0.0832 -0.0821
  212loPI    C3 3379   1.890   9.077  12.306 -0.3149 -0.0795 -0.2532
  212loPI   PO4 3380   1.927   9.004  11.600  0.2842 -0.0406  0.1172
  212loPI   GL1 3381   1.795   8.925  11.275  0.0648  0.2339  0.0053
  212loPI   GL2 3382   1.949   8.610  11.105  0.1041 -0.0547 -0.2261
  212loPI   C1A 3383   1.770   9.040  10.839 -0.0708  0.0402 -0.1473
  212loPI   C2A 3384   1.835   9.072  10.430  0.0833  0.0620 -0.1341
  212loPI   C3A 3385   1.832   9.012   9.970  0.0852  0.0400 -0.3023
  212loPI   C4A 3386   1.688   9.097   9.553 -0.1238  0.4799 -0.2630
  212loPI   C5A 3387   1.645   9.112   9.187 -0.2404  0.1173 -0.2588
  212loPI   C6A 3388   1.505   8.896   8.803 -0.0415 -0.2956  0.2588
  212loPI   C1B 3389   2.025   8.603  10.705  0.3776  0.1895 -0.2282
  212loPI   C2B 3390   1.977   8.571  10.265 -0.0836 -0.0429 -0.1106
  212loPI   C3B 3391   1.964   8.549   9.783  0.1315 -0.2955 -0.2354
  212loPI   C4B 3392   1.803   8.618   9.368  0.0972  0.2001 -0.0974
  213loPI    C1 3393  14.867   0.169  11.922 -0.0241  0.0583  0.2161
  213loPI    C2 3394  14.593   0.348  12.151 -0.0927 -0.1050  0.2634
  213loPI    C3 3395  14.944   0.239  12.308  0.1263  0.3793  0.1313
  213loPI   PO4 3396  14.940   0.311  11.688  0.3066 -0.2329  0.2980
  213loPI   GL1 3397  14.890   0.329  11.309 -0.0752  0.2065  0.1616
  213loPI   GL2 3398  14.676   0.043  11.307 -0.2263  0.2131  0.1759
  213loPI   C1A 3399  14.807   0.323  10.850 -0.1646  0.1679  0.0565
  213loPI   C2A 3400  14.743   0.252  10.330 -0.2689  0.0806 -0.2500
  213loPI   C3A 3401  14.885   0.230   9.874 -0.0143 -0.0515  0.0268
  213loPI   C4A 3402  14.703   0.400   9.519 -0.1708  0.1645  0.3558
  213loPI   C5A 3403  14.452   0.498   9.221 -0.1269  0.0611  0.0287
  213loPI   C6A 3404  14.447   0.601   8.786 -0.1655  0.0559  0.0195
  213loPI   C1B 3405  14.304   0.360  11.026 -0.1147  0.1947 -0.0361
  213loPI   C2B 3406  14.312   0.403  10.591  0.1105  0.0062 -0.1994
  213loPI   C3B 3407  14.231   0.412  10.191 -0.1269  0.2058 -0.1254
  213loPI   C4B 3408  14.244   0.318   9.751 -0.0527 -0.1292  0.2205
  214loPI    C1 3409   3.688  14.953  12.209  0.0438  0.1576 -0.0707
  214loPI    C2 3410   3.417  14.953  12.504 -0.0633  0.1649 -0.1681
  214loPI    C3 3411   3.618  15.288  12.416 -0.0458  0.1679 -0.1171
  214loPI   PO4 3412   3.590  14.882  11.868  0.2643 -0.0617 -0.1690
  214loPI   GL1 3413   3.577  15.063  11.389 -0.1037 -0.0485  0.1059
  214loPI   GL2 3414   3.456  15.288  11.048 -0.1783  0.0916  0.1663
  214loPI   C1A 3415   3.701  14.863  10.933  0.0320  0.0212  0.3617
  214loPI   C2A 3416   3.753  14.852  10.435  0.0302 -0.1073 -0.0879
  214loPI   C3A 3417   3.675  14.745   9.990 -0.0390  0.4263 -0.2642
  214loPI   C4A 3418   3.639  14.775   9.599 -0.2840  0.0496 -0.0422
  214loPI   C5A 3419   3.407  14.710   9.231  0.2235  0.1006 -0.0046
  214loPI   C6A 3420   2.999  14.653   9.217 -0.1044  0.0231 -0.3117
  214loPI   C1B 3421   3.539  15.227  10.614  0.2048 -0.2264 -0.0640
  214loPI   C2B 3422   3.445  15.193  10.208 -0.0004  0.2606  0.1187
  214loPI   C3B 3423   3.461  15.229   9.783  0.2039 -0.1413  0.0747
  214loPI   C4B 3424   3.473  15.166   9.406 -0.0453  0.0007 -0.0112
  215loPI    C1 3425   2.150   3.060  11.321  0.2213  0.2292  0.0185
  215loPI    C2 3426   2.049   3.265  11.649 -0.1760  0.1392 -0.0419
  215loPI    C3 3427   2.022   2.866  11.646  0.1567  0.1135 -0.0752
  215loPI   PO4 3428   2.407   3.094  11.233  0.1385  0.0350  0.2245
  215loPI   GL1 3429   2.583   3.344  10.812  0.0150 -0.0995  0.0451
  215loPI   GL2 3430   2.856   3.177  11.036  0.1275  0.1452  0.1299
  215loPI   C1A 3431   2.659   3.406  10.308  0.0003 -0.1157 -0.2835
  215loPI   C2A 3432   2.735   3.405   9.915 -0.0237  0.0583  0.2348
  215loPI   C3A 3433   2.881   3.359   9.434  0.0295  0.0840 -0.1426
  215loPI   C4A 3434   3.051   3.180   9.061  0.0488 -0.0349  0.0184
  215loPI   C5A 3435   3.507   3.184   8.818 -0.2785  0.1391  0.2891
  215loPI   C6A 3436   3.900   3.369   8.874 -0.1365  0.1834 -0.0541
  215loPI   C1B 3437   2.943   2.993  10.583 -0.1549 -0.2602  0.0073
  215loPI   C2B 3438   2.848   2.960  10.149  0.2240  0.1399  0.1074
  215loPI   C3B 3439   2.984   2.956   9.707 -0.1719 -0.0065  0.0728
  215loPI   C4B 3440   3.133   2.808   9.355 -0.0359 -0.1362 -0.0178
  216loPI    C1 3441   5.071  10.306  11.664  0.0792 -0.0869  0.0065
  216loPI    C2 3442   4.799  10.586  11.752  0.2441  0.0960 -0.0584
  216loPI    C3 3443   4.970  10.375  12.045 -0.0570 -0.1083 -0.0253
  216loPI   PO4 3444   4.951  10.279  11.316  0.0138 -0.1110 -0.0509
  216loPI   GL1 3445   4.654  10.534  11.084  0.3184  0.2653 -0.0377
  216loPI   GL2 3446   4.411  10.733  10.939  0.1383 -0.0013  0.1122
  216loPI   C1A 3447   4.738  10.615  10.633  0.1357 -0.0587 -0.0571
  216loPI   C2A 3448   4.670  10.683  10.209  0.1091  0.0469  0.0100
  216loPI   C3A 3449   4.534  10.664   9.699 -0.0295  0.2395  0.0692
  216loPI   C4A 3450   4.445  10.662   9.289  0.1114 -0.1761  0.2216
  216loPI   C5A 3451   4.532  10.592   8.917 -0.0906  0.2822  0.0860
  216loPI   C6A 3452   4.724  10.217   8.694 -0.3427  0.0180  0.0609
  216loPI   C1B 3453   4.333  10.913  10.514 -0.1426 -0.0001 -0.1324
  216loPI   C2B 3454   4.391  11.130  10.236  0.2213  0.2254  0.1231
  216loPI   C3B 3455   4.370  11.112   9.758 -0.0161  0.2840 -0.2595
  216loPI   C4B 3456   4.299  11.229   9.311 -0.2910 -0.3265 -0.1347
  217loPI    C1 3457   1.578   4.896  11.526 -0.2331  0.0019 -0.0489
  217loPI    C2 3458   1.324   4.867  11.834  0.0245  0.1409  0.1810
  217loPI    C3 3459   1.449   5.226  11.711 -0.2091  0.0977 -0.2011
  217loPI   PO4 3460   1.459   4.670  11.371  0.0190 -0.1359 -0.0896
  217loPI   GL1 3461   1.250   4.649  10.991 -0.1487  0.2769 -0.2368
  217loPI   GL2 3462   1.120   4.905  10.761 -0.1396  0.1217  0.1631
  217loPI   C1A 3463   1.234   4.447  10.548  0.2643 -0.2903 -0.1061
  217loPI   C2A 3464   1.209   4.505  10.046  0.1182 -0.0300  0.1523
  217loPI   C3A 3465   1.348   4.568   9.657  0.0241  0.0088  0.2279
  217loPI   C4A 3466   1.355   4.554   9.242 -0.3001  0.0132  0.2440
  217loPI   C5A 3467   1.148   4.548   8.762 -0.1278  0.0195 -0.3295
  217loPI   C6A 3468   1.370   4.687   8.416 -0.3018 -0.1507  0.2482
  217loPI   C1B 3469   1.012   4.963  10.389  0.0318 -0.1154 -0.0710
  217loPI   C2B 3470   1.031   4.909   9.918 -0.1043 -0.2320  0.2822
  217loPI   C3B 3471   1.173   5.058   9.582  0.0625  0.1869  0.0548
  217loPI   C4B 3472   1.102   5.025   9.064 -0.2681 -0.1342  0.0042
  218loPI    C1 3473  14.171   4.875  11.411  0.0528  0.1944  0.2588
  218loPI    C2 3474  13.869   5.120  11.504 -0.2897 -0.0201 -0.2413
  218loPI    C3 3475  13.853   4.734  11.609 -0.0457  0.0297 -0.0104
  218loPI   PO4 3476  14.213   4.864  11.217 -0.3459  0.1462 -0.0120
  218loPI   GL1 3477  14.095   4.899  10.814 -0.0190 -0.2488  0.0594
  218loPI   GL2 3478  14.347   4.921  10.677 -0.0692  0.5007  0.2296
  218loPI   C1A 3479  13.884   5.072  10.385  0.0053 -0.0578  0.0530
  218loPI   C2A 3480  13.674   5.270  10.035  0.2689  0.0191  0.0685
  218loPI   C3A 3481  13.542   5.478   9.667 -0.1518 -0.0345 -0.0234
  218loPI   C4A 3482  13.370   5.609   9.251 -0.0006 -0.0428  0.2195
  218loPI   C5A 3483  13.278   5.528   8.777  0.5522 -0.1506 -0.0809
  218loPI   C6A 3484  13.289   5.254   8.369  0.1548 -0.1147 -0.1250
  218loPI   C1B 3485  14.416   5.032  10.347 -0.1880 -0.0274  0.1430
  218loPI   C2B 3486  14.385   5.140   9.851 -0.3059 -0.4585 -0.0954
  218loPI   C3B 3487  14.491   5.132   9.453  0.0069 -0.0390 -0.1496
  218loPI   C4B 3488  14.303   4.974   9.062  0.0167  0.1086 -0.0020
  219loPI    C1 3489  14.581   9.866  11.483 -0.1319 -0.0659  0.0294
  219loPI    C2 3490  14.943   9.842  11.652  0.0152 -0.3301 -0.3108
  219loPI    C3 3491  14.633   9.985  11.861  0.2880 -0.2162  0.0240
  219loPI   PO4 3492  14.484  10.010  11.295  0.1018  0.1183  0.0596
  219loPI   GL1 3493  14.249   9.890  11.002 -0.0578  0.0873  0.0175
  219loPI   GL2 3494  14.358   9.618  10.945  0.1208  0.3266  0.2211
  219loPI   C1A 3495  14.196   9.929  10.533 -0.0790 -0.1977  0.1199
  219loPI   C2A 3496  14.177  10.015  10.102  0.1183 -0.0221 -0.0578
  219loPI   C3A 3497  14.274  10.074   9.703 -0.0599  0.1482 -0.1865
  219loPI   C4A 3498  14.478   9.961   9.275 -0.0012 -0.2760  0.1940
  219loPI   C5A 3499  14.505   9.695   8.907 -0.1363  0.1448  0.1716
  219loPI   C6A 3500  14.767   9.494   8.672 -0.2336 -0.0205 -0.4690
  219loPI   C1B 3501  14.386   9.502  10.420 -0.1061  0.4628 -0.0755
  219loPI   C2B 3502  14.424   9.623   9.970  0.0167 -0.0638  0.0463
  219loPI   C3B 3503  14.510   9.623   9.604 -0.1576 -0.0310  0.0671
  219loPI   C4B 3504  14.455   9.267   9.241 -0.0129 -0.0020  0.0183
  220loPI    C1 3505  13.106  14.128  11.676  0.0417 -0.0078 -0.0187
  220loPI    C2 3506  13.128  14.316  12.028  0.0441  0.1749 -0.1152
  220loPI    C3 3507  12.878  14.007  11.981 -0.1149  0.2866 -0.0154
  220loPI   PO4 3508  13.035  14.275  11.553 -0.3112 -0.1622 -0.0261
  220loPI   GL1 3509  12.750  14.282  11.196  0.3393 -0.1283  0.3514
  220loPI   GL2 3510  12.580  14.009  11.081 -0.0589 -0.1427 -0.3411
  220loPI   C1A 3511  12.936  14.315  10.830 -0.0265 -0.0600 -0.1172
  220loPI   C2A 3512  12.849  14.299  10.459 -0.0369 -0.0456  0.0122
  220loPI   C3A 3513  12.851  14.267  10.044  0.0416 -0.1207 -0.1574
  220loPI   C4A 3514  12.839  14.394   9.590  0.0408  0.1960  0.1332
  220loPI   C5A 3515  13.048  14.327   9.073  0.3490  0.2026 -0.3267
  220loPI   C6A 3516  13.217  14.651   8.808 -0.0695  0.1352 -0.0910
  220loPI   C1B 3517  12.571  13.976  10.714  0.0557  0.2720  0.2218
  220loPI   C2B 3518  12.482  14.006  10.304  0.1406  0.2833 -0.1493
  220loPI   C3B 3519  12.508  13.884   9.961  0.4865 -0.1198  0.1466
  220loPI   C4B 3520  12.649  13.897   9.546 -0.0563 -0.3823 -0.1824
  221loPI    C1 3521   0.192  15.264  11.794 -0.1485 -0.0242  0.0409
  221loPI    C2 3522   0.080  15.556  12.043  0.1538  0.2388 -0.1244
  221loPI    C3 3523   0.415  15.351  12.115 -0.2779 -0.3740  0.2309
  221loPI   PO4 3524   0.113  15.380  11.576 -0.1157  0.2749  0.3143
  221loPI   GL1 3525  -0.104  15.249  11.235 -0.2173  0.1279  0.2624
  221loPI   GL2 3526   0.100  15.001  11.304  0.1395  0.0336  0.2100
  221loPI   C1A 3527  -0.084  15.474  10.806 -0.2024 -0.2668  0.2664
  221loPI   C2A 3528  -0.158  15.537  10.367 -0.2110  0.0746  0.1298
  221loPI   C3A 3529  -0.184  15.551   9.910 -0.0635  0.2462  0.1501
  221loPI   C4A 3530  -0.139  15.535   9.391  0.1686 -0.1508  0.0381
  221loPI   C5A 3531   0.035  15.815   9.163 -0.1432  0.1052 -0.0702
  221loPI   C6A 3532   0.166  16.249   9.005 -0.0467 -0.1810  0.0249
  221loPI   C1B 3533   0.086  14.968  10.847  0.3683  0.3169 -0.1502
  221loPI   C2B 3534   0.115  15.072  10.493  0.1904 -0.0266  0.0980
  221loPI   C3B 3535   0.052  15.022  10.127 -0.0436 -0.1113 -0.0752
  221loPI   C4B 3536  -0.021  15.117   9.664 -0.4260 -0.1151  0.2150
  222loPI    C1 3537   6.054  11.786  11.404  0.2365 -0.3613 -0.1435
  222loPI    C2 3538   6.321  11.689  11.686  0.0544  0.0288  0.1747
  222loPI    C3 3539   5.941  11.764  11.788  0.0679  0.5436 -0.1170
  222loPI   PO4 3540   6.179  11.965  11.273  0.1554 -0.3684  0.4452
  222loPI   GL1 3541   6.447  12.073  11.014  0.1336  0.0646 -0.0580
  222loPI   GL2 3542   6.357  12.290  10.894  0.2752  0.0188  0.0084
  222loPI   C1A 3543   6.553  11.824  10.638 -0.2088  0.3124  0.0063
  222loPI   C2A 3544   6.530  11.775  10.230  0.1802  0.2141  0.0521
  222loPI   C3A 3545   6.530  11.818   9.780  0.2594  0.1993  0.0763
  222loPI   C4A 3546   6.413  11.861   9.426  0.1166  0.0498  0.0486
  222loPI   C5A 3547   6.497  11.669   9.032 -0.0971  0.0869  0.0414
  222loPI   C6A 3548   6.498  11.343   8.675  0.0687  0.1462  0.3467
  222loPI   C1B 3549   6.343  12.244  10.464  0.0464  0.1602 -0.1904
  222loPI   C2B 3550   6.371  12.218  10.045  0.2011 -0.0453 -0.2268
  222loPI   C3B 3551   6.248  12.356   9.686 -0.2858  0.1204  0.1786
  222loPI   C4B 3552   6.315  12.505   9.331  0.2966 -0.0549 -0.2531
  223loPI    C1 3553   0.927  11.968  12.082  0.1555  0.1493  0.1413
  223loPI    C2 3554   1.284  12.141  12.132  0.2949 -0.0400 -0.1649
  223loPI    C3 3555   1.226  11.763  12.251  0.1126  0.0766  0.1298
  223loPI   PO4 3556   0.882  11.976  11.842  0.0888  0.1217  0.2083
  223loPI   GL1 3557   0.606  12.137  11.523 -0.1080 -0.0963  0.0798
  223loPI   GL2 3558   0.815  12.286  11.262  0.0323  0.2649  0.0255
  223loPI   C1A 3559   0.487  11.925  11.124  0.0579  0.3063  0.1806
  223loPI   C2A 3560   0.525  11.899  10.633 -0.1969  0.0006 -0.0988
  223loPI   C3A 3561   0.444  11.865  10.163 -0.0510 -0.0321  0.1508
  223loPI   C4A 3562   0.476  11.890   9.765  0.2568  0.0004 -0.1108
  223loPI   C5A 3563   0.602  11.922   9.373  0.3835  0.1507 -0.1494
  223loPI   C6A 3564   0.273  11.870   9.063  0.0962  0.0148  0.1140
  223loPI   C1B 3565   0.797  12.270  10.797 -0.1524  0.3716 -0.2410
  223loPI   C2B 3566   0.861  12.279  10.407 -0.2822  0.0632  0.1529
  223loPI   C3B 3567   0.795  12.297   9.966  0.2878  0.1160  0.2574
  223loPI   C4B 3568   0.933  12.486   9.528 -0.1043 -0.0736 -0.3018
  224loPI    C1 3569   8.709   6.305  11.764 -0.0169 -0.0893 -0.0607
  224loPI    C2 3570   9.014   6.217  12.007  0.1323 -0.3142 -0.3246
  224loPI    C3 3571   8.716   5.955  11.957 -0.0034 -0.1803 -0.2246
  224loPI   PO4 3572   8.828   6.452  11.570  0.2191  0.1145  0.0265
  224loPI   GL1 3573   8.713   6.652  11.265 -0.1611 -0.1987  0.0438
  224loPI   GL2 3574   8.756   6.955  11.149  0.0758  0.0847 -0.0810
  224loPI   C1A 3575   8.480   6.459  10.831  0.1379  0.0694  0.2873
  224loPI   C2A 3576   8.381   6.526  10.462  0.0824  0.1229 -0.2725
  224loPI   C3A 3577   8.398   6.530  10.090 -0.1125 -0.2275  0.2249
  224loPI   C4A 3578   8.463   6.463   9.622 -0.1595 -0.0459  0.3113
  224loPI   C5A 3579   8.419   6.438   9.249  0.0922 -0.1715 -0.2860
  224loPI   C6A 3580   8.417   6.654   8.894 -0.0577  0.0518 -0.0200
  224loPI   C1B 3581   8.694   6.918  10.782 -0.4725 -0.2008 -0.2253
  224loPI   C2B 3582   8.714   6.870  10.261  0.3221  0.0595  0.2061
  224loPI   C3B 3583   8.769   6.909   9.875 -0.0049 -0.0298  0.2120
  224loPI   C4B 3584   8.665   6.866   9.353  0.2763  0.0861 -0.1207
  225loPI    C1 3585   3.793   8.252  11.679 -0.2846  0.0148  0.0751
  225loPI    C2 3586   3.768   7.860  11.756  0.0209 -0.0293 -0.0343
  225loPI    C3 3587   3.636   8.126  12.024 -0.2048 -0.2057  0.0329
  225loPI   PO4 3588   3.783   8.225  11.390  0.1886 -0.0076 -0.0923
  225loPI   GL1 3589   3.987   8.225  10.962 -0.1773  0.1615 -0.3226
  225loPI   GL2 3590   3.806   7.998  10.897  0.1487  0.1053  0.2900
  225loPI   C1A 3591   4.140   8.238  10.420 -0.3893 -0.0331 -0.2744
  225loPI   C2A 3592   4.058   8.306   9.951 -0.2126  0.1881  0.1237
  225loPI   C3A 3593   4.020   8.407   9.583  0.1534  0.1316 -0.1022
  225loPI   C4A 3594   3.899   8.364   9.114 -0.0750  0.0556  0.0133
  225loPI   C5A 3595   3.855   8.639   8.743 -0.2358 -0.0093  0.0381
  225loPI   C6A 3596   3.919   8.923   8.306 -0.1831 -0.1500  0.0535
  225loPI   C1B 3597   3.769   7.928  10.448 -0.0908  0.4974 -0.1071
  225loPI   C2B 3598   3.699   7.872  10.006 -0.0376 -0.0583 -0.0307
  225loPI   C3B 3599   3.684   7.980   9.639  0.1794 -0.1818  0.1284
  225loPI   C4B 3600   3.611   7.971   9.267  0.1844  0.0563  0.0956
  226loPI    C1 3601   2.306   0.534  11.858  0.0790  0.0690 -0.1692
  226loPI    C2 3602   2.177   0.298  12.154  0.0439  0.0727 -0.1816
  226loPI    C3 3603   2.468   0.564  12.223 -0.0117  0.1214 -0.1330
  226loPI   PO4 3604   2.176   0.403  11.634  0.1193 -0.0268 -0.1910
  226loPI   GL1 3605   2.165   0.465  11.223  0.1612 -0.0614 -0.5574
  226loPI   GL2 3606   1.760   0.594  11.370  0.1789 -0.2500 -0.0574
  226loPI   C1A 3607   2.269   0.467  10.847 -0.0183  0.0605  0.1134
  226loPI   C2A 3608   2.324   0.450  10.556 -0.1906  0.0284  0.3139
  226loPI   C3A 3609   2.254   0.308  10.215  0.5096  0.1241 -0.0941
  226loPI   C4A 3610   2.413   0.256   9.824  0.0995 -0.0701  0.1108
  226loPI   C5A 3611   2.309   0.106   9.504  0.0821  0.2691 -0.1584
  226loPI   C6A 3612   2.105  -0.186   9.126 -0.3639 -0.3400 -0.0592
  226loPI   C1B 3613   1.794   0.551  10.894  0.1183  0.0898  0.1045
  226loPI   C2B 3614   1.778   0.448  10.446 -0.1146 -0.0685 -0.0043
  226loPI   C3B 3615   1.827   0.327   9.988  0.0670 -0.2321  0.0205
  226loPI   C4B 3616   1.858   0.293   9.546  0.0685  0.1630 -0.3766
  227loPI    C1 3617  16.906  13.284  11.990  0.2672 -0.2812 -0.0609
  227loPI    C2 3618  16.709  13.198  12.327  0.3214 -0.1493  0.0049
  227loPI    C3 3619  17.010  13.461  12.333  0.1232  0.0868 -0.2026
  227loPI   PO4 3620  16.860  13.134  11.781 -0.1641  0.3307  0.1132
  227loPI   GL1 3621  17.071  13.144  11.419  0.2951 -0.3046 -0.1533
  227loPI   GL2 3622  17.285  13.268  11.268  0.3191  0.1176  0.3435
  227loPI   C1A 3623  16.737  13.283  11.107 -0.1375  0.1863  0.0512
  227loPI   C2A 3624  16.694  13.307  10.711  0.0110  0.1112  0.0657
  227loPI   C3A 3625  16.728  13.316  10.305  0.3756  0.0490 -0.1149
  227loPI   C4A 3626  16.756  13.323   9.872  0.1048 -0.1156  0.1600
  227loPI   C5A 3627  16.612  13.317   9.464 -0.1826  0.1662 -0.0268
  227loPI   C6A 3628  16.885  13.221   9.121 -0.2876 -0.1234  0.4569
  227loPI   C1B 3629  17.196  13.290  10.793 -0.1788 -0.0270  0.1644
  227loPI   C2B 3630  17.287  13.247  10.358  0.2175  0.1015  0.4958
  227loPI   C3B 3631  17.230  13.302   9.877  0.1486 -0.0202  0.0503
  227loPI   C4B 3632  17.271  13.326   9.444  0.5017  0.2004  0.1539
  228loPI    C1 3633  12.910  13.481  11.838 -0.2039  0.0156  0.0824
  228loPI    C2 3634  13.014  13.517  12.222 -0.1257  0.1061  0.0531
  228loPI    C3 3635  12.632  13.566  12.113 -0.1881 -0.1493  0.1503
  228loPI   PO4 3636  13.119  13.628  11.708  0.0374  0.0353 -0.2400
  228loPI   GL1 3637  13.204  13.572  11.214 -0.0801 -0.2148 -0.1457
  228loPI   GL2 3638  13.104  13.889  11.078 -0.2663  0.2087  0.1778
  228loPI   C1A 3639  13.279  13.353  10.841 -0.0825  0.1435  0.0445
  228loPI   C2A 3640  13.214  13.415  10.443  0.0737  0.0600 -0.3433
  228loPI   C3A 3641  13.293  13.350  10.010  0.2398  0.2843  0.2662
  228loPI   C4A 3642  13.325  13.412   9.574  0.3625 -0.1712  0.0197
  228loPI   C5A 3643  13.133  13.428   9.087  0.0977 -0.3162  0.0478
  228loPI   C6A 3644  12.977  13.316   8.749 -0.3360 -0.2442 -0.1254
  228loPI   C1B 3645  13.076  13.852  10.637  0.0166 -0.4348 -0.0205
  228loPI   C2B 3646  13.089  13.814  10.191 -0.2444  0.0808 -0.1426
  228loPI   C3B 3647  13.107  13.860   9.772  0.1656  0.1836  0.1066
  228loPI   C4B 3648  13.170  13.850   9.323  0.1950 -0.1388  0.3143
  229loPI    C1 3649   2.587   1.900  11.342  0.1696  0.3559 -0.0544
  229loPI    C2 3650   2.900   1.818  11.578 -0.0208 -0.1588  0.0317
  229loPI    C3 3651   2.529   1.809  11.728 -0.1117 -0.0347 -0.1828
  229loPI   PO4 3652   2.570   2.132  11.254  0.2166 -0.0651  0.0266
  229loPI   GL1 3653   2.748   2.348  10.953 -0.1457 -0.0210  0.0134
  229loPI   GL2 3654   2.633   2.690  10.849 -0.1751 -0.1909 -0.1003
  229loPI   C1A 3655   2.972   2.094  10.625 -0.0983 -0.1511 -0.3536
  229loPI   C2A 3656   3.030   2.085  10.117 -0.0814 -0.1556 -0.0537
  229loPI   C3A 3657   2.927   2.001   9.720  0.1603 -0.0432 -0.0835
  229loPI   C4A 3658   2.971   2.052   9.341 -0.2818 -0.0196 -0.0110
  229loPI   C5A 3659   2.722   1.938   9.069  0.1615  0.0943  0.0679
  229loPI   C6A 3660   2.425   2.102   8.679  0.2897 -0.2498 -0.0246
  229loPI   C1B 3661   2.586   2.597  10.456 -0.1174  0.2741 -0.0465
  229loPI   C2B 3662   2.755   2.480  10.011  0.1286 -0.2481  0.0273
  229loPI   C3B 3663   2.752   2.509   9.597  0.1123  0.0612  0.1807
  229loPI   C4B 3664   2.759   2.448   9.159 -0.0773  0.1905  0.0257
  230loPI    C1 3665  10.201   2.439  11.596  0.1479  0.0916  0.0083
  230loPI    C2 3666   9.974   2.761  11.668  0.1368  0.1226 -0.1635
  230loPI    C3 3667  10.082   2.522  11.969 -0.0641  0.1476 -0.0702
  230loPI   PO4 3668  10.412   2.525  11.462  0.2804  0.0336  0.1727
  230loPI   GL1 3669  10.423   2.871  11.211 -0.1188  0.0603 -0.1081
  230loPI   GL2 3670  10.221   3.014  11.236 -0.0808 -0.1528 -0.0442
  230loPI   C1A 3671  10.400   2.781  10.823  0.3830 -0.1604  0.0587
  230loPI   C2A 3672  10.283   2.792  10.399  0.0064 -0.0086  0.1742
  230loPI   C3A 3673  10.301   2.735   9.982  0.1264  0.1261 -0.2988
  230loPI   C4A 3674  10.280   2.806   9.614 -0.0190 -0.1118  0.1712
  230loPI   C5A 3675  10.574   2.719   9.303 -0.2526  0.0447 -0.2430
  230loPI   C6A 3676  11.047   2.750   9.224  0.2202 -0.2206 -0.1128
  230loPI   C1B 3677  10.151   3.268  10.884 -0.1742 -0.1440  0.0824
  230loPI   C2B 3678  10.031   3.282  10.411  0.2390 -0.1619  0.0663
  230loPI   C3B 3679  10.060   3.222   9.973 -0.2317 -0.1488 -0.0375
  230loPI   C4B 3680   9.994   3.277   9.534  0.2143 -0.0903 -0.1416
  231loPI    C1 3681  15.386   6.268  11.753  0.0436 -0.1972  0.0633
  231loPI    C2 3682  15.217   5.951  11.929  0.1071 -0.1186  0.2683
  231loPI    C3 3683  15.255   6.295  12.130  0.0269  0.0238  0.0429
  231loPI   PO4 3684  15.275   6.200  11.466 -0.3759  0.0756 -0.2821
  231loPI   GL1 3685  15.164   6.382  11.096 -0.0537 -0.1970  0.0542
  231loPI   GL2 3686  15.412   6.165  10.931  0.0019 -0.0994 -0.0568
  231loPI   C1A 3687  15.168   6.774  10.764  0.0255  0.4678 -0.1420
  231loPI   C2A 3688  15.084   6.767  10.318  0.1514 -0.2196  0.1600
  231loPI   C3A 3689  15.103   6.765   9.905  0.0411 -0.3821 -0.2318
  231loPI   C4A 3690  15.035   6.781   9.412 -0.1031  0.0583 -0.3907
  231loPI   C5A 3691  15.161   6.805   9.033  0.0807  0.2851 -0.2881
  231loPI   C6A 3692  15.257   6.395   8.630 -0.0825 -0.3503  0.0707
  231loPI   C1B 3693  15.300   6.360  10.535 -0.0867 -0.0845  0.1525
  231loPI   C2B 3694  15.242   6.348  10.102  0.2385  0.0780  0.2351
  231loPI   C3B 3695  15.287   6.319   9.683 -0.2807 -0.0410 -0.2372
  231loPI   C4B 3696  15.401   6.345   9.282  0.2579 -0.3399 -0.0072
  232loPI    C1 3697  17.252   1.097  11.405  0.2722  0.0679  0.1503
  232loPI    C2 3698  17.485   0.966  11.703  0.0392 -0.4000  0.1346
  232loPI    C3 3699  17.087   0.969  11.746  0.0158 -0.2153 -0.0746
  232loPI   PO4 3700  17.360   1.047  11.178 -0.0038 -0.0502  0.0261
  232loPI   GL1 3701  17.380   0.890  10.860 -0.3699  0.1907 -0.2149
  232loPI   GL2 3702  17.286   0.635  10.835  0.1490  0.2089  0.0355
  232loPI   C1A 3703  17.381   0.846  10.355  0.1493  0.2324  0.0079
  232loPI   C2A 3704  17.415   0.790   9.818 -0.0293 -0.3303 -0.3009
  232loPI   C3A 3705  17.426   0.885   9.461  0.1276 -0.2518 -0.2134
  232loPI   C4A 3706  17.536   0.696   9.023 -0.0854  0.1258 -0.1878
  232loPI   C5A 3707  17.759   0.830   8.649 -0.2249  0.2390  0.0073
  232loPI   C6A 3708  18.012   0.413   8.506 -0.0895  0.2619  0.2729
  232loPI   C1B 3709  17.133   0.467  10.449 -0.1847 -0.0260 -0.0437
  232loPI   C2B 3710  17.115   0.492  10.044  0.2186  0.1986 -0.0185
  232loPI   C3B 3711  17.201   0.479   9.596  0.3822  0.3079  0.3694
  232loPI   C4B 3712  17.258   0.313   9.216 -0.1295  0.2219  0.1894
  233loPI    C1 3713  13.778   1.759  11.576 -0.0062 -0.0296  0.1704
  233loPI    C2 3714  13.485   2.012  11.675  0.1497  0.0852  0.3472
  233loPI    C3 3715  13.577   1.708  11.918 -0.1317 -0.2326  0.0685
  233loPI   PO4 3716  13.913   1.875  11.337  0.0702  0.0588  0.2968
  233loPI   GL1 3717  14.227   1.634  11.030 -0.1259  0.1330 -0.0333
  233loPI   GL2 3718  14.281   1.985  10.971 -0.3156 -0.3640  0.1534
  233loPI   C1A 3719  14.385   1.370  10.738  0.1804 -0.1326 -0.0385
  233loPI   C2A 3720  14.399   1.292  10.292  0.2033 -0.1518  0.1322
  233loPI   C3A 3721  14.458   1.298   9.815  0.0716 -0.1216 -0.2068
  233loPI   C4A 3722  14.477   1.294   9.398  0.0736 -0.0115  0.0008
  233loPI   C5A 3723  14.526   1.101   9.013 -0.1442 -0.0076 -0.0204
  233loPI   C6A 3724  14.494   1.081   8.629 -0.1320  0.2042 -0.0473
  233loPI   C1B 3725  14.202   1.790  10.539  0.2368 -0.0418 -0.1488
  233loPI   C2B 3726  14.196   1.758  10.119  0.2877  0.0291 -0.1221
  233loPI   C3B 3727  14.253   1.802   9.766 -0.0672  0.0098  0.4486
  233loPI   C4B 3728  14.304   1.790   9.329  0.0655  0.1466 -0.0048
  234loPI    C1 3729   9.873   9.774  11.577  0.0151  0.1686  0.0426
  234loPI    C2 3730   9.916   9.464  11.826  0.2488  0.0463 -0.1451
  234loPI    C3 3731   9.875   9.834  11.972 -0.0730 -0.0745  0.0821
  234loPI   PO4 3732   9.725   9.704  11.280 -0.3023 -0.0551  0.2291
  234loPI   GL1 3733   9.802   9.751  10.873 -0.1625  0.0847  0.1670
  234loPI   GL2 3734  10.044   9.564  10.899  0.3525 -0.1781 -0.0408
  234loPI   C1A 3735   9.805  10.047  10.620  0.1529 -0.1782 -0.2344
  234loPI   C2A 3736   9.816  10.061  10.158  0.0764 -0.0008  0.1681
  234loPI   C3A 3737   9.759  10.106   9.815  0.0192  0.0659 -0.1429
  234loPI   C4A 3738   9.768  10.077   9.371  0.2788 -0.1996 -0.0527
  234loPI   C5A 3739   9.759  10.138   8.927  0.0233  0.0698  0.3375
  234loPI   C6A 3740   9.748  10.017   8.527 -0.2427 -0.2553 -0.1435
  234loPI   C1B 3741  10.052   9.626  10.377  0.0737 -0.0997  0.1427
  234loPI   C2B 3742   9.976   9.564  10.012 -0.0492 -0.1033  0.0938
  234loPI   C3B 3743   9.968   9.604   9.547  0.1571 -0.1505  0.1080
  234loPI   C4B 3744   9.968   9.695   9.143  0.1727 -0.2430 -0.4104
  235loPI    C1 3745   9.565  16.281  11.592  0.0532  0.1341  0.0212
  235loPI    C2 3746   9.242  16.360  11.814 -0.0788  0.2648 -0.2136
  235loPI    C3 3747   9.588  16.544  11.892 -0.0051 -0.0224  0.1644
  235loPI   PO4 3748   9.493  16.245  11.359  0.2616 -0.4098 -0.1114
  235loPI   GL1 3749   9.501  16.099  11.000 -0.2307 -0.1052  0.1587
  235loPI   GL2 3750   9.234  16.106  10.968  0.1009 -0.1260  0.0813
  235loPI   C1A 3751   9.625  16.008  10.613  0.1660 -0.0120  0.0671
  235loPI   C2A 3752   9.599  16.009  10.158  0.1584 -0.0940  0.0826
  235loPI   C3A 3753   9.518  16.030   9.669 -0.1346 -0.0810 -0.1019
  235loPI   C4A 3754   9.566  16.120   9.216  0.1125 -0.0599  0.1541
  235loPI   C5A 3755   9.596  16.322   8.796  0.2027  0.1451 -0.1578
  235loPI   C6A 3756   9.609  16.696   8.599 -0.0611 -0.0491  0.3292
  235loPI   C1B 3757   9.113  16.135  10.633 -0.0757 -0.0836  0.2768
  235loPI   C2B 3758   9.149  16.123  10.226  0.2190  0.0249 -0.0125
  235loPI   C3B 3759   8.966  16.155   9.825 -0.1613  0.0318 -0.7135
  235loPI   C4B 3760   9.113  16.053   9.450  0.0489 -0.0492  0.1815
  236loPI    C1 3761   1.077   9.838  11.648  0.0960  0.0515 -0.3149
  236loPI    C2 3762   1.229  10.137  11.865 -0.1139  0.0664 -0.1850
  236loPI    C3 3763   1.016   9.849  12.043  0.3007 -0.3035 -0.2695
  236loPI   PO4 3764   1.283   9.732  11.531  0.2758 -0.0435  0.0542
  236loPI   GL1 3765   1.349   9.939  11.095  0.1636  0.2107 -0.0145
  236loPI   GL2 3766   1.276  10.195  11.327  0.1130 -0.1437  0.0985
  236loPI   C1A 3767   1.330   9.977  10.664  0.1308  0.1457  0.3777
  236loPI   C2A 3768   1.245   9.904  10.241 -0.0958  0.0317  0.0457
  236loPI   C3A 3769   1.371   9.941   9.921 -0.1596 -0.0428  0.1596
  236loPI   C4A 3770   1.305  10.011   9.395  0.0793  0.1284  0.3129
  236loPI   C5A 3771   1.372  10.454   9.151  0.0961  0.1146  0.0084
  236loPI   C6A 3772   1.418  10.825   9.257  0.1443  0.0591 -0.2092
  236loPI   C1B 3773   1.236  10.456  10.918  0.0588  0.0580  0.0579
  236loPI   C2B 3774   1.059  10.416  10.523  0.2413  0.1070 -0.1692
  236loPI   C3B 3775   1.119  10.429  10.002 -0.1366  0.0268 -0.0474
  236loPI   C4B 3776   1.134  10.468   9.632 -0.0160  0.3326 -0.2041
  237loPI    C1 3777  17.097   2.384  11.274 -0.1197 -0.1479  0.0727
  237loPI    C2 3778  17.278   2.309  11.623  0.0449  0.0841  0.0393
  237loPI    C3 3779  16.931   2.508  11.617  0.0597  0.1110  0.0684
  237loPI   PO4 3780  17.063   2.190  11.124 -0.5009 -0.0185  0.1904
  237loPI   GL1 3781  17.065   1.908  10.807  0.0541  0.1247  0.0498
  237loPI   GL2 3782  16.659   1.958  10.933 -0.1546  0.1172 -0.1532
  237loPI   C1A 3783  17.018   1.818  10.419  0.0916  0.0292 -0.1045
  237loPI   C2A 3784  16.945   2.127  10.233  0.1008  0.0852 -0.0372
  237loPI   C3A 3785  17.044   2.246   9.886  0.0551  0.1496 -0.0838
  237loPI   C4A 3786  17.184   2.362   9.534 -0.1128 -0.0133  0.0122
  237loPI   C5A 3787  17.371   2.346   9.142 -0.0965 -0.2126 -0.1163
  237loPI   C6A 3788  17.532   2.529   8.820 -0.1593 -0.0610  0.0125
  237loPI   C1B 3789  16.557   1.843  10.440  0.2804 -0.1565 -0.3484
  237loPI   C2B 3790  16.521   1.900   9.958  0.0929 -0.0501  0.1637
  237loPI   C3B 3791  16.654   2.129   9.567 -0.1408 -0.0345 -0.0452
  237loPI   C4B 3792  16.848   2.339   9.217  0.3702  0.0781  0.1017
  238loPI    C1 3793   8.226   5.972  11.821 -0.1357 -0.0339  0.1269
  238loPI    C2 3794   8.022   6.307  11.902  0.2364  0.1697  0.2465
  238loPI    C3 3795   8.364   6.229  12.095  0.4639  0.0149 -0.2039
  238loPI   PO4 3796   8.326   5.970  11.618 -0.2337 -0.2381  0.0598
  238loPI   GL1 3797   8.214   5.879  11.183 -0.2042 -0.2205 -0.2182
  238loPI   GL2 3798   8.095   6.166  11.042 -0.0198 -0.0408 -0.1359
  238loPI   C1A 3799   8.517   5.932  10.818  0.0773 -0.2839  0.3561
  238loPI   C2A 3800   8.599   6.031  10.435 -0.2393  0.2905 -0.2194
  238loPI   C3A 3801   8.647   6.019   9.959  0.1328  0.0951 -0.2897
  238loPI   C4A 3802   8.713   5.999   9.502 -0.1499 -0.1053  0.0640
  238loPI   C5A 3803   9.081   6.000   9.182  0.0288  0.2564  0.0989
  238loPI   C6A 3804   9.422   6.080   9.021 -0.1051 -0.1304  0.1259
  238loPI   C1B 3805   8.083   6.174  10.589 -0.1081  0.0134  0.2339
  238loPI   C2B 3806   8.080   6.192  10.221  0.2740  0.1202 -0.1506
  238loPI   C3B 3807   8.159   6.122   9.857 -0.2943 -0.2230 -0.2437
  238loPI   C4B 3808   8.206   6.041   9.490  0.0214 -0.1182  0.4682
  239loPI    C1 3809  12.271   3.806  11.397  0.1675 -0.4120  0.1312
  239loPI    C2 3810  11.974   3.919  11.640  0.1257  0.1194 -0.1522
  239loPI    C3 3811  12.350   3.907  11.776  0.0646  0.1129  0.0195
  239loPI   PO4 3812  12.099   3.743  11.179  0.1087 -0.0880  0.0721
  239loPI   GL1 3813  11.753   3.696  10.906  0.1000  0.0961  0.1423
  239loPI   GL2 3814  11.807   3.368  10.879 -0.2103 -0.1192 -0.0506
  239loPI   C1A 3815  11.553   3.694  10.603 -0.2366 -0.1236 -0.0972
  239loPI   C2A 3816  11.355   3.571  10.280 -0.3759 -0.1258  0.1942
  239loPI   C3A 3817  11.406   3.616   9.822  0.1227  0.4256  0.0809
  239loPI   C4A 3818  11.310   3.612   9.363 -0.2554 -0.0385  0.2625
  239loPI   C5A 3819  11.175   3.621   8.989  0.2006 -0.0923 -0.2132
  239loPI   C6A 3820  11.351   3.956   8.669  0.1638  0.3137 -0.1629
  239loPI   C1B 3821  11.660   3.209  10.487 -0.2111 -0.3336 -0.3721
  239loPI   C2B 3822  11.511   3.160  10.101 -0.1683 -0.0680 -0.1062
  239loPI   C3B 3823  11.590   3.152   9.735  0.1181 -0.2115  0.2419
  239loPI   C4B 3824  11.450   3.135   9.248  0.1091 -0.0072 -0.1829
  240loPI    C1 3825   7.034   8.919  11.600  0.3849 -0.1344 -0.0784
  240loPI    C2 3826   6.880   9.285  11.648 -0.1449 -0.3651  0.0482
  240loPI    C3 3827   7.120   9.131  11.928 -0.0679 -0.1877  0.0810
  240loPI   PO4 3828   7.026   8.852  11.388 -0.0119  0.3886 -0.0127
  240loPI   GL1 3829   7.177   8.887  10.903 -0.0932 -0.1383 -0.2832
  240loPI   GL2 3830   6.865   8.930  10.812 -0.1549 -0.1509 -0.1502
  240loPI   C1A 3831   7.354   8.925  10.461 -0.0853 -0.1376 -0.2694
  240loPI   C2A 3832   7.336   9.018  10.160 -0.0575 -0.0314 -0.1834
  240loPI   C3A 3833   7.267   9.004   9.678 -0.4137  0.0988  0.0654
  240loPI   C4A 3834   7.101   8.878   9.289 -0.0102  0.0295  0.0937
  240loPI   C5A 3835   7.217   8.665   8.937 -0.1704  0.0440 -0.2024
  240loPI   C6A 3836   7.163   8.462   8.445 -0.0374 -0.0219  0.0364
  240loPI   C1B 3837   6.857   8.963  10.417  0.1031  0.0785 -0.1346
  240loPI   C2B 3838   6.830   8.986   9.960 -0.3364  0.1171 -0.1032
  240loPI   C3B 3839   6.695   9.046   9.579  0.0625 -0.0987 -0.1049
  240loPI   C4B 3840   6.603   8.908   9.214 -0.2922  0.0013 -0.2532
  241loPI    C1 3841  12.829   7.731  11.744  0.1237  0.1927 -0.2240
  241loPI    C2 3842  12.652   7.999  11.982 -0.0955 -0.1473  0.0043
  241loPI    C3 3843  13.047   8.016  11.921 -0.0801  0.1143  0.1638
  241loPI   PO4 3844  12.605   7.661  11.552  0.2164  0.0309 -0.0638
  241loPI   GL1 3845  12.454   7.639  11.200  0.0077 -0.1966 -0.0792
  241loPI   GL2 3846  12.108   7.592  11.086  0.1208  0.0701 -0.0998
  241loPI   C1A 3847  12.565   7.845  10.925  0.1786 -0.1917 -0.1140
  241loPI   C2A 3848  12.670   7.868  10.446  0.0721 -0.1566 -0.2150
  241loPI   C3A 3849  12.672   7.906   9.925  0.1030 -0.1382  0.1104
  241loPI   C4A 3850  12.777   8.031   9.571  0.1712  0.0825  0.1925
  241loPI   C5A 3851  13.123   7.915   9.383  0.2550 -0.0683  0.1663
  241loPI   C6A 3852  13.131   7.810   8.972  0.2642  0.0951  0.0702
  241loPI   C1B 3853  12.277   7.557  10.638 -0.0336  0.1040 -0.2065
  241loPI   C2B 3854  12.331   7.546  10.172 -0.1101 -0.2721  0.2194
  241loPI   C3B 3855  12.307   7.554   9.743 -0.0491 -0.0331  0.1307
  241loPI   C4B 3856  12.314   7.541   9.264 -0.0130 -0.1344  0.0821
  242loPI    C1 3857  13.699  16.519  11.985  0.0703 -0.0582 -0.0124
  242loPI    C2 3858  13.425  16.753  12.159  0.0164 -0.0561 -0.0996
  242loPI    C3 3859  13.745  16.632  12.366 -0.0256 -0.0186 -0.0123
  242loPI   PO4 3860  13.743  16.654  11.732 -0.1396 -0.1305  0.1318
  242loPI   GL1 3861  14.036  16.685  11.391 -0.3726 -0.0334 -0.1330
  242loPI   GL2 3862  13.811  16.474  11.278 -0.1839  0.0786 -0.2401
  242loPI   C1A 3863  14.088  16.831  10.980 -0.0402  0.0978  0.1090
  242loPI   C2A 3864  14.132  16.869  10.647 -0.0921 -0.2076  0.3559
  242loPI   C3A 3865  14.217  16.805  10.246  0.2711  0.2000  0.1581
  242loPI   C4A 3866  14.217  16.807   9.728 -0.0866  0.1824  0.1060
  242loPI   C5A 3867  14.372  16.863   9.364  0.2169  0.5223 -0.0364
  242loPI   C6A 3868  14.889  16.710   9.250 -0.0854  0.0773  0.1674
  242loPI   C1B 3869  13.862  16.381  10.858  0.0263 -0.1555 -0.0904
  242loPI   C2B 3870  13.907  16.460  10.450  0.3342  0.2327  0.0333
  242loPI   C3B 3871  13.908  16.463   9.965  0.0550 -0.0379 -0.0198
  242loPI   C4B 3872  13.930  16.401   9.550 -0.0611 -0.3516  0.2909
  243loPI    C1 3873   3.994   4.101  11.508 -0.1591 -0.0092 -0.1671
  243loPI    C2 3874   3.620   4.088  11.648 -0.0475 -0.2214  0.1199
  243loPI    C3 3875   3.920   4.200  11.888  0.0918 -0.1845 -0.0696
  243loPI   PO4 3876   3.942   4.106  11.216 -0.0523 -0.1117  0.1444
  243loPI   GL1 3877   3.875   3.908  10.903 -0.3962 -0.1394 -0.2475
  243loPI   GL2 3878   3.569   3.834  10.840 -0.0542  0.1932 -0.2789
  243loPI   C1A 3879   3.935   4.043  10.494 -0.2976  0.1825  0.1922
  243loPI   C2A 3880   3.951   4.020  10.102 -0.0509  0.1076 -0.0306
  243loPI   C3A 3881   3.963   4.186   9.768  0.2595 -0.2487 -0.1664
  243loPI   C4A 3882   3.888   4.186   9.395 -0.0532 -0.1015 -0.0301
  243loPI   C5A 3883   4.006   4.256   9.047  0.1638  0.3175  0.6459
  243loPI   C6A 3884   4.207   4.350   8.632 -0.0704 -0.4469  0.1117
  243loPI   C1B 3885   3.480   3.915  10.427  0.0486 -0.2533  0.3052
  243loPI   C2B 3886   3.476   3.808   9.900 -0.0649  0.2753 -0.0591
  243loPI   C3B 3887   3.732   3.759   9.597 -0.2923 -0.1013 -0.0670
  243loPI   C4B 3888   3.742   3.740   9.118 -0.1647 -0.1112  0.2094
  244loPI    C1 3889   1.883  12.380  11.992 -0.0879 -0.1214 -0.0404
  244loPI    C2 3890   1.736  12.086  12.220  0.0711 -0.1677  0.0036
  244loPI    C3 3891   1.855  12.429  12.388 -0.2916 -0.0017 -0.0680
  244loPI   PO4 3892   1.683  12.321  11.774 -0.0191 -0.1598 -0.0844
  244loPI   GL1 3893   1.816  12.043  11.332  0.1805 -0.2029  0.0278
  244loPI   GL2 3894   1.990  12.230  11.326 -0.0793  0.3690 -0.1373
  244loPI   C1A 3895   1.450  12.222  11.106 -0.1677  0.0461 -0.1714
  244loPI   C2A 3896   1.341  12.264  10.654 -0.1770  0.0840  0.0878
  244loPI   C3A 3897   1.403  12.197  10.300 -0.2735 -0.0550 -0.0372
  244loPI   C4A 3898   1.297  12.312   9.911 -0.2427  0.1908 -0.0092
  244loPI   C5A 3899   1.490  12.528   9.525  0.0110 -0.1014  0.0350
  244loPI   C6A 3900   1.741  12.631   9.131  0.0210  0.0966  0.1299
  244loPI   C1B 3901   1.974  11.989  10.877  0.1480 -0.2957 -0.0082
  244loPI   C2B 3902   1.839  12.119  10.521 -0.0282  0.0523  0.1074
  244loPI   C3B 3903   1.975  12.242  10.104  0.1436  0.2341 -0.1108
  244loPI   C4B 3904   1.812  12.157   9.610  0.1657  0.2634 -0.2047
  245loPI    C1 3905  12.431  15.901  11.629 -0.1249  0.2993 -0.0337
  245loPI    C2 3906  12.386  15.511  11.706  0.0368  0.2792 -0.0354
  245loPI    C3 3907  12.398  15.774  12.007 -0.1248  0.2896 -0.0370
  245loPI   PO4 3908  12.662  15.871  11.474  0.0921 -0.2652  0.2244
  245loPI   GL1 3909  12.749  15.780  11.056 -0.0263 -0.0737  0.2176
  245loPI   GL2 3910  12.410  15.596  11.164 -0.0939 -0.2458  0.1352
  245loPI   C1A 3911  12.636  15.782  10.633  0.0399  0.2102  0.0520
  245loPI   C2A 3912  12.676  15.640  10.154  0.1870  0.0980  0.1654
  245loPI   C3A 3913  12.659  15.742   9.714 -0.1687 -0.1700 -0.0447
  245loPI   C4A 3914  12.839  15.880   9.321  0.1009 -0.1446 -0.3222
  245loPI   C5A 3915  12.998  16.157   8.973 -0.1263  0.0643  0.3041
  245loPI   C6A 3916  12.701  16.425   8.673  0.0798 -0.0697 -0.1846
  245loPI   C1B 3917  12.439  15.375  10.826 -0.1042 -0.0403 -0.0501
  245loPI   C2B 3918  12.292  15.404  10.412  0.2296 -0.0667  0.2468
  245loPI   C3B 3919  12.317  15.336   9.936  0.0327  0.0531  0.1724
  245loPI   C4B 3920  12.286  15.268   9.514  0.0716  0.0819 -0.0007
  246loPI    C1 3921  12.021  15.117  11.741 -0.0373 -0.0218 -0.1836
  246loPI    C2 3922  12.311  14.841  11.737 -0.1639 -0.1574 -0.1078
  246loPI    C3 3923  12.297  15.114  12.030  0.0448  0.0216 -0.2609
  246loPI   PO4 3924  11.991  15.165  11.503 -0.2009 -0.0388  0.1501
  246loPI   GL1 3925  11.932  15.201  11.161  0.0665 -0.0984 -0.1312
  246loPI   GL2 3926  12.173  14.953  10.978  0.2249  0.4839  0.1462
  246loPI   C1A 3927  11.926  15.476  10.817  0.0432  0.0906 -0.4904
  246loPI   C2A 3928  11.855  15.361  10.378  0.2002  0.1214  0.2159
  246loPI   C3A 3929  11.832  15.349   9.942  0.1907  0.1489 -0.0874
  246loPI   C4A 3930  11.794  15.403   9.454 -0.0872 -0.3773  0.0361
  246loPI   C5A 3931  11.970  15.425   9.073  0.0209 -0.0494  0.2247
  246loPI   C6A 3932  12.140  15.407   8.712  0.0875  0.0582  0.0696
  246loPI   C1B 3933  12.133  14.959  10.533 -0.0684 -0.0228 -0.1161
  246loPI   C2B 3934  12.051  14.946  10.116  0.2772 -0.0882 -0.1165
  246loPI   C3B 3935  12.031  14.891   9.651 -0.0890  0.0007  0.1651
  246loPI   C4B 3936  11.882  14.977   9.247  0.1548  0.0735  0.0463
  247loPI    C1 3937  17.277   9.874  11.994 -0.0940 -0.0070 -0.0112
  247loPI    C2 3938  17.454   9.521  11.932 -0.0662  0.0386 -0.1961
  247loPI    C3 3939  17.251   9.586  12.271  0.0643 -0.0983 -0.0903
  247loPI   PO4 3940  17.198   9.987  11.797 -0.0529 -0.1222 -0.1426
  247loPI   GL1 3941  17.095  10.080  11.412  0.1460 -0.0065  0.0870
  247loPI   GL2 3942  16.754  10.146  11.271  0.2341  0.0183 -0.1607
  247loPI   C1A 3943  17.147  10.137  10.954 -0.3449 -0.2591  0.0149
  247loPI   C2A 3944  17.129  10.136  10.581  0.1182 -0.1327 -0.1813
  247loPI   C3A 3945  17.104  10.236  10.116 -0.1642  0.1234 -0.0976
  247loPI   C4A 3946  17.116  10.142   9.727  0.0623 -0.0926 -0.2339
  247loPI   C5A 3947  17.215  10.235   9.346 -0.3239 -0.0942  0.4319
  247loPI   C6A 3948  17.392  10.376   8.991 -0.1379  0.2821 -0.0321
  247loPI   C1B 3949  16.594  10.197  10.868  0.2596 -0.3048  0.1593
  247loPI   C2B 3950  16.699  10.265  10.343 -0.0400  0.1004 -0.0831
  247loPI   C3B 3951  16.654  10.216   9.850 -0.0619 -0.2307  0.0593
  247loPI   C4B 3952  16.610  10.225   9.326 -0.0751  0.0825  0.3672
  248loPI    C1 3953  14.992  13.774  11.700  0.0966  0.1456 -0.1501
  248loPI    C2 3954  14.947  13.523  12.008 -0.0318  0.0562 -0.2410
  248loPI    C3 3955  14.958  13.917  12.071  0.1857  0.0282 -0.0960
  248loPI   PO4 3956  15.148  13.678  11.554 -0.3637 -0.0512  0.0095
  248loPI   GL1 3957  15.280  13.443  11.179 -0.0030  0.1794  0.0085
  248loPI   GL2 3958  15.049  13.272  11.282  0.1009  0.0077 -0.1089
  248loPI   C1A 3959  15.197  13.507  10.712  0.1414 -0.1269  0.2115
  248loPI   C2A 3960  15.185  13.455  10.305 -0.1206 -0.2222  0.1365
  248loPI   C3A 3961  15.093  13.577   9.913  0.2172  0.2484 -0.0838
  248loPI   C4A 3962  15.173  13.614   9.585 -0.0997 -0.0384  0.0433
  248loPI   C5A 3963  15.298  13.745   9.210 -0.1216 -0.2903  0.0842
  248loPI   C6A 3964  15.449  14.252   9.136  0.0810  0.3945  0.0585
  248loPI   C1B 3965  14.895  13.116  10.836 -0.0236  0.0783  0.2231
  248loPI   C2B 3966  14.838  13.098  10.387 -0.1193  0.2488 -0.2172
  248loPI   C3B 3967  14.746  13.163  10.039  0.0738 -0.4851 -0.0129
  248loPI   C4B 3968  14.925  13.128   9.732 -0.0904 -0.0058  0.2995
  249loPI    C1 3969  15.343  10.383  11.672  0.2185  0.1226  0.0964
  249loPI    C2 3970  15.055  10.293  11.934  0.1939 -0.0815  0.0020
  249loPI    C3 3971  15.394  10.464  12.060  0.0198  0.1925  0.1092
  249loPI   PO4 3972  15.320  10.148  11.502 -0.0827 -0.2510  0.2105
  249loPI   GL1 3973  15.361  10.117  11.118 -0.0233 -0.2666  0.0093
  249loPI   GL2 3974  15.075  10.266  10.938  0.0852  0.1546 -0.2541
  249loPI   C1A 3975  15.569  10.278  10.752 -0.0382  0.3825 -0.1006
  249loPI   C2A 3976  15.589  10.311  10.211  0.0388 -0.0243  0.0989
  249loPI   C3A 3977  15.622  10.409   9.877 -0.1172  0.0635  0.1035
  249loPI   C4A 3978  15.631  10.452   9.386  0.0770  0.3205 -0.0060
  249loPI   C5A 3979  15.563  10.287   8.980 -0.1006  0.0155 -0.1655
  249loPI   C6A 3980  15.412   9.834   8.787 -0.1149 -0.0210 -0.1666
  249loPI   C1B 3981  15.118  10.346  10.493 -0.1166  0.0357  0.0411
  249loPI   C2B 3982  15.087  10.331  10.107  0.0206  0.1111  0.2204
  249loPI   C3B 3983  15.122  10.438   9.695 -0.2043 -0.0075  0.0778
  249loPI   C4B 3984  15.098  10.515   9.230 -0.0161 -0.2902 -0.2455
  250loPI    C1 3985  16.357   8.779  11.657  0.3191 -0.1298 -0.1523
  250loPI    C2 3986  16.105   8.573  11.424 -0.1215  0.1362  0.0735
  250loPI    C3 3987  15.963   8.848  11.677  0.3976  0.2438  0.2610
  250loPI   PO4 3988  16.515   8.815  11.539  0.0432 -0.2489  0.2829
  250loPI   GL1 3989  16.577   8.795  11.047 -0.0734  0.0409  0.2097
  250loPI   GL2 3990  16.186   8.846  10.991  0.2505  0.0404 -0.1011
  250loPI   C1A 3991  16.764   8.820  10.640  0.1832  0.2634  0.3263
  250loPI   C2A 3992  16.710   8.812  10.249 -0.1621 -0.2483 -0.2228
  250loPI   C3A 3993  16.724   8.806   9.808 -0.1973 -0.0199  0.1714
  250loPI   C4A 3994  16.710   8.867   9.377  0.2859 -0.1675  0.3879
  250loPI   C5A 3995  16.930   8.971   8.911 -0.0629 -0.1241  0.0543
  250loPI   C6A 3996  16.880   9.149   8.530 -0.1447 -0.0213 -0.2478
  250loPI   C1B 3997  16.242   8.787  10.518  0.0290  0.2871  0.3090
  250loPI   C2B 3998  16.230   8.905  10.004  0.0436 -0.2552  0.0841
  250loPI   C3B 3999  16.276   8.951   9.601 -0.1962  0.0277 -0.4471
  250loPI   C4B 4000  16.274   8.939   9.131 -0.1029  0.0750  0.1869
  251loPI    C1 4001   2.462   6.731  11.856 -0.0215 -0.1992  0.1132
  251loPI    C2 4002   2.458   6.447  12.137  0.1087  0.0307  0.3517
  251loPI    C3 4003   2.802   6.549  11.961  0.0139 -0.1765  0.0386
  251loPI   PO4 4004   2.366   6.794  11.649  0.1050  0.1116 -0.2904
  251loPI   GL1 4005   2.501   6.839  11.225  0.1065 -0.1009  0.1164
  251loPI   GL2 4006   2.196   7.013  11.189 -0.3335 -0.1596 -0.0444
  251loPI   C1A 4007   2.546   7.068  10.858  0.2591  0.0349 -0.1585
  251loPI   C2A 4008   2.639   7.257  10.492 -0.1193 -0.2079 -0.4009
  251loPI   C3A 4009   2.579   7.147  10.073 -0.1456 -0.0556 -0.1167
  251loPI   C4A 4010   2.477   7.153   9.737 -0.0840  0.1016 -0.1684
  251loPI   C5A 4011   2.406   7.300   9.358 -0.0962  0.2088 -0.0098
  251loPI   C6A 4012   2.247   7.704   9.241 -0.2220  0.1729 -0.1685
  251loPI   C1B 4013   2.030   7.132  10.816  0.0091  0.0556 -0.2194
  251loPI   C2B 4014   1.934   7.201  10.496  0.2703  0.1350  0.1229
  251loPI   C3B 4015   2.100   7.197  10.065  0.0923  0.2689  0.2510
  251loPI   C4B 4016   1.998   7.176   9.598 -0.1602 -0.0110  0.2375
  252loPI    C1 4017   8.174  13.769  11.498 -0.0146  0.2535 -0.0469
  252loPI    C2 4018   7.793  13.786  11.618  0.0271  0.1053  0.1092
  252loPI    C3 4019   8.086  13.743  11.887  0.1563  0.2416 -0.0083
  252loPI   PO4 4020   8.144  14.043  11.336 -0.0466  0.1909 -0.1932
  252loPI   GL1 4021   7.936  13.921  11.043  0.1045 -0.1554  0.2694
  252loPI   GL2 4022   7.550  13.881  11.165 -0.0443  0.1727  0.1851
  252loPI   C1A 4023   8.038  13.960  10.586  0.0129 -0.0435  0.3394
  252loPI   C2A 4024   8.018  13.880  10.181  0.0540  0.3647  0.4200
  252loPI   C3A 4025   8.071  13.852   9.758  0.1842  0.3086  0.0547
  252loPI   C4A 4026   8.031  14.007   9.347  0.0249  0.0276  0.2824
  252loPI   C5A 4027   8.297  14.029   9.030 -0.1440 -0.0211 -0.0056
  252loPI   C6A 4028   8.594  13.926   8.802 -0.1258 -0.0837  0.1125
  252loPI   C1B 4029   7.578  13.899  10.734 -0.1634 -0.0446 -0.1479
  252loPI   C2B 4030   7.497  14.024  10.252  0.1901 -0.1476  0.0013
  252loPI   C3B 4031   7.519  13.995   9.812  0.0330  0.1611  0.3561
  252loPI   C4B 4032   7.574  13.747   9.414  0.2245  0.1021  0.0118
  253loPI    C1 4033  10.406  16.313  11.644 -0.2013  0.1092  0.0793
  253loPI    C2 4034  10.673  16.056  11.493 -0.1335  0.3176 -0.1625
  253loPI    C3 4035  10.758  16.261  11.826 -0.0445  0.2873 -0.1664
  253loPI   PO4 4036  10.160  16.177  11.515 -0.2603  0.3045 -0.1192
  253loPI   GL1 4037   9.928  16.261  11.119  0.0075  0.0393 -0.0809
  253loPI   GL2 4038   9.782  16.522  10.974 -0.1043  0.2385  0.2170
  253loPI   C1A 4039  10.086  15.999  10.846  0.0493 -0.1949  0.0754
  253loPI   C2A 4040  10.114  15.957  10.342  0.0156  0.3084 -0.4208
  253loPI   C3A 4041  10.012  16.063   9.843 -0.3501  0.1699  0.3634
  253loPI   C4A 4042  10.132  16.125   9.367 -0.1861 -0.0004  0.0530
  253loPI   C5A 4043  10.106  16.391   9.039  0.0171 -0.1024 -0.0870
  253loPI   C6A 4044  10.070  16.632   8.737  0.0892 -0.2207 -0.0688
  253loPI   C1B 4045   9.886  16.372  10.523 -0.0868 -0.3361  0.1115
  253loPI   C2B 4046   9.981  16.507  10.107  0.0531  0.0800  0.1491
  253loPI   C3B 4047   9.816  16.476   9.809 -0.1918 -0.1769  0.2363
  253loPI   C4B 4048   9.850  16.527   9.445  0.0509 -0.1737  0.2077
  254loPI    C1 4049  10.633  13.884  11.532 -0.0744 -0.0531 -0.0783
  254loPI    C2 4050  11.005  13.911  11.388 -0.1189 -0.1896 -0.2223
  254loPI    C3 4051  10.900  13.599  11.614 -0.0906 -0.0498 -0.0137
  254loPI   PO4 4052  10.494  13.907  11.344 -0.2359 -0.0191 -0.0667
  254loPI   GL1 4053  10.417  14.113  10.905 -0.1269  0.2451  0.0269
  254loPI   GL2 4054  10.440  14.398  11.022 -0.0551 -0.1433 -0.2824
  254loPI   C1A 4055  10.579  14.150  10.518  0.1380 -0.3085  0.0118
  254loPI   C2A 4056  10.507  14.115  10.066 -0.0217 -0.1397 -0.0515
  254loPI   C3A 4057  10.436  14.065   9.573 -0.4806 -0.1717  0.0875
  254loPI   C4A 4058  10.426  14.076   9.212 -0.0639 -0.3431  0.0391
  254loPI   C5A 4059  10.587  14.362   8.983  0.2630  0.2988 -0.0464
  254loPI   C6A 4060  10.862  14.417   8.723  0.0543 -0.0405 -0.2546
  254loPI   C1B 4061  10.371  14.689  10.644  0.0337  0.0402  0.1341
  254loPI   C2B 4062  10.301  14.551  10.197  0.0276 -0.1334  0.2387
  254loPI   C3B 4063  10.286  14.469   9.794  0.3639  0.1363  0.2149
  254loPI   C4B 4064  10.163  14.470   9.387 -0.4441  0.1643 -0.0648
  255loPI    C1 4065   0.845   7.801  11.623 -0.1882 -0.0915  0.0072
  255loPI    C2 4066   0.672   8.060  11.875 -0.3380 -0.0337 -0.1524
  255loPI    C3 4067   0.596   7.668  11.906 -0.1013 -0.0628  0.0976
  255loPI   PO4 4068   0.879   7.952  11.358  0.1489 -0.2455 -0.2438
  255loPI   GL1 4069   0.770   7.851  11.040 -0.0313  0.1332 -0.1452
  255loPI   GL2 4070   0.771   7.651  10.903  0.3170 -0.0501 -0.1279
  255loPI   C1A 4071   0.751   8.148  10.724 -0.1176 -0.1963 -0.0642
  255loPI   C2A 4072   0.614   8.287  10.354 -0.1502 -0.0898  0.1798
  255loPI   C3A 4073   0.574   8.271   9.941  0.0473 -0.1123  0.1203
  255loPI   C4A 4074   0.526   8.229   9.588  0.0667  0.0641  0.1683
  255loPI   C5A 4075   0.335   8.483   9.123  0.2678  0.0960 -0.0163
  255loPI   C6A 4076   0.593   8.467   8.703 -0.2223  0.5342 -0.1384
  255loPI   C1B 4077   0.830   7.738  10.419 -0.1387 -0.1449 -0.0199
  255loPI   C2B 4078   0.858   7.850  10.037 -0.1387 -0.1076  0.1171
  255loPI   C3B 4079   0.766   7.747   9.581 -0.0852 -0.1633  0.0243
  255loPI   C4B 4080   0.636   7.930   9.241 -0.1774  0.1654 -0.1170
  256loPI    C1 4081   2.026  16.901  11.711  0.0005  0.1421  0.2154
  256loPI    C2 4082   2.059  17.254  11.896  0.2086  0.1088  0.2444
  256loPI    C3 4083   1.872  16.950  12.077  0.0952  0.1815  0.2502
  256loPI   PO4 4084   2.037  16.985  11.486 -0.2675 -0.0210 -0.1707
  256loPI   GL1 4085   1.957  17.038  11.077  0.2011 -0.1377 -0.1095
  256loPI   GL2 4086   2.079  17.293  10.962 -0.2463 -0.2227 -0.0437
  256loPI   C1A 4087   1.709  16.874  10.611 -0.0727 -0.0821 -0.3337
  256loPI   C2A 4088   1.710  16.836  10.181 -0.2369 -0.0070 -0.1262
  256loPI   C3A 4089   1.770  16.687   9.828  0.0857 -0.0499 -0.0194
  256loPI   C4A 4090   1.839  16.730   9.410  0.0194 -0.1743 -0.0953
  256loPI   C5A 4091   1.571  16.851   9.006  0.1059  0.4168  0.0600
  256loPI   C6A 4092   1.472  17.016   8.639 -0.0127  0.1003  0.1182
  256loPI   C1B 4093   2.016  17.257  10.458  0.0098  0.1915 -0.1573
  256loPI   C2B 4094   1.999  17.225   9.937 -0.2968  0.1655 -0.0560
  256loPI   C3B 4095   2.090  17.067   9.670 -0.1821 -0.1706  0.4352
  256loPI   C4B 4096   2.494  16.993   9.370 -0.1669  0.2329 -0.4104
  257loPI    C1 4097  11.933  11.419  12.095  0.2003 -0.0427  0.0681
  257loPI    C2 4098  12.184  11.128  12.203  0.3332  0.0770  0.0840
  257loPI    C3 4099  11.999  11.346  12.483  0.2341  0.0091  0.0720
  257loPI   PO4 4100  11.848  11.316  11.814  0.2296  0.2364 -0.0312
  257loPI   GL1 4101  11.692  11.446  11.454 -0.1408  0.1767  0.1789
  257loPI   GL2 4102  11.838  11.719  11.481  0.0453  0.0781 -0.0443
  257loPI   C1A 4103  11.702  11.287  11.154 -0.0462 -0.1926 -0.1511
  257loPI   C2A 4104  11.733  11.236  10.675 -0.2443  0.1978 -0.1391
  257loPI   C3A 4105  11.793  11.174  10.275 -0.0378 -0.1406  0.0363
  257loPI   C4A 4106  11.750  11.284   9.878 -0.1131  0.0610  0.1105
  257loPI   C5A 4107  11.889  11.366   9.408 -0.0736 -0.2273  0.1679
  257loPI   C6A 4108  11.956  11.272   8.978  0.1510 -0.1179  0.3514
  257loPI   C1B 4109  12.009  11.780  11.033 -0.1440 -0.2281 -0.0259
  257loPI   C2B 4110  12.056  11.625  10.612  0.0783  0.1833  0.0054
  257loPI   C3B 4111  12.112  11.552  10.140 -0.1392  0.0203  0.0215
  257loPI   C4B 4112  12.005  11.691   9.726 -0.0286 -0.2543  0.1331
  258loPI    C1 4113   3.645   1.975  11.710  0.1943  0.0057 -0.0822
  258loPI    C2 4114   3.487   1.981  12.078 -0.0907  0.0459 -0.2022
  258loPI    C3 4115   3.884   1.966  12.030 -0.0558 -0.0799  0.1059
  258loPI   PO4 4116   3.369   1.912  11.560 -0.0559  0.0105 -0.2486
  258loPI   GL1 4117   3.303   1.808  11.186  0.2067 -0.0065  0.0444
  258loPI   GL2 4118   2.995   1.739  10.978  0.1729  0.0096  0.0261
  258loPI   C1A 4119   3.383   2.067  10.902 -0.3909  0.0190  0.1901
  258loPI   C2A 4120   3.436   2.105  10.447 -0.0662 -0.2131  0.2024
  258loPI   C3A 4121   3.547   2.011  10.017  0.3429 -0.1832 -0.1724
  258loPI   C4A 4122   3.461   1.939   9.675  0.2401  0.2755  0.0441
  258loPI   C5A 4123   3.602   1.883   9.271 -0.3720  0.2823  0.0372
  258loPI   C6A 4124   3.636   1.605   8.836 -0.1708  0.0019 -0.0679
  258loPI   C1B 4125   3.212   1.642  10.648  0.3170 -0.4636 -0.1143
  258loPI   C2B 4126   3.188   1.674  10.174  0.1567 -0.1148  0.3567
  258loPI   C3B 4127   3.278   1.432   9.882  0.0636 -0.2945  0.2835
  258loPI   C4B 4128   3.277   1.423   9.386 -0.0655 -0.3142  0.0022
  259loPI    C1 4129   5.743   1.934  11.412 -0.1644  0.2230 -0.2199
  259loPI    C2 4130   6.047   2.163  11.534 -0.3404  0.3021  0.0800
  259loPI    C3 4131   5.698   2.172  11.730 -0.3383 -0.2528  0.1244
  259loPI   PO4 4132   5.722   1.954  11.177  0.0209 -0.1166  0.2419
  259loPI   GL1 4133   5.890   2.247  11.017 -0.0478 -0.1286  0.1479
  259loPI   GL2 4134   6.225   2.201  11.018  0.0458  0.1896  0.1216
  259loPI   C1A 4135   5.854   2.101  10.551 -0.1035  0.0832  0.0758
  259loPI   C2A 4136   5.945   2.156  10.232 -0.0648  0.1068 -0.0926
  259loPI   C3A 4137   5.934   2.173   9.860  0.0683  0.0333  0.4578
  259loPI   C4A 4138   6.028   2.220   9.445 -0.0328 -0.1892 -0.0057
  259loPI   C5A 4139   6.141   2.240   9.025  0.2295  0.0592  0.1025
  259loPI   C6A 4140   6.019   2.503   8.673  0.0945 -0.0741  0.1857
  259loPI   C1B 4141   6.356   2.082  10.628 -0.1883  0.1006 -0.1630
  259loPI   C2B 4142   6.450   2.058  10.249  0.0812  0.0069  0.3269
  259loPI   C3B 4143   6.467   2.127   9.816 -0.0252 -0.3375 -0.1719
  259loPI   C4B 4144   6.540   2.048   9.375 -0.1535  0.0341 -0.3774
  260loPI    C1 4145   8.092   1.515  11.531  0.1228  0.1360  0.0400
  260loPI    C2 4146   7.863   1.607  11.846 -0.1086  0.0816 -0.1096
  260loPI    C3 4147   8.252   1.699  11.847 -0.1223  0.1428  0.1628
  260loPI   PO4 4148   7.968   1.610  11.312  0.0670  0.1293  0.2566
  260loPI   GL1 4149   7.771   1.542  10.961  0.1040  0.0793 -0.2048
  260loPI   GL2 4150   8.022   1.190  10.945 -0.1409 -0.0680 -0.0090
  260loPI   C1A 4151   7.716   1.613  10.524 -0.0934  0.0738  0.0779
  260loPI   C2A 4152   7.787   1.652  10.059 -0.0346 -0.1506 -0.0077
  260loPI   C3A 4153   7.723   1.697   9.574 -0.0093 -0.3386 -0.3645
  260loPI   C4A 4154   7.915   1.674   9.091  0.0360 -0.2713  0.0291
  260loPI   C5A 4155   7.793   1.410   8.803 -0.0984 -0.2800 -0.0967
  260loPI   C6A 4156   7.655   1.025   8.594 -0.0772 -0.0554  0.3923
  260loPI   C1B 4157   8.009   1.115  10.536 -0.2763 -0.0454  0.0775
  260loPI   C2B 4158   8.008   1.097  10.068 -0.2449 -0.1096  0.1245
  260loPI   C3B 4159   7.865   1.142   9.643 -0.1815 -0.1684 -0.1914
  260loPI   C4B 4160   7.949   1.117   9.201 -0.2035  0.1036  0.2187
  261loPI    C1 4161   6.405  17.266  11.728  0.0501  0.0087  0.1285
  261loPI    C2 4162   6.379  17.615  11.921  0.0619  0.1231 -0.0740
  261loPI    C3 4163   6.706  17.389  11.961 -0.0093  0.0612  0.1781
  261loPI   PO4 4164   6.280  17.338  11.459  0.0820  0.1541 -0.2023
  261loPI   GL1 4165   6.295  17.513  11.062  0.2464  0.2983 -0.0005
  261loPI   GL2 4166   6.562  17.204  11.084 -0.1735 -0.1606 -0.1171
  261loPI   C1A 4167   6.327  17.629  10.645 -0.0970 -0.0533 -0.0722
  261loPI   C2A 4168   6.269  17.628  10.163 -0.1978 -0.1893  0.0031
  261loPI   C3A 4169   6.226  17.672   9.734  0.1986  0.3669 -0.0255
  261loPI   C4A 4170   6.293  17.640   9.295  0.2543 -0.2164  0.0839
  261loPI   C5A 4171   6.438  17.670   8.920 -0.1070  0.2190  0.1727
  261loPI   C6A 4172   6.396  17.975   8.600 -0.1684  0.0490 -0.2482
  261loPI   C1B 4173   6.561  17.174  10.687  0.1226 -0.1101 -0.0124
  261loPI   C2B 4174   6.413  17.181  10.311 -0.1846  0.3196 -0.0599
  261loPI   C3B 4175   6.421  17.196   9.837 -0.2364  0.0762  0.0480
  261loPI   C4B 4176   6.555  17.194   9.446  0.1344  0.3366 -0.4003
  262loPI    C1 4177   9.153   1.125  11.632  0.1727 -0.1734 -0.0643
  262loPI    C2 4178   9.469   1.060  11.869  0.1829  0.0612 -0.0112
  262loPI    C3 4179   9.099   1.047  12.021  0.1944  0.3127  0.0426
  262loPI   PO4 4180   9.182   0.982  11.427  0.2046  0.0795 -0.2940
  262loPI   GL1 4181   9.107   0.863  11.017 -0.0210  0.1058 -0.0607
  262loPI   GL2 4182   9.073   0.559  10.939 -0.1088 -0.0600 -0.2909
  262loPI   C1A 4183   8.960   1.077  10.726  0.2956  0.2477 -0.1760
  262loPI   C2A 4184   8.999   1.040  10.297 -0.2812 -0.0947 -0.0816
  262loPI   C3A 4185   9.061   1.052   9.869  0.2809  0.0184  0.0037
  262loPI   C4A 4186   9.107   1.058   9.443 -0.1432 -0.2850 -0.3532
  262loPI   C5A 4187   9.386   0.911   9.189 -0.2768 -0.0079 -0.1260
  262loPI   C6A 4188   9.867   0.848   9.076 -0.3348 -0.0363  0.0336
  262loPI   C1B 4189   9.215   0.605  10.526  0.1048 -0.4003  0.2057
  262loPI   C2B 4190   9.265   0.592  10.047 -0.0197  0.1682 -0.0751
  262loPI   C3B 4191   9.256   0.578   9.589 -0.0056 -0.4330  0.0536
  262loPI   C4B 4192   9.236   0.451   9.246 -0.0699  0.4260  0.2786
  263loPI    C1 4193   3.096   1.036  12.013  0.1205  0.0182  0.0996
  263loPI    C2 4194   3.288   0.719  12.162  0.0004 -0.0151  0.1857
  263loPI    C3 4195   2.939   0.833  12.320 -0.1881 -0.1209 -0.1433
  263loPI   PO4 4196   3.065   0.997  11.766  0.3904  0.1204  0.2936
  263loPI   GL1 4197   3.064   0.714  11.380 -0.1609 -0.0574  0.2202
  263loPI   GL2 4198   2.932   0.992  11.204  0.3137  0.3190 -0.0856
  263loPI   C1A 4199   3.126   0.712  10.893 -0.1182 -0.0372 -0.1960
  263loPI   C2A 4200   3.125   0.735  10.471  0.2890 -0.0912  0.0772
  263loPI   C3A 4201   3.126   0.660  10.041  0.2001 -0.0242  0.1941
  263loPI   C4A 4202   3.181   0.595   9.599 -0.6823  0.0632 -0.1047
  263loPI   C5A 4203   3.099   0.370   9.292 -0.0778 -0.2440 -0.1494
  263loPI   C6A 4204   3.085   0.299   8.857 -0.3299 -0.0719  0.2162
  263loPI   C1B 4205   2.934   1.233  10.783 -0.0994  0.1921  0.0537
  263loPI   C2B 4206   2.834   1.185  10.384 -0.3468  0.2823 -0.0114
  263loPI   C3B 4207   2.905   1.157  10.011  0.1206  0.0977  0.0630
  263loPI   C4B 4208   3.045   1.065   9.584  0.0003  0.1590 -0.0108
  264loPI    C1 4209   1.705  13.423  12.110  0.0327  0.0185 -0.0656
  264loPI    C2 4210   1.900  13.740  12.256 -0.1444  0.0614  0.0821
  264loPI    C3 4211   2.053  13.373  12.300 -0.1186  0.0900  0.2369
  264loPI   PO4 4212   1.599  13.485  11.802 -0.2043 -0.0504 -0.0021
  264loPI   GL1 4213   1.577  13.229  11.467 -0.0565  0.1160  0.0849
  264loPI   GL2 4214   1.862  13.181  11.367 -0.0293  0.0520 -0.0457
  264loPI   C1A 4215   1.478  13.207  10.993  0.0372  0.0573  0.1078
  264loPI   C2A 4216   1.411  13.076  10.590 -0.1411  0.0732 -0.1052
  264loPI   C3A 4217   1.508  13.045  10.177  0.0591  0.2865 -0.0434
  264loPI   C4A 4218   1.498  13.056   9.676 -0.1219  0.0137  0.0137
  264loPI   C5A 4219   1.645  13.056   9.342 -0.0453  0.1784  0.2379
  264loPI   C6A 4220   1.902  13.238   9.075 -0.0438  0.1540 -0.1604
  264loPI   C1B 4221   1.985  13.050  11.007  0.2765 -0.0810 -0.0500
  264loPI   C2B 4222   2.018  13.155  10.634 -0.2388 -0.3944  0.0159
  264loPI   C3B 4223   1.992  13.126  10.198  0.1525 -0.0627 -0.3021
  264loPI   C4B 4224   2.010  13.116   9.801  0.2377  0.0382 -0.0054
  265loPI    C1 4225   2.706   9.455  11.773  0.0686 -0.0597 -0.1334
  265loPI    C2 4226   2.878   9.687  12.049  0.2054 -0.1035 -0.1814
  265loPI    C3 4227   2.512   9.540  12.112  0.0356  0.2849 -0.2347
  265loPI   PO4 4228   2.726   9.557  11.570 -0.2029 -0.1017 -0.1224
  265loPI   GL1 4229   3.111   9.478  11.266  0.1022  0.0972 -0.1467
  265loPI   GL2 4230   3.009   9.762  11.090  0.0272  0.1540  0.1383
  265loPI   C1A 4231   3.193   9.348  10.830 -0.1818 -0.1216  0.3489
  265loPI   C2A 4232   3.111   9.327  10.412  0.2939  0.1854  0.0679
  265loPI   C3A 4233   3.027   9.317   9.970 -0.0312  0.3017 -0.1762
  265loPI   C4A 4234   3.027   9.372   9.539 -0.2088  0.0570  0.1246
  265loPI   C5A 4235   3.342   9.312   9.160 -0.0470  0.4147  0.1685
  265loPI   C6A 4236   3.525   9.084   8.785  0.1182 -0.1094  0.0359
  265loPI   C1B 4237   2.962   9.743  10.659  0.1166 -0.0803 -0.0642
  265loPI   C2B 4238   2.869   9.792  10.179 -0.0814  0.3283 -0.0128
  265loPI   C3B 4239   2.817   9.756   9.741  0.1259  0.2308 -0.0745
  265loPI   C4B 4240   2.747   9.771   9.302  0.0318 -0.3127 -0.1281
  266loPI    C1 4241   8.979  17.282  11.794  0.1418  0.1983  0.0007
  266loPI    C2 4242   9.132  16.917  11.853  0.1257  0.1433 -0.2819
  266loPI    C3 4243   8.831  17.048  12.082  0.0069 -0.0938 -0.3000
  266loPI   PO4 4244   9.038  17.371  11.557  0.0797  0.2384 -0.3838
  266loPI   GL1 4245   8.910  17.440  11.142 -0.2854 -0.1696 -0.1949
  266loPI   GL2 4246   9.260  17.352  11.134  0.0760  0.1255 -0.1241
  266loPI   C1A 4247   8.934  17.481  10.719  0.1468  0.2706  0.1229
  266loPI   C2A 4248   8.945  17.513  10.302 -0.0679  0.1697 -0.0888
  266loPI   C3A 4249   8.977  17.441   9.898 -0.1097 -0.1849  0.2732
  266loPI   C4A 4250   8.854  17.413   9.511  0.2180  0.0109  0.2723
  266loPI   C5A 4251   8.773  17.346   9.082  0.1407  0.1838  0.1101
  266loPI   C6A 4252   8.604  17.556   8.695  0.1949  0.1103 -0.2343
  266loPI   C1B 4253   9.397  17.385  10.668 -0.0701 -0.2158 -0.0855
  266loPI   C2B 4254   9.396  17.549  10.370  0.0868 -0.0375  0.1294
  266loPI   C3B 4255   9.507  17.486  10.051 -0.2352  0.1053 -0.0003
  266loPI   C4B 4256   9.421  17.397   9.607  0.1190  0.0793  0.0697
  267loPI    C1 4257   1.386  17.120  11.895 -0.0812 -0.0567 -0.2073
  267loPI    C2 4258   1.076  17.372  11.879  0.0067  0.0640 -0.0353
  267loPI    C3 4259   1.178  17.201  12.227  0.0795 -0.0436 -0.1087
  267loPI   PO4 4260   1.558  17.136  11.685  0.2701  0.1399 -0.0458
  267loPI   GL1 4261   1.516  17.055  11.270  0.2374 -0.2469  0.1693
  267loPI   GL2 4262   1.544  16.782  11.125 -0.1301  0.2305 -0.0070
  267loPI   C1A 4263   1.176  17.175  10.979 -0.1665 -0.0786  0.0402
  267loPI   C2A 4264   1.181  17.145  10.557  0.1335  0.1215 -0.0436
  267loPI   C3A 4265   1.139  17.286  10.070 -0.0270 -0.0276 -0.1404
  267loPI   C4A 4266   1.002  17.253   9.630 -0.2460  0.0519  0.0225
  267loPI   C5A 4267   1.180  17.164   9.217  0.0762  0.0523  0.1532
  267loPI   C6A 4268   1.066  16.807   8.936 -0.0302 -0.0768 -0.1747
  267loPI   C1B 4269   1.263  16.649  10.774 -0.0320  0.0297 -0.1664
  267loPI   C2B 4270   1.263  16.687  10.390 -0.1794 -0.0517  0.1566
  267loPI   C3B 4271   1.255  16.638   9.909 -0.1646  0.3730  0.0907
  267loPI   C4B 4272   1.295  16.724   9.524  0.2784  0.1032  0.0083
  268loPI    C1 4273  13.676   8.626  11.712  0.1299 -0.1620 -0.1552
  268loPI    C2 4274  14.031   8.502  11.847  0.1756  0.0350 -0.0912
  268loPI    C3 4275  13.696   8.393  12.036  0.1931 -0.2369 -0.2127
  268loPI   PO4 4276  13.624   8.618  11.515  0.2441  0.2163  0.2610
  268loPI   GL1 4277  13.793   8.713  11.098 -0.2307 -0.1743 -0.2117
  268loPI   GL2 4278  13.570   9.000  11.207  0.1182 -0.1126  0.1178
  268loPI   C1A 4279  13.806   8.637  10.694  0.0994 -0.2560 -0.1306
  268loPI   C2A 4280  13.804   8.686  10.234  0.1086  0.2790  0.2009
  268loPI   C3A 4281  13.833   8.711   9.726  0.0441  0.2258  0.2507
  268loPI   C4A 4282  13.922   8.614   9.265  0.1909 -0.2362 -0.0241
  268loPI   C5A 4283  13.839   8.271   8.954  0.2865 -0.1505  0.0399
  268loPI   C6A 4284  13.657   7.841   9.020 -0.2042  0.0622 -0.4546
  268loPI   C1B 4285  13.598   9.094  10.764  0.0109 -0.1029  0.0927
  268loPI   C2B 4286  13.548   9.122  10.386  0.3127  0.0888  0.0329
  268loPI   C3B 4287  13.667   9.178   9.955  0.3524 -0.0611 -0.1951
  268loPI   C4B 4288  13.592   9.216   9.484 -0.0651 -0.0199 -0.0696
  269loPI    C1 4289  16.283  12.981  12.122 -0.1434  0.0241  0.0823
  269loPI    C2 4290  16.082  12.765  11.853  0.0047 -0.0540  0.0330
  269loPI    C3 4291  16.260  12.584  12.162  0.0385  0.0093  0.0507
  269loPI   PO4 4292  16.383  13.165  11.921  0.3370  0.2427  0.2255
  269loPI   GL1 4293  16.430  13.069  11.498 -0.1625 -0.0587 -0.0354
  269loPI   GL2 4294  16.249  13.329  11.388 -0.1407 -0.1218  0.1612
  269loPI   C1A 4295  16.387  12.831  11.023 -0.0963 -0.1472 -0.0775
  269loPI   C2A 4296  16.444  12.892  10.590 -0.0448  0.1974 -0.0329
  269loPI   C3A 4297  16.403  12.979  10.135 -0.1662 -0.0258 -0.2625
  269loPI   C4A 4298  16.410  12.922   9.791  0.0742  0.0426  0.2430
  269loPI   C5A 4299  16.349  12.930   9.318  0.1816  0.2031 -0.1833
  269loPI   C6A 4300  16.435  13.172   8.935  0.1068 -0.0395 -0.0103
  269loPI   C1B 4301  16.252  13.312  10.913  0.1519 -0.1548  0.1930
  269loPI   C2B 4302  16.205  13.394  10.461 -0.2994 -0.0683  0.1309
  269loPI   C3B 4303  16.147  13.410  10.069 -0.1361  0.0733  0.1225
  269loPI   C4B 4304  16.186  13.494   9.720  0.2425  0.0247  0.0671
  270loPI    C1 4305   7.717  15.885  11.920  0.1583  0.0755  0.1524
  270loPI    C2 4306   7.562  15.699  12.238 -0.3421  0.2260  0.0061
  270loPI    C3 4307   7.378  16.019  12.085 -0.0550  0.2134 -0.3783
  270loPI   PO4 4308   7.839  15.745  11.661  0.1700 -0.1200  0.2388
  270loPI   GL1 4309   7.977  15.674  11.224 -0.3248  0.1490  0.2604
  270loPI   GL2 4310   7.699  15.890  11.146 -0.0905 -0.0190 -0.0893
  270loPI   C1A 4311   7.945  15.322  10.912 -0.0975  0.1880  0.2031
  270loPI   C2A 4312   7.923  15.331  10.514  0.0930  0.0010  0.2123
  270loPI   C3A 4313   7.946  15.367  10.077 -0.1977 -0.0136 -0.1235
  270loPI   C4A 4314   7.949  15.213   9.582 -0.1505  0.1631  0.1677
  270loPI   C5A 4315   7.974  15.403   9.210 -0.0345 -0.1728  0.0036
  270loPI   C6A 4316   8.044  15.336   8.732  0.1241 -0.2345 -0.3723
  270loPI   C1B 4317   7.758  15.808  10.697  0.3265 -0.3684  0.0308
  270loPI   C2B 4318   7.721  15.796  10.302  0.1842 -0.2708 -0.0362
  270loPI   C3B 4319   7.669  15.779   9.887  0.1797  0.3782  0.0244
  270loPI   C4B 4320   7.676  15.778   9.378  0.0097  0.0672 -0.1899
  271loPI    C1 4321   8.196   0.727  11.496 -0.0866 -0.0515 -0.0354
  271loPI    C2 4322   8.313   1.049  11.290  0.0222 -0.0279  0.0617
  271loPI    C3 4323   8.232   1.080  11.681 -0.0381 -0.1035  0.0555
  271loPI   PO4 4324   8.040   0.613  11.345  0.2018  0.4065  0.2908
  271loPI   GL1 4325   8.162   0.213  11.187 -0.1864  0.3095 -0.0505
  271loPI   GL2 4326   7.916   0.194  10.993  0.2227  0.0585 -0.0664
  271loPI   C1A 4327   8.475   0.182  10.876 -0.2047  0.1479  0.0626
  271loPI   C2A 4328   8.408   0.199  10.478 -0.2715 -0.0129  0.0166
  271loPI   C3A 4329   8.430   0.203  10.143  0.0875  0.0626 -0.1112
  271loPI   C4A 4330   8.377   0.169   9.819  0.0561  0.1956 -0.2950
  271loPI   C5A 4331   8.323   0.267   9.413  0.0248  0.0432  0.1528
  271loPI   C6A 4332   8.448   0.668   9.102 -0.0612  0.3083  0.3600
  271loPI   C1B 4333   7.908   0.212  10.546  0.0545 -0.2260 -0.2122
  271loPI   C2B 4334   7.941   0.228  10.097  0.4730  0.1241 -0.0359
  271loPI   C3B 4335   7.796   0.186   9.633  0.1378 -0.0818  0.0856
  271loPI   C4B 4336   7.730   0.272   9.229  0.0201  0.0331  0.1919
  272loPI    C1 4337   8.660   7.492  11.466 -0.1875  0.1194 -0.0133
  272loPI    C2 4338   8.556   7.485  11.852 -0.1116  0.2918  0.0113
  272loPI    C3 4339   8.932   7.401  11.745 -0.1456  0.1915 -0.0306
  272loPI   PO4 4340   8.473   7.346  11.330  0.0818 -0.0866 -0.0934
  272loPI   GL1 4341   8.316   7.297  10.968  0.2638 -0.2116  0.0716
  272loPI   GL2 4342   8.012   7.476  10.807 -0.3100  0.1017  0.0207
  272loPI   C1A 4343   8.489   7.439  10.563 -0.0923  0.1537  0.2659
  272loPI   C2A 4344   8.546   7.358  10.158  0.0702 -0.2098 -0.0188
  272loPI   C3A 4345   8.519   7.411   9.697  0.1371  0.3396  0.1422
  272loPI   C4A 4346   8.549   7.447   9.242  0.0727  0.2848 -0.0368
  272loPI   C5A 4347   8.658   7.259   8.959  0.0329 -0.3685  0.0124
  272loPI   C6A 4348   8.441   7.079   8.563 -0.0327  0.1428 -0.0833
  272loPI   C1B 4349   8.003   7.452  10.384  0.0876 -0.0191 -0.1500
  272loPI   C2B 4350   8.062   7.365   9.935 -0.0747  0.1518  0.2541
  272loPI   C3B 4351   7.936   7.529   9.582  0.3065 -0.2593  0.0043
  272loPI   C4B 4352   7.899   7.518   9.178 -0.1820  0.0432  0.1142
  273loPI    C1 4353   5.876  16.490  11.442  0.1155 -0.3689  0.3646
  273loPI    C2 4354   5.576  16.236  11.514 -0.0685 -0.1661  0.3212
  273loPI    C3 4355   5.689  16.496  11.796 -0.0874 -0.0869  0.2559
  273loPI   PO4 4356   5.874  16.582  11.282 -0.2415  0.0005 -0.0855
  273loPI   GL1 4357   6.004  16.494  10.868  0.1824  0.0941  0.1279
  273loPI   GL2 4358   6.266  16.771  10.906 -0.0792  0.1869  0.2595
  273loPI   C1A 4359   5.955  16.349  10.497  0.0266  0.0066  0.1105
  273loPI   C2A 4360   5.934  16.368  10.118  0.2501 -0.1483 -0.2350
  273loPI   C3A 4361   5.862  16.414   9.615 -0.1841  0.1833  0.0351
  273loPI   C4A 4362   5.777  16.347   9.234  0.1011  0.0741 -0.1794
  273loPI   C5A 4363   5.857  16.409   8.878  0.1532 -0.1901 -0.1067
  273loPI   C6A 4364   6.226  16.024   8.586  0.0401  0.3729  0.2012
  273loPI   C1B 4365   6.226  16.736  10.418  0.0204 -0.2596 -0.0162
  273loPI   C2B 4366   6.189  16.804   9.986  0.1893  0.1041 -0.1052
  273loPI   C3B 4367   6.222  16.813   9.546 -0.1334 -0.4009 -0.1721
  273loPI   C4B 4368   6.272  16.535   9.213  0.0485  0.0551  0.1049
  274loPI    C1 4369   0.643  11.512  12.042 -0.2217 -0.3022  0.2826
  274loPI    C2 4370   0.582  11.769  12.342  0.1352 -0.1237  0.2077
  274loPI    C3 4371   0.852  11.476  12.382  0.0953 -0.1747  0.1053
  274loPI   PO4 4372   0.425  11.416  11.949 -0.3705  0.0956 -0.0699
  274loPI   GL1 4373   0.241  11.486  11.410 -0.0561 -0.0995 -0.2085
  274loPI   GL2 4374   0.269  11.398  11.114 -0.1059 -0.1255 -0.1846
  274loPI   C1A 4375  -0.181  11.540  11.223 -0.0748  0.1816 -0.1029
  274loPI   C2A 4376  -0.256  11.548  10.839  0.0313 -0.0042 -0.2839
  274loPI   C3A 4377  -0.334  11.449  10.436 -0.0701 -0.3630 -0.1000
  274loPI   C4A 4378  -0.415  11.587  10.011  0.5848  0.0821  0.1958
  274loPI   C5A 4379  -0.244  11.629   9.582  0.0735  0.0357 -0.0817
  274loPI   C6A 4380  -0.328  11.997   9.235  0.5402  0.0896  0.2704
  274loPI   C1B 4381   0.240  11.431  10.664  0.1939 -0.3564  0.1152
  274loPI   C2B 4382   0.212  11.418  10.222  0.2520  0.3834 -0.0430
  274loPI   C3B 4383   0.277  11.478   9.826 -0.0310  0.1503 -0.1658
  274loPI   C4B 4384   0.689  11.470   9.553 -0.3853  0.1508  0.0349
  275loPI    C1 4385  12.446   8.668  11.692 -0.0239 -0.2599 -0.0794
  275loPI    C2 4386  12.801   8.737  11.521 -0.1025 -0.0601 -0.1655
  275loPI    C3 4387  12.722   8.886  11.883 -0.2009  0.1405 -0.2682
  275loPI   PO4 4388  12.303   8.664  11.437  0.2738 -0.1339 -0.0816
  275loPI   GL1 4389  12.466   8.811  11.061  0.0313 -0.1370 -0.0290
  275loPI   GL2 4390  12.172   8.615  10.951 -0.1044  0.1104  0.0954
  275loPI   C1A 4391  12.759   8.761  10.692  0.1106 -0.0371 -0.0682
  275loPI   C2A 4392  12.798   8.778  10.282  0.1015 -0.1131  0.1538
  275loPI   C3A 4393  12.826   8.816   9.895  0.0178 -0.1239  0.0173
  275loPI   C4A 4394  12.737   8.914   9.582 -0.1576  0.1077 -0.1965
  275loPI   C5A 4395  12.805   8.825   9.225  0.2565  0.2334  0.0766
  275loPI   C6A 4396  12.527   8.561   8.986 -0.0472  0.2188  0.0863
  275loPI   C1B 4397  12.280   8.847  10.575  0.0421 -0.0942  0.0857
  275loPI   C2B 4398  12.317   8.824  10.105 -0.0180  0.2598 -0.1767
  275loPI   C3B 4399  12.272   8.851   9.732  0.1318 -0.0829  0.2679
  275loPI   C4B 4400  12.254   8.933   9.293 -0.0383  0.2206 -0.1418
  276loPI    C1 4401   4.028   9.019  11.785  0.0221 -0.3325  0.1519
  276loPI    C2 4402   4.291   9.234  11.995  0.0186 -0.2468  0.0689
  276loPI    C3 4403   4.025   9.003  12.184 -0.1309  0.0016  0.1669
  276loPI   PO4 4404   4.282   8.920  11.506  0.0495  0.0979  0.0915
  276loPI   GL1 4405   4.282   8.789  11.047  0.1131 -0.1268  0.0646
  276loPI   GL2 4406   4.007   8.921  10.974  0.0120 -0.0571  0.6150
  276loPI   C1A 4407   4.373   8.698  10.655  0.5325 -0.0245 -0.1237
  276loPI   C2A 4408   4.425   8.674  10.266 -0.0746  0.3261 -0.1027
  276loPI   C3A 4409   4.357   8.709   9.850  0.0256  0.1226 -0.0934
  276loPI   C4A 4410   4.252   8.829   9.528 -0.2384 -0.2508  0.0911
  276loPI   C5A 4411   4.305   8.675   9.091  0.0454 -0.0689 -0.0934
  276loPI   C6A 4412   4.408   8.385   8.838 -0.1921  0.1827  0.1084
  276loPI   C1B 4413   3.912   8.757  10.501 -0.1262 -0.2939  0.4144
  276loPI   C2B 4414   3.924   8.765  10.115  0.0021  0.1792 -0.2449
  276loPI   C3B 4415   3.837   8.888   9.801  0.1429  0.1605  0.1286
  276loPI   C4B 4416   3.756   8.810   9.338  0.1415 -0.2979  0.0359
  277loPI    C1 4417  17.224   1.592  11.313 -0.1820 -0.0174  0.1912
  277loPI    C2 4418  17.462   1.794  11.063 -0.0081 -0.3797  0.0567
  277loPI    C3 4419  17.418   1.918  11.441 -0.2611  0.1646 -0.1413
  277loPI   PO4 4420  17.019   1.494  11.161 -0.1156  0.2885 -0.2063
  277loPI   GL1 4421  16.768   1.359  10.826 -0.1245  0.0946 -0.1399
  277loPI   GL2 4422  16.924   1.041  10.914 -0.0572 -0.2164 -0.2115
  277loPI   C1A 4423  16.714   1.382  10.411 -0.1277 -0.0866 -0.2602
  277loPI   C2A 4424  16.751   1.468   9.995 -0.1935 -0.2016 -0.1893
  277loPI   C3A 4425  16.993   1.730   9.804  0.1344 -0.0639 -0.4501
  277loPI   C4A 4426  17.050   1.897   9.330  0.0351  0.1072 -0.1465
  277loPI   C5A 4427  17.067   1.973   8.925 -0.1074 -0.0394  0.0176
  277loPI   C6A 4428  17.014   2.390   8.699  0.4704  0.0920  0.1762
  277loPI   C1B 4429  16.912   0.959  10.537 -0.0855 -0.0968 -0.0207
  277loPI   C2B 4430  16.914   0.973  10.098 -0.2039 -0.0451  0.0036
  277loPI   C3B 4431  16.942   1.057   9.671 -0.4908 -0.1481 -0.3893
  277loPI   C4B 4432  17.176   1.408   9.378  0.1447  0.1892 -0.0794
  278loPI    C1 4433   8.543  17.023  11.643  0.2981 -0.2669  0.1370
  278loPI    C2 4434   8.487  17.327  11.897  0.1977 -0.2300  0.0717
  278loPI    C3 4435   8.324  16.970  11.973 -0.0224 -0.1577 -0.0532
  278loPI   PO4 4436   8.507  17.186  11.390  0.0389  0.0235  0.0434
  278loPI   GL1 4437   8.677  17.025  10.924 -0.0078 -0.1440  0.3558
  278loPI   GL2 4438   8.562  16.736  11.162 -0.0473  0.1941 -0.2042
  278loPI   C1A 4439   8.588  17.073  10.566 -0.1566 -0.1767  0.1275
  278loPI   C2A 4440   8.679  17.020  10.194 -0.0275  0.1984  0.1902
  278loPI   C3A 4441   8.582  17.069   9.855  0.2692  0.1520  0.1172
  278loPI   C4A 4442   8.465  17.116   9.386  0.0432  0.0100  0.2092
  278loPI   C5A 4443   8.358  17.135   8.903 -0.0980  0.1691  0.0018
  278loPI   C6A 4444   8.155  17.136   8.395  0.2971 -0.1939 -0.3780
  278loPI   C1B 4445   8.409  16.608  10.719 -0.1502  0.0989  0.1065
  278loPI   C2B 4446   8.301  16.640  10.333 -0.1681  0.1794 -0.0237
  278loPI   C3B 4447   8.271  16.607   9.942 -0.3453 -0.2687 -0.3239
  278loPI   C4B 4448   8.329  16.673   9.585 -0.2152  0.0391  0.1287
  279loPI    C1 4449  10.337  13.406  11.712  0.0274  0.1541 -0.2257
  279loPI    C2 4450  10.182  13.775  11.709  0.0484  0.1690  0.0966
  279loPI    C3 4451  10.192  13.565  12.049  0.1645 -0.0762 -0.0548
  279loPI   PO4 4452  10.450  13.414  11.406 -0.1018 -0.0530  0.0080
  279loPI   GL1 4453  10.711  13.580  11.060  0.1109  0.0187 -0.2294
  279loPI   GL2 4454  10.881  13.440  11.105  0.0313  0.2497  0.0736
  279loPI   C1A 4455  10.790  13.733  10.712  0.0061  0.3736 -0.1669
  279loPI   C2A 4456  10.780  13.729  10.310  0.2751 -0.1073 -0.0054
  279loPI   C3A 4457  10.642  13.689   9.856  0.3179 -0.3128  0.1187
  279loPI   C4A 4458  10.680  13.633   9.455 -0.0810 -0.0329  0.2425
  279loPI   C5A 4459  10.761  13.488   9.028 -0.1917 -0.0589 -0.1144
  279loPI   C6A 4460  10.867  13.439   8.630 -0.2167 -0.1076  0.0453
  279loPI   C1B 4461  10.952  13.205  10.680 -0.0558 -0.1139 -0.3522
  279loPI   C2B 4462  10.900  13.179  10.224  0.0181  0.1326 -0.1607
  279loPI   C3B 4463  10.799  13.207   9.854 -0.1835 -0.1718 -0.0773
  279loPI   C4B 4464  10.847  13.160   9.421 -0.3336 -0.1428  0.2246
  280loPI    C1 4465   4.647   3.662  11.545 -0.0502  0.1851  0.1876
  280loPI    C2 4466   4.721   3.415  11.852 -0.1301 -0.0607  0.0124
  280loPI    C3 4467   4.430   3.689  11.880 -0.0990 -0.0434  0.1759
  280loPI   PO4 4468   4.637   3.479  11.304 -0.1893 -0.0327 -0.5008
  280loPI   GL1 4469   4.581   3.540  10.933  0.0884 -0.4041  0.2098
  280loPI   GL2 4470   4.315   3.730  10.743  0.2759  0.0997 -0.0300
  280loPI   C1A 4471   4.636   3.438  10.537 -0.3768  0.2075  0.0858
  280loPI   C2A 4472   4.682   3.591  10.028 -0.0726  0.2532  0.1549
  280loPI   C3A 4473   4.810   3.704   9.638 -0.0993  0.1252 -0.1683
  280loPI   C4A 4474   4.716   3.525   9.297 -0.0128  0.0306 -0.0073
  280loPI   C5A 4475   4.810   3.387   8.943  0.0912 -0.2078 -0.1648
  280loPI   C6A 4476   4.760   3.595   8.539 -0.0060 -0.0317  0.0281
  280loPI   C1B 4477   4.297   3.728  10.348 -0.0693 -0.0048 -0.3305
  280loPI   C2B 4478   4.246   3.708   9.896  0.1714 -0.3313  0.1485
  280loPI   C3B 4479   4.207   3.790   9.477  0.0360  0.3036  0.0088
  280loPI   C4B 4480   4.227   3.688   9.033  0.0012 -0.4608 -0.2474
  281loPI    C1 4481   8.450   5.183  11.692  0.3089  0.1178 -0.0866
  281loPI    C2 4482   8.490   5.541  11.866  0.1289  0.0215  0.1578
  281loPI    C3 4483   8.317   5.240  12.065 -0.1286 -0.0772 -0.2063
  281loPI   PO4 4484   8.411   5.250  11.417  0.0314 -0.2012  0.0486
  281loPI   GL1 4485   8.102   5.397  11.067 -0.0151 -0.2206  0.1603
  281loPI   GL2 4486   8.021   5.156  10.960  0.1169 -0.1075 -0.0994
  281loPI   C1A 4487   8.249   5.560  10.606  0.0548  0.3548  0.5793
  281loPI   C2A 4488   8.293   5.731  10.174  0.0616  0.1376  0.1666
  281loPI   C3A 4489   8.311   5.614   9.768  0.0425  0.0695  0.4746
  281loPI   C4A 4490   8.293   5.521   9.254  0.1808 -0.0890  0.0721
  281loPI   C5A 4491   8.615   5.563   8.981 -0.2193  0.0498 -0.0698
  281loPI   C6A 4492   8.919   5.248   8.844  0.0725  0.2727 -0.0064
  281loPI   C1B 4493   7.945   5.124  10.542 -0.0251 -0.0118 -0.0625
  281loPI   C2B 4494   8.005   5.261  10.105 -0.0304 -0.0768  0.3385
  281loPI   C3B 4495   8.006   5.204   9.559  0.2664 -0.1910  0.0596
  281loPI   C4B 4496   7.789   5.417   9.134 -0.1659  0.1337 -0.0055
  282loPI    C1 4497  12.169  16.378  11.849  0.2044  0.1024 -0.0624
  282loPI    C2 4498  12.060  16.725  12.015  0.1067  0.0661 -0.0499
  282loPI    C3 4499  12.126  16.405  12.246 -0.2058 -0.0324 -0.0927
  282loPI   PO4 4500  12.233  16.333  11.541  0.1910 -0.0192  0.3021
  282loPI   GL1 4501  12.301  16.099  11.201 -0.0708 -0.2651  0.1044
  282loPI   GL2 4502  12.540  16.270  11.075  0.0218  0.2282 -0.3523
  282loPI   C1A 4503  12.212  15.934  10.832 -0.1439  0.4238 -0.1516
  282loPI   C2A 4504  12.079  15.811  10.424  0.0147  0.1420  0.0390
  282loPI   C3A 4505  12.160  15.806  10.036  0.0487  0.2987  0.0265
  282loPI   C4A 4506  12.168  15.695   9.626 -0.1826 -0.0991 -0.1072
  282loPI   C5A 4507  12.416  15.659   9.240 -0.0637 -0.0898  0.0104
  282loPI   C6A 4508  12.516  15.926   8.802 -0.3466 -0.0061 -0.1368
  282loPI   C1B 4509  12.496  16.307  10.702 -0.1550  0.0824 -0.0409
  282loPI   C2B 4510  12.435  16.268  10.320  0.1728 -0.4911  0.0802
  282loPI   C3B 4511  12.470  16.196   9.865  0.0739  0.1671  0.1818
  282loPI   C4B 4512  12.439  16.159   9.450 -0.0146 -0.0175  0.0464
  283loPI    C1 4513  10.148   7.287  12.129  0.0358  0.1196 -0.1272
  283loPI    C2 4514  10.528   7.400  12.184  0.0785 -0.0354 -0.1009
  283loPI    C3 4515  10.381   7.086  12.384 -0.0972  0.0929 -0.0260
  283loPI   PO4 4516  10.102   7.439  11.705  0.1981  0.0178  0.0449
  283loPI   GL1 4517  10.139   7.362  11.277 -0.0385  0.1592  0.0583
  283loPI   GL2 4518  10.483   7.251  11.215  0.3392  0.0881 -0.0222
  283loPI   C1A 4519  10.102   7.603  10.873  0.1657  0.0392 -0.1118
  283loPI   C2A 4520  10.264   7.718  10.475  0.0614 -0.0970  0.3879
  283loPI   C3A 4521  10.317   7.737  10.068 -0.2400  0.0498  0.0656
  283loPI   C4A 4522  10.322   7.782   9.696 -0.3514 -0.2203  0.2965
  283loPI   C5A 4523  10.281   7.745   9.239 -0.0514 -0.0632 -0.0105
  283loPI   C6A 4524  10.076   7.813   8.900 -0.1215 -0.1080  0.0423
  283loPI   C1B 4525  10.485   7.230  10.760 -0.1190 -0.0099 -0.2142
  283loPI   C2B 4526  10.502   7.292  10.289 -0.1937  0.0724  0.1222
  283loPI   C3B 4527  10.588   7.322   9.907  0.1957 -0.1468  0.1843
  283loPI   C4B 4528  10.427   7.348   9.476 -0.0705  0.0090  0.0459
  284loPI    C1 4529   8.696  14.426  11.941 -0.0743  0.0911 -0.0483
  284loPI    C2 4530   8.913  14.101  11.856  0.1184  0.1371  0.2547
  284loPI    C3 4531   8.515  14.074  11.883  0.1108 -0.0161  0.0154
  284loPI   PO4 4532   8.753  14.511  11.655  0.1576 -0.0266  0.1029
  284loPI   GL1 4533   8.747  14.596  11.151  0.0350  0.1524 -0.0606
  284loPI   GL2 4534   8.923  14.399  10.935  0.0805  0.3085  0.3588
  284loPI   C1A 4535   8.626  14.815  10.786  0.1334 -0.1040  0.0778
  284loPI   C2A 4536   8.624  14.832  10.306  0.3097  0.0914 -0.1266
  284loPI   C3A 4537   8.618  14.849   9.950 -0.0705 -0.0810  0.0203
  284loPI   C4A 4538   8.596  14.755   9.586  0.0234  0.2649  0.2667
  284loPI   C5A 4539   8.694  14.915   9.125 -0.1643  0.1429 -0.3743
  284loPI   C6A 4540   8.738  15.203   8.879  0.0103 -0.3152  0.3834
  284loPI   C1B 4541   8.944  14.552  10.567  0.1987 -0.1603 -0.0542
  284loPI   C2B 4542   9.006  14.531  10.089  0.2527 -0.2598  0.0411
  284loPI   C3B 4543   9.088  14.629   9.669 -0.2101  0.0064  0.1586
  284loPI   C4B 4544   9.156  14.584   9.251  0.2573 -0.1393 -0.0364
  285loPI    C1 4545  15.861  10.360  12.086 -0.3676  0.1838  0.1113
  285loPI    C2 4546  15.727  10.060  12.314  0.0099 -0.0584  0.0230
  285loPI    C3 4547  15.888  10.385  12.484  0.1187 -0.1559  0.1079
  285loPI   PO4 4548  15.782  10.276  11.843  0.3140 -0.0662 -0.0471
  285loPI   GL1 4549  15.860  10.377  11.364  0.1572  0.1382  0.1835
  285loPI   GL2 4550  15.527  10.582  11.208  0.0339  0.1113 -0.0473
  285loPI   C1A 4551  16.121  10.187  10.968 -0.0183 -0.2245  0.5370
  285loPI   C2A 4552  16.208  10.281  10.579  0.1070  0.3289  0.1906
  285loPI   C3A 4553  16.103  10.281  10.066  0.1308 -0.1246  0.0625
  285loPI   C4A 4554  16.140  10.286   9.708 -0.2112 -0.0038  0.0961
  285loPI   C5A 4555  16.126  10.327   9.279 -0.3369 -0.0271 -0.2594
  285loPI   C6A 4556  16.391  10.475   8.973  0.0018 -0.3556  0.0639
  285loPI   C1B 4557  15.449  10.796  10.850  0.1408  0.2827  0.1166
  285loPI   C2B 4558  15.435  10.770  10.391 -0.0779 -0.0440  0.2749
  285loPI   C3B 4559  15.358  10.830   9.980  0.1555 -0.0550 -0.0637
  285loPI   C4B 4560  15.393  10.956   9.608  0.1471 -0.3818 -0.0716
  286loPI    C1 4561   3.131  16.674  11.616  0.0543  0.2032 -0.0786
  286loPI    C2 4562   2.849  16.654  11.898  0.1415 -0.1480 -0.0114
  286loPI    C3 4563   3.224  16.752  11.997  0.0774  0.1798 -0.0795
  286loPI   PO4 4564   3.029  16.825  11.456  0.4364 -0.1183 -0.1552
  286loPI   GL1 4565   2.947  17.117  11.256 -0.0562 -0.0521 -0.0444
  286loPI   GL2 4566   3.395  17.090  11.246  0.1745 -0.1690  0.1038
  286loPI   C1A 4567   3.000  17.194  10.820 -0.0743  0.0486  0.1093
  286loPI   C2A 4568   3.131  17.035  10.434  0.1849 -0.2477  0.1478
  286loPI   C3A 4569   3.074  17.133   9.997 -0.0898  0.2282 -0.0449
  286loPI   C4A 4570   3.136  17.023   9.586 -0.3253  0.3134  0.0932
  286loPI   C5A 4571   2.957  16.984   9.235 -0.3093 -0.1307  0.1580
  286loPI   C6A 4572   2.917  16.603   9.029 -0.1541  0.1289  0.3467
  286loPI   C1B 4573   3.546  17.037  10.840 -0.2497 -0.0170 -0.2516
  286loPI   C2B 4574   3.724  17.017  10.421  0.1962 -0.2869 -0.0636
  286loPI   C3B 4575   3.532  17.027  10.100 -0.2039  0.0845 -0.0521
  286loPI   C4B 4576   3.663  16.948   9.750 -0.1379 -0.1378  0.2762
  287loPI    C1 4577  14.533  11.675  11.849 -0.1039 -0.0327 -0.2297
  287loPI    C2 4578  14.453  11.283  11.849 -0.1191 -0.0300 -0.1199
  287loPI    C3 4579  14.545  11.469  12.192  0.3758 -0.0357 -0.2415
  287loPI   PO4 4580  14.682  11.674  11.685 -0.3299  0.2231  0.0324
  287loPI   GL1 4581  14.711  11.753  11.305 -0.0604  0.1768  0.1636
  287loPI   GL2 4582  14.838  11.541  11.096 -0.3103  0.1245 -0.0291
  287loPI   C1A 4583  14.687  12.025  10.964 -0.0554  0.0737 -0.0265
  287loPI   C2A 4584  14.712  12.212  10.573 -0.1365  0.1966 -0.0254
  287loPI   C3A 4585  14.760  12.232  10.144 -0.1578  0.2325 -0.0556
  287loPI   C4A 4586  14.817  12.344   9.790 -0.1759  0.1665 -0.0640
  287loPI   C5A 4587  14.809  12.307   9.227 -0.1131 -0.0692  0.1235
  287loPI   C6A 4588  15.009  12.505   8.733 -0.1676  0.3231 -0.1720
  287loPI   C1B 4589  14.954  11.695  10.734  0.4086 -0.2774 -0.2264
  287loPI   C2B 4590  14.950  11.694  10.341  0.0764 -0.4395 -0.1984
  287loPI   C3B 4591  14.915  11.735   9.971 -0.5300 -0.2885 -0.1200
  287loPI   C4B 4592  15.075  11.880   9.532  0.1650  0.5172  0.1473
  288loPI    C1 4593   1.874  14.279  12.236 -0.0902 -0.0489 -0.0862
  288loPI    C2 4594   1.768  14.450  12.582  0.1799  0.0041 -0.0273
  288loPI    C3 4595   1.910  14.076  12.579  0.4202  0.0939 -0.0473
  288loPI   PO4 4596   1.839  14.455  12.064  0.0560 -0.0975  0.1137
  288loPI   GL1 4597   1.803  14.454  11.591 -0.1377  0.1137  0.1692
  288loPI   GL2 4598   1.588  14.316  11.533 -0.4158  0.0284  0.0448
  288loPI   C1A 4599   1.870  14.540  11.103  0.1135  0.1963  0.1159
  288loPI   C2A 4600   1.808  14.438  10.685  0.1225 -0.2333 -0.0398
  288loPI   C3A 4601   1.827  14.372  10.324  0.0172  0.1253  0.0337
  288loPI   C4A 4602   1.808  14.432   9.885  0.1296 -0.1140  0.0081
  288loPI   C5A 4603   1.704  14.457   9.512  0.0782  0.3655 -0.2304
  288loPI   C6A 4604   1.575  14.746   9.179  0.0896 -0.3751  0.0019
  288loPI   C1B 4605   1.601  14.075  11.170  0.1504  0.0454 -0.0456
  288loPI   C2B 4606   1.607  14.007  10.790  0.1122  0.0818  0.1509
  288loPI   C3B 4607   1.456  13.978  10.448 -0.4049  0.1517 -0.0060
  288loPI   C4B 4608   1.491  14.005  10.032  0.0235  0.1579  0.0137
  289loPI    C1 4609  12.417   1.372  11.494  0.0123  0.2331  0.1124
  289loPI    C2 4610  12.690   1.519  11.747  0.1821  0.1347 -0.0112
  289loPI    C3 4611  12.439   1.233  11.869  0.3261  0.0204  0.0192
  289loPI   PO4 4612  12.573   1.249  11.243 -0.0317 -0.1680 -0.0171
  289loPI   GL1 4613  12.473   1.098  10.845 -0.3657  0.0754  0.2944
  289loPI   GL2 4614  12.296   0.843  10.913 -0.1025 -0.2205 -0.1316
  289loPI   C1A 4615  12.459   1.170  10.459  0.3687 -0.0349  0.1804
  289loPI   C2A 4616  12.555   1.030   9.996 -0.1679  0.0009 -0.2205
  289loPI   C3A 4617  12.609   1.128   9.635 -0.0517 -0.0035  0.0183
  289loPI   C4A 4618  12.671   1.104   9.202 -0.2593 -0.0998  0.0102
  289loPI   C5A 4619  12.642   1.390   8.860 -0.0100 -0.2224 -0.1608
  289loPI   C6A 4620  12.465   1.765   8.813  0.0569 -0.0456  0.0694
  289loPI   C1B 4621  12.126   0.771  10.625  0.1071 -0.1051 -0.1870
  289loPI   C2B 4622  12.166   0.691  10.242  0.1618 -0.1024  0.1643
  289loPI   C3B 4623  12.281   0.744   9.733 -0.1913  0.0050 -0.0754
  289loPI   C4B 4624  12.318   0.765   9.387 -0.4256  0.2577 -0.0470
  290loPI    C1 4625   9.676   4.764  11.431  0.2763 -0.0715 -0.1473
  290loPI    C2 4626   9.574   5.146  11.493 -0.1476 -0.2312  0.1948
  290loPI    C3 4627   9.815   4.959  11.752  0.2599 -0.1325 -0.1028
  290loPI   PO4 4628   9.771   4.759  11.180 -0.0654 -0.0122  0.4406
  290loPI   GL1 4629   9.714   4.986  10.868  0.0132  0.0498  0.3290
  290loPI   GL2 4630   9.842   5.200  11.043 -0.4403 -0.2164 -0.3461
  290loPI   C1A 4631   9.717   5.105  10.452  0.0421  0.1037 -0.0438
  290loPI   C2A 4632   9.662   5.129  10.051  0.0299 -0.2662  0.0734
  290loPI   C3A 4633   9.559   4.953   9.621 -0.1604 -0.0124  0.4438
  290loPI   C4A 4634   9.655   5.058   9.240 -0.0506 -0.5236 -0.2720
  290loPI   C5A 4635   9.704   5.334   8.871  0.2876 -0.0178 -0.1783
  290loPI   C6A 4636   9.527   5.382   8.491 -0.2583 -0.1550 -0.0256
  290loPI   C1B 4637   9.871   5.508  10.724 -0.1108 -0.2044 -0.1927
  290loPI   C2B 4638   9.957   5.525  10.284 -0.0677  0.0668 -0.2443
  290loPI   C3B 4639   9.967   5.600   9.939 -0.0693 -0.0135 -0.2218
  290loPI   C4B 4640   9.906   5.403   9.646 -0.0313  0.0516  0.0324
  291loPI    C1 4641  12.834   1.001  11.772  0.0192 -0.0055  0.0833
  291loPI    C2 4642  12.963   0.655  11.926  0.1660 -0.0967 -0.2359
  291loPI    C3 4643  12.578   0.758  11.960  0.1641 -0.1879  0.0474
  291loPI   PO4 4644  12.939   1.016  11.586 -0.0587 -0.3236  0.0157
  291loPI   GL1 4645  13.053   1.101  11.183 -0.0574 -0.0092  0.0358
  291loPI   GL2 4646  13.343   1.152  11.047 -0.0132 -0.0831  0.0091
  291loPI   C1A 4647  12.942   1.112  10.754  0.1092  0.1431  0.0076
  291loPI   C2A 4648  12.994   1.038  10.348 -0.1064  0.0964 -0.0657
  291loPI   C3A 4649  13.099   1.070   9.934 -0.1063 -0.0851 -0.0116
  291loPI   C4A 4650  13.122   1.031   9.444  0.2131  0.2641 -0.2773
  291loPI   C5A 4651  13.509   0.895   9.062  0.2472 -0.3316  0.2194
  291loPI   C6A 4652  13.837   0.884   8.731 -0.0045 -0.1635  0.1180
  291loPI   C1B 4653  13.485   1.041  10.714  0.1201 -0.0649  0.0582
  291loPI   C2B 4654  13.494   0.963  10.301 -0.1424  0.0022  0.0781
  291loPI   C3B 4655  13.579   0.877   9.893  0.0099 -0.0437  0.1278
  291loPI   C4B 4656  13.724   0.988   9.520  0.4476 -0.2420 -0.0327
  292loPI    C1 4657   1.604  11.738  11.864  0.1277  0.0591  0.2440
  292loPI    C2 4658   1.559  11.373  11.707  0.0781  0.2024 -0.0829
  292loPI    C3 4659   1.624  11.415  12.100 -0.1385 -0.1448 -0.0057
  292loPI   PO4 4660   1.411  11.908  11.726  0.1892 -0.0610  0.1185
  292loPI   GL1 4661   1.118  11.934  11.356 -0.0783  0.1237 -0.0046
  292loPI   GL2 4662   1.405  11.717  11.202 -0.1912 -0.1629  0.1542
  292loPI   C1A 4663   1.042  11.898  10.955 -0.3293 -0.1956  0.1193
  292loPI   C2A 4664   1.080  11.856  10.555 -0.2695  0.1140 -0.0211
  292loPI   C3A 4665   1.054  11.850  10.119  0.0171 -0.0945 -0.6601
  292loPI   C4A 4666   1.041  11.923   9.739 -0.0582  0.0044  0.0244
  292loPI   C5A 4667   1.109  11.791   9.291 -0.1686 -0.0169  0.0861
  292loPI   C6A 4668   0.883  11.974   8.910  0.0864 -0.1521  0.2679
  292loPI   C1B 4669   1.527  11.730  10.815  0.3089 -0.3012 -0.0745
  292loPI   C2B 4670   1.555  11.746  10.304 -0.2804  0.0423  0.0750
  292loPI   C3B 4671   1.516  11.856   9.862  0.2852  0.1661 -0.1148
  292loPI   C4B 4672   1.547  11.744   9.453 -0.0730  0.2058  0.0881
  293loPI    C1 4673  13.063   2.093  11.304  0.0664  0.1048 -0.2442
  293loPI    C2 4674  13.046   2.475  11.188 -0.1384  0.1621 -0.0336
  293loPI    C3 4675  12.933   2.373  11.558 -0.0749 -0.1020 -0.0846
  293loPI   PO4 4676  13.138   2.032  10.950  0.2418 -0.3502 -0.0071
  293loPI   GL1 4677  13.284   1.631  10.698  0.0921  0.0325  0.0888
  293loPI   GL2 4678  13.232   1.430  10.540 -0.3304 -0.1455  0.0105
  293loPI   C1A 4679  13.192   1.927  10.338  0.2436 -0.2625 -0.1233
  293loPI   C2A 4680  13.196   1.893   9.947  0.1487  0.2034 -0.1199
  293loPI   C3A 4681  13.307   1.892   9.542 -0.1574 -0.3886 -0.0673
  293loPI   C4A 4682  13.384   1.850   9.082  0.1236  0.0528  0.1461
  293loPI   C5A 4683  13.603   1.552   8.837  0.0178 -0.1696 -0.0883
  293loPI   C6A 4684  13.505   1.315   8.551 -0.2293  0.1525 -0.0740
  293loPI   C1B 4685  13.426   1.466  10.137  0.0086 -0.0898  0.0239
  293loPI   C2B 4686  13.430   1.406   9.686  0.1559 -0.0351  0.3724
  293loPI   C3B 4687  13.394   1.421   9.318 -0.1309 -0.1584 -0.2865
  293loPI   C4B 4688  13.150   1.295   8.991  0.1359  0.3133 -0.2514
  294loPI    C1 4689  10.873   6.946  11.800  0.1016  0.1286 -0.0204
  294loPI    C2 4690  10.520   6.842  11.957  0.2113  0.0444  0.1744
  294loPI    C3 4691  10.827   6.932  12.198  0.3312  0.0897  0.0065
  294loPI   PO4 4692  10.877   6.977  11.637 -0.1709 -0.1220  0.0241
  294loPI   GL1 4693  11.028   6.781  11.196 -0.0377 -0.0492  0.0005
  294loPI   GL2 4694  11.072   6.416  11.044 -0.0293  0.0224 -0.1050
  294loPI   C1A 4695  10.981   6.753  10.727  0.1121  0.2197  0.0731
  294loPI   C2A 4696  10.751   6.813  10.274 -0.2768 -0.2056  0.0704
  294loPI   C3A 4697  10.730   6.876   9.795  0.1644 -0.1448 -0.1918
  294loPI   C4A 4698  10.803   7.003   9.391  0.0180 -0.0243  0.1240
  294loPI   C5A 4699  11.197   7.136   9.210 -0.1805 -0.0256 -0.1857
  294loPI   C6A 4700  11.497   7.294   8.951 -0.0970 -0.0850 -0.0276
  294loPI   C1B 4701  11.051   6.196  10.741  0.3711  0.0584  0.0650
  294loPI   C2B 4702  10.956   6.294  10.290 -0.2364  0.0720 -0.1387
  294loPI   C3B 4703  11.037   6.348   9.923  0.0258 -0.0341 -0.2536
  294loPI   C4B 4704  10.930   6.361   9.592 -0.1335  0.0393  0.2189
  295loPI    C1 4705   6.019  16.002  11.887  0.1196 -0.0331  0.1097
  295loPI    C2 4706   5.666  15.850  11.999  0.0974  0.0569  0.1630
  295loPI    C3 4707   5.809  16.177  12.179  0.1520  0.0906  0.0595
  295loPI   PO4 4708   5.985  16.045  11.607 -0.1346 -0.2813 -0.0325
  295loPI   GL1 4709   5.842  15.962  11.193  0.1754 -0.2034  0.1064
  295loPI   GL2 4710   6.125  15.805  11.207  0.0955 -0.0038 -0.1750
  295loPI   C1A 4711   5.568  15.930  10.947 -0.2097  0.5636 -0.3086
  295loPI   C2A 4712   5.571  15.914  10.565  0.0541 -0.0140  0.1252
  295loPI   C3A 4713   5.639  15.871  10.077  0.1896 -0.4226  0.0362
  295loPI   C4A 4714   5.589  15.952   9.645 -0.1724 -0.0845  0.2453
  295loPI   C5A 4715   5.485  15.938   9.224  0.0201 -0.0440  0.1904
  295loPI   C6A 4716   5.784  15.826   8.819 -0.3466 -0.0224 -0.1615
  295loPI   C1B 4717   6.080  15.889  10.716 -0.1898 -0.0201 -0.2501
  295loPI   C2B 4718   6.102  15.905  10.179  0.2909  0.2218 -0.0893
  295loPI   C3B 4719   6.097  15.887   9.817  0.0949  0.0606 -0.0404
  295loPI   C4B 4720   6.074  16.016   9.463  0.3386 -0.0182 -0.2951
  296loPI    C1 4721   3.586   6.353  11.438  0.0453  0.2367 -0.1127
  296loPI    C2 4722   3.656   5.968  11.519 -0.1503  0.2262  0.0143
  296loPI    C3 4723   3.819   6.253  11.747  0.0637  0.2227 -0.1310
  296loPI   PO4 4724   3.746   6.435  11.193 -0.2976 -0.1507 -0.0930
  296loPI   GL1 4725   3.734   6.516  10.834  0.0937  0.1664 -0.4099
  296loPI   GL2 4726   3.461   6.673  10.797 -0.1389  0.4387  0.0442
  296loPI   C1A 4727   3.766   6.598  10.432  0.3839 -0.1897  0.2180
  296loPI   C2A 4728   3.796   6.579  10.012  0.0944 -0.0089  0.4671
  296loPI   C3A 4729   3.843   6.549   9.609 -0.0810  0.3283 -0.0303
  296loPI   C4A 4730   3.865   6.405   9.239  0.0778 -0.0004 -0.0817
  296loPI   C5A 4731   3.900   6.038   8.880  0.2333  0.2100  0.2805
  296loPI   C6A 4732   4.133   5.699   8.784 -0.0779 -0.3084  0.1267
  296loPI   C1B 4733   3.253   6.616  10.466 -0.0718 -0.2439 -0.0804
  296loPI   C2B 4734   3.274   6.613  10.034  0.0774  0.0593  0.0574
  296loPI   C3B 4735   3.218   6.653   9.521  0.1269 -0.1340 -0.1596
  296loPI   C4B 4736   3.063   6.487   9.185  0.1277 -0.0220 -0.1239
  297loPI    C1 4737  10.145  11.868  11.479  0.0435 -0.1698 -0.1697
  297loPI    C2 4738  10.499  11.772  11.638  0.0391  0.2710  0.1238
  297loPI    C3 4739  10.164  11.611  11.784  0.1188 -0.2614 -0.2505
  297loPI   PO4 4740  10.097  11.758  11.255  0.0044 -0.0175 -0.0099
  297loPI   GL1 4741  10.110  11.844  10.923  0.2080 -0.0320  0.1520
  297loPI   GL2 4742  10.242  12.154  10.991  0.2272  0.0648 -0.1801
  297loPI   C1A 4743  10.180  11.917  10.494 -0.1662  0.0226  0.0880
  297loPI   C2A 4744   9.911  11.900  10.164  0.0485  0.1711  0.0816
  297loPI   C3A 4745   9.841  11.883   9.747 -0.1041 -0.1588  0.0699
  297loPI   C4A 4746   9.935  11.838   9.249 -0.1514 -0.0764 -0.1166
  297loPI   C5A 4747   9.995  11.508   8.999  0.0246 -0.0188 -0.3059
  297loPI   C6A 4748  10.087  11.502   8.557 -0.2329 -0.3605  0.1159
  297loPI   C1B 4749  10.351  12.365  10.701 -0.0376  0.2215 -0.1685
  297loPI   C2B 4750  10.225  12.350  10.218  0.3613 -0.0443  0.1531
  297loPI   C3B 4751  10.210  12.321   9.746  0.0285 -0.1979 -0.3760
  297loPI   C4B 4752  10.273  12.317   9.289  0.3184  0.6388 -0.1239
  298loPI    C1 4753   6.793   5.076  11.428  0.1770 -0.1631 -0.0044
  298loPI    C2 4754   7.180   5.061  11.530  0.1550 -0.3147  0.0597
  298loPI    C3 4755   6.899   5.074  11.814  0.1173 -0.0494  0.0129
  298loPI   PO4 4756   6.802   4.861  11.244 -0.2352  0.2482  0.2586
  298loPI   GL1 4757   6.695   4.750  10.837 -0.0412 -0.0240  0.2643
  298loPI   GL2 4758   6.811   4.468  10.886  0.0087  0.1012 -0.1891
  298loPI   C1A 4759   6.644   4.819  10.408 -0.1057  0.1879  0.1404
  298loPI   C2A 4760   6.635   4.876   9.983 -0.0261  0.0361 -0.0985
  298loPI   C3A 4761   6.587   4.864   9.574 -0.3001 -0.3091  0.1027
  298loPI   C4A 4762   6.740   4.938   9.166  0.0540  0.2324  0.1085
  298loPI   C5A 4763   6.806   4.999   8.669 -0.2037 -0.1288 -0.1011
  298loPI   C6A 4764   6.923   5.063   8.185  0.0261  0.2541 -0.0684
  298loPI   C1B 4765   6.884   4.327  10.470  0.1386 -0.2220 -0.0915
  298loPI   C2B 4766   6.860   4.391  10.057  0.1318 -0.1084  0.1690
  298loPI   C3B 4767   6.821   4.443   9.579  0.0609  0.0497 -0.4192
  298loPI   C4B 4768   6.929   4.376   9.227 -0.0223  0.1472 -0.0740
  299loPI    C1 4769  13.559   4.543  10.951  0.1639  0.0662 -0.1224
  299loPI    C2 4770  13.572   4.923  10.828 -0.0993  0.0933 -0.0734
  299loPI    C3 4771  13.577   4.840  11.219  0.0131  0.0426 -0.0853
  299loPI   PO4 4772  13.782   4.464  10.787 -0.2489  0.2796 -0.0306
  299loPI   GL1 4773  14.071   4.610  10.406  0.0298 -0.2136 -0.1069
  299loPI   GL2 4774  14.004   4.314  10.273  0.2184  0.1014 -0.0583
  299loPI   C1A 4775  14.013   4.861   9.975 -0.2366 -0.0630 -0.1800
  299loPI   C2A 4776  13.993   4.937   9.618  0.3850  0.1168  0.0422
  299loPI   C3A 4777  13.765   5.211   9.341  0.3614  0.2383  0.0345
  299loPI   C4A 4778  13.519   5.098   8.951 -0.0825 -0.3941  0.0856
  299loPI   C5A 4779  13.331   4.784   8.592 -0.1658 -0.1203  0.2104
  299loPI   C6A 4780  13.156   4.810   8.195  0.2025  0.0464  0.2141
  299loPI   C1B 4781  13.915   4.373   9.834 -0.0031 -0.1280  0.3235
  299loPI   C2B 4782  13.811   4.482   9.483  0.1775  0.4786 -0.0439
  299loPI   C3B 4783  13.736   4.724   9.186  0.0461  0.1367 -0.1289
  299loPI   C4B 4784  13.883   4.772   8.743 -0.0552  0.3835  0.1688
  300loPI    C1 4785   8.705  11.925  11.756 -0.1368  0.1526  0.3308
  300loPI    C2 4786   8.912  12.265  11.796  0.1298  0.0065  0.2164
  300loPI    C3 4787   8.911  11.995  12.091 -0.0155  0.0696  0.2744
  300loPI   PO4 4788   8.848  11.936  11.423 -0.0961  0.0892 -0.1514
  300loPI   GL1 4789   8.718  11.998  11.044  0.1237  0.1094 -0.0136
  300loPI   GL2 4790   8.369  11.957  11.074  0.1772 -0.0218 -0.1226
  300loPI   C1A 4791   8.929  11.954  10.559 -0.0088 -0.0988 -0.2644
  300loPI   C2A 4792   8.913  11.908  10.137 -0.1397  0.2192 -0.0129
  300loPI   C3A 4793   8.913  12.085   9.669 -0.3410  0.3108 -0.0008
  300loPI   C4A 4794   8.809  12.175   9.321 -0.0449 -0.0942  0.1345
  300loPI   C5A 4795   8.905  12.390   8.974  0.0901 -0.0050 -0.0156
  300loPI   C6A 4796   9.348  12.413   8.858 -0.3210  0.1927  0.0037
  300loPI   C1B 4797   8.383  12.111  10.707  0.1551 -0.1661  0.2000
  300loPI   C2B 4798   8.456  11.988  10.278 -0.1346  0.1628  0.0703
  300loPI   C3B 4799   8.412  11.989   9.817  0.1374  0.0422 -0.0621
  300loPI   C4B 4800   8.351  12.008   9.421 -0.0554  0.1053 -0.1634
  301loPI    C1 4801  11.627   4.587  11.543  0.0431 -0.1585 -0.1180
  301loPI    C2 4802  11.306   4.351  11.578  0.0041 -0.1019 -0.0927
  301loPI    C3 4803  11.650   4.248  11.753  0.0089 -0.1789 -0.1470
  301loPI   PO4 4804  11.579   4.681  11.342  0.1056 -0.0229  0.1054
  301loPI   GL1 4805  11.846   4.649  11.052  0.1447  0.0999 -0.0473
  301loPI   GL2 4806  12.151   4.612  10.931  0.2036 -0.1194 -0.0837
  301loPI   C1A 4807  11.673   4.567  10.708  0.1106  0.0740 -0.3067
  301loPI   C2A 4808  11.466   4.448  10.360 -0.1597  0.1041  0.1063
  301loPI   C3A 4809  11.475   4.393  10.017 -0.1512 -0.0602  0.1595
  301loPI   C4A 4810  11.408   4.512   9.590 -0.0566 -0.1958 -0.0956
  301loPI   C5A 4811  11.459   4.544   9.249  0.2262 -0.4550  0.1071
  301loPI   C6A 4812  11.875   4.482   9.081 -0.6720  0.0683  0.1836
  301loPI   C1B 4813  12.161   4.508  10.519 -0.0219 -0.0006  0.3629
  301loPI   C2B 4814  12.017   4.414  10.232 -0.4827  0.2130 -0.0830
  301loPI   C3B 4815  12.046   4.355   9.856 -0.0342 -0.0799 -0.0960
  301loPI   C4B 4816  11.895   4.419   9.553  0.1425  0.1235  0.0858
  302loPI    C1 4817   5.230   2.283  11.660 -0.0337 -0.0053  0.1236
  302loPI    C2 4818   5.103   2.583  11.891  0.0185  0.0371  0.0973
  302loPI    C3 4819   5.345   2.302  12.043  0.1536  0.1332  0.0620
  302loPI   PO4 4820   5.144   2.347  11.401  0.0418 -0.2779  0.3734
  302loPI   GL1 4821   5.443   2.510  11.103  0.1373  0.0456 -0.0008
  302loPI   GL2 4822   5.230   2.214  10.964 -0.2626 -0.0596  0.0264
  302loPI   C1A 4823   5.589   2.514  10.714  0.1536  0.1963  0.2549
  302loPI   C2A 4824   5.658   2.634  10.400 -0.3622 -0.0440 -0.0947
  302loPI   C3A 4825   5.716   2.709   9.986  0.0704 -0.0242 -0.0238
  302loPI   C4A 4826   5.720   2.728   9.578 -0.1471 -0.2414  0.0420
  302loPI   C5A 4827   5.754   2.705   9.234  0.0734  0.2041  0.1880
  302loPI   C6A 4828   5.573   2.558   8.880 -0.0169 -0.1005 -0.2119
  302loPI   C1B 4829   5.306   2.133  10.517 -0.2049  0.2156  0.0646
  302loPI   C2B 4830   5.387   2.246  10.099  0.0614  0.0353  0.0023
  302loPI   C3B 4831   5.511   2.242   9.597  0.1696  0.5130  0.2032
  302loPI   C4B 4832   5.487   2.152   9.219  0.1634  0.0084 -0.3812
  303loPI    C1 4833   8.977   7.901  11.507 -0.2349  0.1250  0.0557
  303loPI    C2 4834   8.760   8.198  11.350  0.1992  0.4053 -0.0346
  303loPI    C3 4835   9.006   8.272  11.656  0.0507  0.0572  0.1750
  303loPI   PO4 4836   9.056   7.766  11.254  0.0495 -0.2219 -0.4604
  303loPI   GL1 4837   8.916   8.062  10.898  0.0345 -0.0421 -0.0143
  303loPI   GL2 4838   9.235   7.938  10.841  0.0437 -0.2430  0.0481
  303loPI   C1A 4839   8.807   7.912  10.590  0.0293  0.3141  0.0316
  303loPI   C2A 4840   8.797   7.855  10.130  0.1219  0.1332 -0.1900
  303loPI   C3A 4841   8.741   7.903   9.681 -0.0403 -0.1698 -0.0063
  303loPI   C4A 4842   8.847   7.850   9.253  0.3291  0.3062 -0.0610
  303loPI   C5A 4843   9.169   7.587   8.901  0.0789 -0.1730  0.0886
  303loPI   C6A 4844   9.574   7.451   8.703  0.0609 -0.0201  0.0370
  303loPI   C1B 4845   9.268   7.948  10.416 -0.0335 -0.1040  0.0957
  303loPI   C2B 4846   9.325   7.831  10.005  0.1077  0.2296  0.4704
  303loPI   C3B 4847   9.367   7.696   9.578 -0.0532 -0.1984  0.1276
  303loPI   C4B 4848   9.452   7.390   9.266  0.1283  0.0680  0.0506
  304loPI    C1 4849   5.394   6.948  11.263  0.1325  0.1486  0.0371
  304loPI    C2 4850   5.235   6.930  11.629 -0.0269  0.0902 -0.0338
  304loPI    C3 4851   5.631   6.962  11.584  0.0120 -0.1229  0.1406
  304loPI   PO4 4852   5.189   6.615  11.091  0.1130 -0.1291 -0.1938
  304loPI   GL1 4853   5.058   6.686  10.641  0.0749 -0.0570 -0.1592
  304loPI   GL2 4854   5.269   6.919  10.621  0.2512 -0.4070  0.3426
  304loPI   C1A 4855   5.423   6.448  10.384 -0.1677  0.1297 -0.2987
  304loPI   C2A 4856   5.481   6.447   9.973 -0.0082 -0.0732  0.0388
  304loPI   C3A 4857   5.436   6.392   9.550 -0.0102 -0.0202  0.2687
  304loPI   C4A 4858   5.523   6.366   9.102 -0.2686  0.1191  0.0709
  304loPI   C5A 4859   5.703   6.137   8.790 -0.2225 -0.1287 -0.0937
  304loPI   C6A 4860   6.107   6.059   8.735  0.6018 -0.2021 -0.2625
  304loPI   C1B 4861   5.193   6.879  10.199 -0.3516 -0.1123  0.0646
  304loPI   C2B 4862   5.265   6.863   9.728  0.1111  0.0704 -0.1706
  304loPI   C3B 4863   5.284   6.888   9.378  0.0551  0.1751  0.1078
  304loPI   C4B 4864   5.258   6.787   8.917 -0.2186  0.1842  0.1336
  305loPI    C1 4865  13.269  11.266  11.391 -0.1611 -0.1743  0.0797
  305loPI    C2 4866  13.577  11.049  11.256 -0.0616  0.0116  0.0052
  305loPI    C3 4867  13.507  11.074  11.649  0.1255  0.1105  0.0334
  305loPI   PO4 4868  13.061  11.208  11.318 -0.2464  0.1815 -0.0481
  305loPI   GL1 4869  12.962  10.973  11.047 -0.2136  0.0948  0.2240
  305loPI   GL2 4870  13.209  11.063  10.836 -0.1840  0.1059 -0.1727
  305loPI   C1A 4871  12.722  11.179  10.722 -0.0614  0.0583  0.0840
  305loPI   C2A 4872  12.792  11.064  10.284 -0.2075  0.0597  0.2161
  305loPI   C3A 4873  12.756  11.071   9.834  0.0473 -0.0832  0.0407
  305loPI   C4A 4874  12.812  11.211   9.432  0.0987 -0.1897  0.2340
  305loPI   C5A 4875  12.645  11.360   9.061  0.1909  0.1327 -0.2261
  305loPI   C6A 4876  12.285  11.513   8.701  0.4741  0.1872  0.2310
  305loPI   C1B 4877  13.258  10.998  10.453  0.1116  0.0185 -0.0206
  305loPI   C2B 4878  13.228  10.971  10.088 -0.0605  0.1208 -0.1920
  305loPI   C3B 4879  13.351  11.111   9.682 -0.5943  0.1580 -0.0899
  305loPI   C4B 4880  13.436  11.138   9.296  0.1228 -0.0496  0.1448
  306loPI    C1 4881   9.986   5.491  11.586  0.0034 -0.0328 -0.0593
  306loPI    C2 4882  10.309   5.344  11.770 -0.0367 -0.1268 -0.0637
  306loPI    C3 4883   9.961   5.366  11.965 -0.0594 -0.1491 -0.1014
  306loPI   PO4 4884  10.000   5.562  11.325  0.0407  0.1707 -0.1506
  306loPI   GL1 4885  10.318   5.409  11.009 -0.1507  0.2335 -0.0464
  306loPI   GL2 4886  10.609   5.439  10.887  0.0559 -0.1271  0.1028
  306loPI   C1A 4887  10.243   5.802  10.774  0.2358 -0.1212 -0.1854
  306loPI   C2A 4888  10.214   5.956  10.349  0.0685 -0.0763 -0.1702
  306loPI   C3A 4889  10.217   6.028   9.868 -0.2220 -0.1894  0.4025
  306loPI   C4A 4890  10.255   5.889   9.431  0.1080 -0.1399  0.0464
  306loPI   C5A 4891  10.217   5.901   8.983 -0.3886  0.0143  0.1822
  306loPI   C6A 4892  10.327   5.793   8.630  0.0733  0.1302 -0.1711
  306loPI   C1B 4893  10.398   5.452  10.480 -0.0658  0.0305  0.1874
  306loPI   C2B 4894  10.426   5.482  10.019 -0.1270  0.3599 -0.1351
  306loPI   C3B 4895  10.412   5.431   9.538  0.1074 -0.1038 -0.2471
  306loPI   C4B 4896  10.164   5.407   9.199 -0.2943  0.2524  0.2698
  307loPI    C1 4897   3.133   0.282  11.790  0.0947 -0.0886 -0.0644
  307loPI    C2 4898   2.819   0.519  11.865  0.1938  0.0369 -0.0427
  307loPI    C3 4899   2.949   0.266  12.145  0.1415  0.0188 -0.0347
  307loPI   PO4 4900   2.985   0.202  11.507 -0.0137 -0.2394  0.1580
  307loPI   GL1 4901   2.973   0.307  11.122 -0.1368  0.1385  0.2240
  307loPI   GL2 4902   2.719   0.471  11.025  0.2191 -0.0605  0.2466
  307loPI   C1A 4903   3.288   0.265  10.802 -0.0688 -0.1441 -0.1010
  307loPI   C2A 4904   3.389   0.093  10.421  0.1304 -0.0591  0.0277
  307loPI   C3A 4905   3.397   0.265  10.051  0.0044 -0.0322  0.2534
  307loPI   C4A 4906   3.350   0.086   9.626 -0.2636  0.2597 -0.1871
  307loPI   C5A 4907   3.397  -0.097   9.217 -0.3136  0.0425  0.1389
  307loPI   C6A 4908   3.401  -0.450   8.891  0.1971 -0.1787 -0.0425
  307loPI   C1B 4909   2.843   0.357  10.619  0.1862 -0.0998 -0.2139
  307loPI   C2B 4910   2.943   0.223  10.195 -0.1996 -0.1914 -0.3020
  307loPI   C3B 4911   2.859   0.123   9.668 -0.0028 -0.3062  0.2543
  307loPI   C4B 4912   2.724   0.090   9.235  0.1467 -0.1190 -0.0659
  308loPI    C1 4913  13.963   6.395  11.087  0.1004  0.1465  0.0993
  308loPI    C2 4914  13.662   6.183  11.243  0.1244 -0.0369 -0.0985
  308loPI    C3 4915  13.586   6.518  11.037  0.0689  0.0117  0.0003
  308loPI   PO4 4916  14.181   6.241  10.995 -0.1108  0.0436  0.0621
  308loPI   GL1 4917  14.322   6.194  10.616 -0.3810 -0.0679 -0.0619
  308loPI   GL2 4918  14.486   5.944  10.479 -0.1234  0.0572  0.1712
  308loPI   C1A 4919  14.319   6.424  10.306  0.1403 -0.0941  0.1998
  308loPI   C2A 4920  14.303   6.432   9.869  0.1918  0.3431 -0.0787
  308loPI   C3A 4921  14.269   6.402   9.449  0.1513  0.0362 -0.0743
  308loPI   C4A 4922  14.279   6.465   9.011 -0.2242  0.2935  0.1199
  308loPI   C5A 4923  14.236   6.863   8.760  0.0331  0.3080  0.0220
  308loPI   C6A 4924  13.892   6.964   8.453  0.1489 -0.0662  0.1239
  308loPI   C1B 4925  14.455   5.897  10.003 -0.1200  0.0311 -0.0469
  308loPI   C2B 4926  14.490   5.853   9.511  0.0939  0.2109 -0.3213
  308loPI   C3B 4927  14.356   5.986   9.226 -0.4091 -0.0430 -0.0426
  308loPI   C4B 4928  14.087   5.971   8.888  0.0255  0.2347  0.0455
  309loPI    C1 4929  14.965  12.470  12.172  0.0944  0.0682  0.1148
  309loPI    C2 4930  15.251  12.488  11.893  0.1143  0.0082  0.1310
  309loPI    C3 4931  15.223  12.167  12.128 -0.2600 -0.1988 -0.1844
  309loPI   PO4 4932  14.760  12.613  11.979 -0.0688 -0.1497  0.2972
  309loPI   GL1 4933  14.930  12.636  11.559  0.2152  0.4197 -0.1150
  309loPI   GL2 4934  14.582  12.535  11.437  0.0215  0.1913 -0.0479
  309loPI   C1A 4935  15.053  12.680  11.116 -0.4035  0.0168  0.1633
  309loPI   C2A 4936  15.123  12.717  10.646 -0.0228 -0.3146  0.1129
  309loPI   C3A 4937  15.071  12.649  10.253 -0.3760 -0.2294 -0.1286
  309loPI   C4A 4938  15.114  12.693   9.763  0.1524 -0.2239  0.0541
  309loPI   C5A 4939  15.095  12.760   9.275 -0.0634  0.0392  0.1857
  309loPI   C6A 4940  14.817  12.896   8.947 -0.2848  0.1668  0.0720
  309loPI   C1B 4941  14.538  12.517  10.986 -0.0761  0.3658  0.0607
  309loPI   C2B 4942  14.487  12.669  10.558 -0.0822 -0.0352 -0.1652
  309loPI   C3B 4943  14.517  12.736  10.140  0.1799 -0.0260  0.0298
  309loPI   C4B 4944  14.510  12.796   9.703 -0.0209 -0.0825 -0.0353
  310loPI    C1 4945   5.567  10.438  11.565 -0.0467 -0.1534  0.1573
  310loPI    C2 4946   5.554  10.050  11.662 -0.0881 -0.1517  0.1586
  310loPI    C3 4947   5.575  10.328  11.949 -0.0409 -0.1536  0.1572
  310loPI   PO4 4948   5.418  10.485  11.388 -0.0209  0.1559  0.1313
  310loPI   GL1 4949   5.310  10.345  10.959  0.2976  0.3751 -0.1077
  310loPI   GL2 4950   5.209  10.676  10.872  0.0459 -0.0277 -0.1177
  310loPI   C1A 4951   5.323  10.083  10.651 -0.0516  0.1623 -0.2131
  310loPI   C2A 4952   5.308  10.006  10.249  0.0657  0.2090  0.1119
  310loPI   C3A 4953   5.262  10.118   9.851 -0.0646 -0.1237 -0.0588
  310loPI   C4A 4954   5.230  10.183   9.363  0.0378  0.0406  0.2786
  310loPI   C5A 4955   5.167  10.133   8.998  0.2964  0.0311  0.1443
  310loPI   C6A 4956   5.188  10.222   8.590 -0.0458  0.3152  0.2123
  310loPI   C1B 4957   5.141  10.470  10.415  0.2517  0.0998 -0.1194
  310loPI   C2B 4958   5.086  10.580  10.004  0.0604  0.1576  0.0008
  310loPI   C3B 4959   5.107  10.680   9.521 -0.0213 -0.0709 -0.0384
  310loPI   C4B 4960   5.145  10.773   9.064  0.0454 -0.0784  0.1126
  311loPI    C1 4961   9.170   9.323  11.476  0.0190  0.0053 -0.0327
  311loPI    C2 4962   9.563   9.288  11.412  0.0967  0.4975  0.1356
  311loPI    C3 4963   9.394   9.100  11.721  0.1329  0.0102 -0.1313
  311loPI   PO4 4964   9.153   9.245  11.178  0.0420  0.2519 -0.1940
  311loPI   GL1 4965   9.360   9.275  10.926  0.0623 -0.2044 -0.0789
  311loPI   GL2 4966   9.613   9.325  10.853 -0.0630 -0.1176 -0.0068
  311loPI   C1A 4967   9.276   9.286  10.479  0.0417 -0.0521  0.0025
  311loPI   C2A 4968   9.146   9.322  10.032 -0.1534 -0.0770 -0.1867
  311loPI   C3A 4969   9.186   9.293   9.596 -0.3038  0.2636 -0.1324
  311loPI   C4A 4970   9.196   9.233   9.188 -0.4583  0.0693 -0.1067
  311loPI   C5A 4971   9.146   8.932   8.941 -0.0029  0.1600  0.1284
  311loPI   C6A 4972   9.013   8.533   8.839  0.0996 -0.4549  0.1431
  311loPI   C1B 4973   9.856   9.254  10.564 -0.1199 -0.0674  0.3443
  311loPI   C2B 4974  10.060   9.124  10.305 -0.1009 -0.0398 -0.1722
  311loPI   C3B 4975  10.198   9.091   9.967  0.3870  0.2968 -0.0097
  311loPI   C4B 4976  10.169   9.138   9.578  0.0914  0.0087 -0.0881
  312loPI    C1 4977  10.812   5.292  11.547 -0.1428  0.1896 -0.0731
  312loPI    C2 4978  10.619   5.609  11.397  0.0001  0.3364  0.0488
  312loPI    C3 4979  11.008   5.636  11.486  0.0031  0.1389  0.0995
  312loPI   PO4 4980  10.692   5.114  11.343 -0.3427 -0.0615 -0.0990
  312loPI   GL1 4981  10.596   4.903  10.979 -0.1843 -0.1250  0.2607
  312loPI   GL2 4982  10.280   4.760  10.997 -0.0035 -0.0679  0.1225
  312loPI   C1A 4983  10.731   4.978  10.517  0.2978  0.0130 -0.0858
  312loPI   C2A 4984  10.724   4.969  10.001 -0.1365  0.2590 -0.2305
  312loPI   C3A 4985  10.709   4.939   9.571  0.1835  0.0563 -0.0001
  312loPI   C4A 4986  10.563   5.047   9.173 -0.0873 -0.2561  0.2603
  312loPI   C5A 4987  10.422   5.190   8.768 -0.0168  0.0661 -0.2870
  312loPI   C6A 4988  10.347   5.363   8.313 -0.1721 -0.5505 -0.1983
  312loPI   C1B 4989  10.229   4.964  10.652 -0.1061 -0.0727 -0.1344
  312loPI   C2B 4990  10.251   5.022  10.250 -0.0180  0.0582  0.1415
  312loPI   C3B 4991  10.216   5.060   9.836  0.2037 -0.2518 -0.3003
  312loPI   C4B 4992  10.161   4.980   9.468  0.1536  0.0500 -0.0802
  313loPI    C1 4993   1.985  10.468  12.000 -0.0865  0.1509  0.2849
  313loPI    C2 4994   2.106  10.337  12.358  0.1505 -0.2714  0.0588
  313loPI    C3 4995   2.190  10.711  12.244  0.2576 -0.2012  0.3567
  313loPI   PO4 4996   2.075  10.297  11.848  0.2369 -0.2639 -0.0049
  313loPI   GL1 4997   2.165  10.064  11.449 -0.1256  0.0200 -0.0264
  313loPI   GL2 4998   2.394   9.846  11.299  0.3030  0.0956 -0.0077
  313loPI   C1A 4999   2.201  10.230  10.987 -0.3777 -0.1109 -0.1415
  313loPI   C2A 5000   2.168  10.328  10.599  0.2179 -0.0313  0.1011
  313loPI   C3A 5001   2.136  10.288  10.172  0.1893  0.3414  0.3588
  313loPI   C4A 5002   2.112  10.346   9.816 -0.1713 -0.0253  0.0383
  313loPI   C5A 5003   2.271  10.323   9.463  0.0101 -0.1334 -0.1554
  313loPI   C6A 5004   2.343  10.569   9.121 -0.0590  0.2457  0.0312
  313loPI   C1B 5005   2.382   9.754  10.975 -0.0210 -0.1374 -0.1051
  313loPI   C2B 5006   2.274   9.828  10.490 -0.0433  0.0396  0.0696
  313loPI   C3B 5007   2.369   9.867  10.138 -0.0793 -0.0620 -0.0721
  313loPI   C4B 5008   2.311   9.865   9.755  0.0447 -0.1321  0.0386
  314loPI    C1 5009  15.773  12.026  11.943 -0.1112  0.2424 -0.1497
  314loPI    C2 5010  15.696  12.401  12.059 -0.1173  0.1691  0.0894
  314loPI    C3 5011  15.693  12.104  12.327  0.0463  0.0212 -0.0695
  314loPI   PO4 5012  15.545  12.016  11.756  0.0674 -0.3675  0.2563
  314loPI   GL1 5013  15.571  11.913  11.297  0.0695  0.3752  0.0346
  314loPI   GL2 5014  15.533  11.606  11.263 -0.0529 -0.2955  0.1257
  314loPI   C1A 5015  15.730  12.084  10.891 -0.1463 -0.2098 -0.0707
  314loPI   C2A 5016  15.756  12.086  10.449 -0.3669 -0.0462  0.1917
  314loPI   C3A 5017  15.726  12.180  10.005 -0.0822 -0.4058  0.1148
  314loPI   C4A 5018  15.730  12.204   9.597  0.0081 -0.1270 -0.1350
  314loPI   C5A 5019  15.766  12.125   9.209  0.3443  0.0790  0.0573
  314loPI   C6A 5020  15.605  11.800   8.957 -0.1383  0.0826  0.0866
  314loPI   C1B 5021  15.489  11.692  10.718  0.0410 -0.0672 -0.0614
  314loPI   C2B 5022  15.491  11.637  10.385  0.1248  0.0536 -0.1549
  314loPI   C3B 5023  15.480  11.728   9.911 -0.0367 -0.1856 -0.2356
  314loPI   C4B 5024  15.558  11.747   9.471  0.0780  0.0896  0.2331
  315loPI    C1 5025   6.768   2.848  11.698  0.0163  0.0964 -0.2567
  315loPI    C2 5026   6.658   2.581  11.975  0.2175  0.0315 -0.2376
  315loPI    C3 5027   6.418   2.889  11.887  0.1201  0.0127 -0.0430
  315loPI   PO4 5028   6.913   2.621  11.558  0.0910  0.6465 -0.0876
  315loPI   GL1 5029   6.928   2.457  11.164  0.1408 -0.0050  0.0038
  315loPI   GL2 5030   6.759   2.422  11.018  0.0121  0.3649 -0.2744
  315loPI   C1A 5031   7.215   2.441  10.887 -0.0161  0.1285 -0.1104
  315loPI   C2A 5032   7.199   2.468  10.457 -0.1692 -0.0359 -0.2625
  315loPI   C3A 5033   7.329   2.532  10.053  0.0512  0.4112 -0.0903
  315loPI   C4A 5034   7.188   2.632   9.635 -0.0096  0.0245 -0.1801
  315loPI   C5A 5035   7.297   2.646   9.228  0.0497  0.4221  0.2445
  315loPI   C6A 5036   7.061   2.831   8.854 -0.2104  0.2686  0.1609
  315loPI   C1B 5037   6.620   2.478  10.555 -0.2837 -0.2550  0.0385
  315loPI   C2B 5038   6.697   2.555  10.081  0.2571 -0.2890 -0.2767
  315loPI   C3B 5039   6.663   2.533   9.575 -0.0199  0.0014  0.2902
  315loPI   C4B 5040   6.687   2.609   9.132  0.0799 -0.1658 -0.0376
  316loPI    C1 5041  13.926  10.049  11.439  0.1418 -0.0996 -0.2142
  316loPI    C2 5042  14.113   9.696  11.421  0.0995 -0.1159 -0.3451
  316loPI    C3 5043  14.077   9.886  11.771  0.1119 -0.2471 -0.2720
  316loPI   PO4 5044  13.730  10.047  11.269 -0.1136 -0.1156  0.2999
  316loPI   GL1 5045  13.791  10.045  10.864  0.0592 -0.0344 -0.2517
  316loPI   GL2 5046  13.937  10.354  10.712 -0.1197  0.0272  0.2620
  316loPI   C1A 5047  13.658   9.985  10.459 -0.0561  0.0044 -0.0661
  316loPI   C2A 5048  13.722   9.971   9.961  0.0171 -0.3347  0.2303
  316loPI   C3A 5049  13.718  10.041   9.528 -0.0632 -0.0482  0.3457
  316loPI   C4A 5050  13.818  10.078   9.112 -0.2205  0.0577  0.0300
  316loPI   C5A 5051  14.014   9.716   8.825  0.0089 -0.1227 -0.1436
  316loPI   C6A 5052  14.190   9.327   8.764  0.0202  0.0491  0.0179
  316loPI   C1B 5053  14.028  10.461  10.257 -0.0858  0.1669  0.1556
  316loPI   C2B 5054  14.129  10.538   9.786 -0.0045  0.0589 -0.0835
  316loPI   C3B 5055  14.109  10.583   9.400 -0.0878  0.0685 -0.2343
  316loPI   C4B 5056  13.985  10.658   8.996 -0.0042 -0.2327 -0.0063
  317loPI    C1 5057  10.269  16.864  11.810  0.1716 -0.1174 -0.2134
  317loPI    C2 5058  10.532  16.657  12.028 -0.0537 -0.0228  0.1573
  317loPI    C3 5059  10.153  16.531  11.998 -0.0560  0.0353 -0.0774
  317loPI   PO4 5060  10.395  16.939  11.606 -0.0113  0.2494  0.0939
  317loPI   GL1 5061  10.346  16.615  11.235  0.3761  0.1741 -0.2976
  317loPI   GL2 5062  10.463  16.354  11.107 -0.1587 -0.0570  0.1397
  317loPI   C1A 5063  10.207  16.825  10.892 -0.1424 -0.2635  0.1615
  317loPI   C2A 5064  10.187  16.811  10.454 -0.0237  0.3714  0.0621
  317loPI   C3A 5065  10.227  16.958  10.031  0.0066  0.1583  0.0208
  317loPI   C4A 5066  10.113  16.905   9.643  0.0122  0.0545  0.1294
  317loPI   C5A 5067  10.248  16.884   9.312 -0.0170  0.0930  0.0126
  317loPI   C6A 5068  10.276  17.262   9.023 -0.0355  0.6121 -0.0807
  317loPI   C1B 5069  10.389  16.362  10.705  0.1014  0.3703 -0.1464
  317loPI   C2B 5070  10.384  16.317  10.230 -0.0970  0.0936  0.2631
  317loPI   C3B 5071  10.368  16.373   9.797 -0.1847  0.1677 -0.0378
  317loPI   C4B 5072  10.525  16.457   9.395  0.3034 -0.4315  0.0781
  318loPI    C1 5073  11.334   5.279  11.632 -0.1791  0.2072  0.0803
  318loPI    C2 5074  11.471   4.974  11.853 -0.3227  0.0781 -0.0071
  318loPI    C3 5075  11.507   5.350  11.986  0.0951  0.0466 -0.0183
  318loPI   PO4 5076  11.297   5.107  11.435  0.0672 -0.4497  0.3627
  318loPI   GL1 5077  11.111   5.229  11.092  0.0293  0.0745 -0.1623
  318loPI   GL2 5078  11.133   4.968  10.910 -0.0524 -0.3551  0.0515
  318loPI   C1A 5079  11.041   5.369  10.595  0.0324 -0.1357  0.0200
  318loPI   C2A 5080  10.982   5.359  10.214  0.0278 -0.0788 -0.2652
  318loPI   C3A 5081  10.958   5.447   9.781  0.1005 -0.0777  0.1843
  318loPI   C4A 5082  10.869   5.470   9.370 -0.2077 -0.2567  0.1070
  318loPI   C5A 5083  10.604   5.595   9.021 -0.0788 -0.0127 -0.2068
  318loPI   C6A 5084  10.799   5.623   8.632  0.1594 -0.2471 -0.0777
  318loPI   C1B 5085  11.394   4.962  10.555 -0.0948  0.0535  0.0085
  318loPI   C2B 5086  11.287   4.922  10.137 -0.0248 -0.1458  0.4949
  318loPI   C3B 5087  11.231   4.940   9.687  0.2468 -0.0519 -0.1574
  318loPI   C4B 5088  11.076   4.998   9.297  0.0701  0.2991 -0.2348
  319loPI    C1 5089   7.497   9.603  11.329 -0.2048 -0.2046 -0.2137
  319loPI    C2 5090   7.784   9.444  11.557 -0.1006  0.1890 -0.0616
  319loPI    C3 5091   7.401   9.348  11.621 -0.0612  0.1978  0.1962
  319loPI   PO4 5092   7.637   9.597  11.056  0.0206 -0.1110 -0.2312
  319loPI   GL1 5093   7.674   9.320  10.762 -0.2145  0.0386  0.2192
  319loPI   GL2 5094   7.308   9.298  10.727 -0.0375  0.1108 -0.1407
  319loPI   C1A 5095   7.643   9.401  10.305 -0.1532  0.1742  0.1420
  319loPI   C2A 5096   7.628   9.408   9.914  0.0573  0.3829  0.3920
  319loPI   C3A 5097   7.545   9.465   9.405  0.6683 -0.0591  0.3346
  319loPI   C4A 5098   7.389   9.379   8.999 -0.1028 -0.2466  0.3346
  319loPI   C5A 5099   7.203   9.112   8.697  0.0685 -0.0035  0.1295
  319loPI   C6A 5100   6.813   8.861   8.702  0.2237 -0.0060  0.2548
  319loPI   C1B 5101   7.077   9.439  10.366 -0.1815  0.0901  0.3162
  319loPI   C2B 5102   7.069   9.475   9.852 -0.4213 -0.0560 -0.1794
  319loPI   C3B 5103   7.066   9.381   9.458 -0.0398 -0.0545  0.0398
  319loPI   C4B 5104   6.883   9.306   9.099 -0.1911 -0.1612  0.2036
  320loPI    C1 5105  11.409   8.455  11.813  0.0879 -0.1326 -0.0461
  320loPI    C2 5106  11.086   8.316  12.003 -0.0802  0.1444 -0.1237
  320loPI    C3 5107  11.280   8.635  12.145 -0.0877  0.2313 -0.3053
  320loPI   PO4 5108  11.396   8.440  11.520 -0.0784  0.2604 -0.1007
  320loPI   GL1 5109  11.234   8.656  11.266  0.0073 -0.0978  0.2947
  320loPI   GL2 5110  10.956   8.703  11.025  0.3131  0.0146 -0.1609
  320loPI   C1A 5111  11.360   8.528  10.796 -0.2639  0.0808  0.0415
  320loPI   C2A 5112  11.371   8.493  10.403  0.1215  0.3011  0.2521
  320loPI   C3A 5113  11.398   8.510  10.004  0.0313  0.3728  0.1789
  320loPI   C4A 5114  11.478   8.540   9.547 -0.2611 -0.0391 -0.3664
  320loPI   C5A 5115  11.598   8.388   9.185 -0.1146  0.1259  0.3064
  320loPI   C6A 5116  11.465   8.545   8.723 -0.2896 -0.0852 -0.0358
  320loPI   C1B 5117  10.860   8.540  10.649  0.0780 -0.0055 -0.1259
  320loPI   C2B 5118  10.934   8.535  10.220  0.2339 -0.2310  0.1531
  320loPI   C3B 5119  10.938   8.572   9.735  0.0088  0.0599 -0.1347
  320loPI   C4B 5120  10.775   8.621   9.361  0.2147  0.0843  0.0509
  321loPI    C1 5121   9.503  11.146  11.287  0.0769  0.1841 -0.1590
  321loPI    C2 5122   9.305  11.278  11.609  0.0995 -0.1032 -0.0241
  321loPI    C3 5123   9.663  11.103  11.651  0.0827 -0.1826 -0.2003
  321loPI   PO4 5124   9.293  11.071  11.098  0.2893  0.2235  0.0599
  321loPI   GL1 5125   9.352  11.134  10.649  0.0815  0.2025  0.0006
  321loPI   GL2 5126   9.159  11.499  10.783 -0.3578  0.3727  0.0801
  321loPI   C1A 5127   9.408  11.123  10.226  0.2671  0.1332 -0.1651
  321loPI   C2A 5128   9.409  11.062   9.873 -0.0615 -0.1269 -0.2303
  321loPI   C3A 5129   9.294  11.025   9.418  0.2284  0.1698  0.1416
  321loPI   C4A 5130   9.419  10.977   9.062  0.0240  0.2098  0.0283
  321loPI   C5A 5131   9.618  11.154   8.752 -0.1701 -0.2155 -0.1764
  321loPI   C6A 5132  10.034  11.106   8.768  0.1863  0.3811 -0.0140
  321loPI   C1B 5133   9.090  11.507  10.359  0.1726 -0.2602  0.0102
  321loPI   C2B 5134   9.134  11.533   9.941 -0.3215  0.1007  0.1580
  321loPI   C3B 5135   9.101  11.628   9.443 -0.1907 -0.0647 -0.0019
  321loPI   C4B 5136   8.728  11.732   9.127  0.2085 -0.0331 -0.1329
  322loPI    C1 5137  10.091  15.125  11.509  0.0303  0.2099  0.0979
  322loPI    C2 5138   9.942  15.189  11.874  0.0567  0.0326  0.1409
  322loPI    C3 5139   9.986  14.815  11.739 -0.1647  0.1016 -0.1315
  322loPI   PO4 5140   9.949  15.280  11.317  0.0265  0.0808 -0.0471
  322loPI   GL1 5141  10.206  15.574  11.180 -0.4367  0.2659  0.0519
  322loPI   GL2 5142  10.551  15.630  11.240 -0.1908 -0.3908 -0.0474
  322loPI   C1A 5143  10.371  15.577  10.730 -0.0356 -0.2472 -0.1014
  322loPI   C2A 5144  10.305  15.523  10.244 -0.2774  0.1542  0.2326
  322loPI   C3A 5145  10.256  15.442   9.821 -0.1852 -0.1867 -0.0640
  322loPI   C4A 5146  10.236  15.351   9.413 -0.0473 -0.3924 -0.0421
  322loPI   C5A 5147  10.576  15.311   8.997  0.0263 -0.1784  0.0374
  322loPI   C6A 5148  11.024  15.237   8.938  0.0095  0.1628 -0.2080
  322loPI   C1B 5149  10.660  15.938  10.949  0.1077 -0.0889  0.1097
  322loPI   C2B 5150  10.609  15.979  10.490  0.4657 -0.1923 -0.0235
  322loPI   C3B 5151  10.604  15.928  10.032  0.0521 -0.2480  0.1643
  322loPI   C4B 5152  10.443  15.903   9.678  0.1265  0.0535 -0.2905
  323loPI    C1 5153   2.134  16.309  11.644  0.0042  0.1580 -0.0294
  323loPI    C2 5154   1.946  16.448  11.968  0.1179 -0.0371  0.1225
  323loPI    C3 5155   2.089  16.074  11.965 -0.0360 -0.0969 -0.2182
  323loPI   PO4 5156   2.270  16.533  11.605 -0.0502  0.3789  0.0941
  323loPI   GL1 5157   2.402  16.788  11.170  0.0457 -0.3724 -0.3325
  323loPI   GL2 5158   2.713  16.705  11.097  0.0061  0.0780 -0.0484
  323loPI   C1A 5159   2.231  16.796  10.776 -0.1030 -0.1622  0.2467
  323loPI   C2A 5160   2.254  16.834  10.273  0.2369 -0.1120  0.3699
  323loPI   C3A 5161   2.267  16.656   9.836  0.2281 -0.0171  0.0631
  323loPI   C4A 5162   2.300  16.532   9.397 -0.1060  0.1808  0.1717
  323loPI   C5A 5163   2.548  16.267   9.213 -0.1699 -0.0933  0.0446
  323loPI   C6A 5164   2.459  16.078   8.889  0.3129 -0.0373  0.2799
  323loPI   C1B 5165   2.812  16.717  10.731 -0.3405  0.0230  0.2171
  323loPI   C2B 5166   2.775  16.639  10.313  0.0273 -0.1375  0.0915
  323loPI   C3B 5167   2.784  16.574   9.925  0.4147  0.0146 -0.0158
  323loPI   C4B 5168   2.809  16.595   9.536 -0.4127  0.0098 -0.3365
  324loPI    C1 5169   1.290  14.324  11.921  0.2243 -0.2096 -0.0554
  324loPI    C2 5170   1.055  14.325  12.245  0.0488  0.2455 -0.1761
  324loPI    C3 5171   1.390  14.542  12.241  0.3101 -0.1468 -0.1244
  324loPI   PO4 5172   1.044  14.310  11.685  0.1455  0.0759  0.2251
  324loPI   GL1 5173   1.110  14.088  11.359  0.2647 -0.0113 -0.1078
  324loPI   GL2 5174   1.327  13.907  11.588  0.0985  0.1626 -0.0564
  324loPI   C1A 5175   1.044  13.995  10.913  0.3136  0.0645 -0.1505
  324loPI   C2A 5176   0.968  14.039  10.490 -0.0099  0.2050 -0.2138
  324loPI   C3A 5177   0.988  14.111   9.938  0.2241  0.1168 -0.0797
  324loPI   C4A 5178   1.197  14.031   9.586  0.0590  0.2733  0.1598
  324loPI   C5A 5179   1.275  14.357   9.246  0.2595  0.2217 -0.4192
  324loPI   C6A 5180   1.066  14.526   8.883 -0.3568 -0.2060  0.2519
  324loPI   C1B 5181   1.327  13.635  11.162 -0.2986  0.1754  0.0602
  324loPI   C2B 5182   1.243  13.598  10.777 -0.1446  0.1966  0.0589
  324loPI   C3B 5183   1.213  13.500  10.356  0.0642 -0.1280 -0.0161
  324loPI   C4B 5184   1.113  13.656   9.958 -0.1582 -0.1466  0.0664
  325loPI    C1 5185   8.512   3.041  11.862  0.1098 -0.1924  0.2338
  325loPI    C2 5186   8.813   3.024  12.125  0.0815 -0.1172  0.2714
  325loPI    C3 5187   8.444   3.114  12.249  0.0546 -0.1507  0.2164
  325loPI   PO4 5188   8.561   2.758  11.725  0.1855  0.1719 -0.0615
  325loPI   GL1 5189   8.558   2.724  11.375 -0.1218 -0.0980  0.0041
  325loPI   GL2 5190   8.794   2.699  11.172  0.1461 -0.1508 -0.1761
  325loPI   C1A 5191   8.205   2.671  10.985  0.1646 -0.2195  0.1164
  325loPI   C2A 5192   8.215   2.551  10.552 -0.3319 -0.2994 -0.0368
  325loPI   C3A 5193   8.311   2.516  10.059 -0.1202 -0.0513 -0.1475
  325loPI   C4A 5194   8.436   2.443   9.608  0.0750  0.1823 -0.0804
  325loPI   C5A 5195   8.489   2.375   9.259  0.0463 -0.0930 -0.2451
  325loPI   C6A 5196   8.523   2.464   8.788 -0.0679  0.2337  0.0997
  325loPI   C1B 5197   8.671   2.766  10.803 -0.0652  0.1449  0.2237
  325loPI   C2B 5198   8.643   2.801  10.404 -0.0330  0.0165 -0.0267
  325loPI   C3B 5199   8.611   2.923   9.962  0.2603  0.0751 -0.3661
  325loPI   C4B 5200   8.699   2.931   9.608  0.0131 -0.1064  0.2597
  326loPI    C1 5201  13.187   5.412  11.227  0.2201  0.3608  0.1579
  326loPI    C2 5202  13.397   5.246  11.523 -0.2962 -0.0560  0.3050
  326loPI    C3 5203  13.172   5.569  11.595  0.0677  0.2251  0.2106
  326loPI   PO4 5204  13.345   5.306  11.043  0.3222 -0.1422 -0.2548
  326loPI   GL1 5205  13.264   5.238  10.573 -0.1833 -0.1660  0.0237
  326loPI   GL2 5206  13.360   5.174  10.356 -0.0429 -0.0349  0.0325
  326loPI   C1A 5207  13.079   5.682  10.393 -0.0539 -0.1229 -0.0413
  326loPI   C2A 5208  12.854   5.815  10.046  0.2136 -0.1034 -0.0809
  326loPI   C3A 5209  12.891   6.013   9.611 -0.1064 -0.1184 -0.0279
  326loPI   C4A 5210  12.820   6.282   9.205 -0.3393 -0.1099  0.2104
  326loPI   C5A 5211  12.751   6.465   8.765 -0.0489 -0.0322 -0.0412
  326loPI   C6A 5212  12.882   6.747   8.558 -0.2104 -0.0804 -0.2927
  326loPI   C1B 5213  13.151   5.317  10.053 -0.2578  0.0181 -0.0086
  326loPI   C2B 5214  13.022   5.468   9.624 -0.1064  0.0159  0.1191
  326loPI   C3B 5215  12.571   5.391   9.387 -0.0611  0.0703  0.2051
  326loPI   C4B 5216  12.345   5.590   9.054 -0.0071  0.0422 -0.0777
  327loPI    C1 5217  16.710   9.322  11.604  0.1953 -0.0999  0.1033
  327loPI    C2 5218  16.725   9.045  11.892 -0.0085 -0.0039  0.2087
  327loPI    C3 5219  16.931   9.386  11.931 -0.1522  0.0721  0.3107
  327loPI   PO4 5220  16.757   9.174  11.300  0.1437 -0.0981 -0.2017
  327loPI   GL1 5221  16.811   9.258  10.936 -0.0090 -0.0545  0.1163
  327loPI   GL2 5222  16.474   9.261  10.881 -0.1192  0.2616 -0.1695
  327loPI   C1A 5223  17.017   9.292  10.584 -0.0575  0.2022 -0.3721
  327loPI   C2A 5224  17.028   9.188  10.107  0.1971 -0.2498  0.1836
  327loPI   C3A 5225  17.051   9.231   9.662  0.2376 -0.2074 -0.3877
  327loPI   C4A 5226  17.095   9.320   9.220  0.0661  0.0651 -0.3827
  327loPI   C5A 5227  17.452   9.134   8.974  0.0934 -0.2378  0.1237
  327loPI   C6A 5228  17.790   8.964   8.869  0.3554 -0.0634 -0.0462
  327loPI   C1B 5229  16.554   9.207  10.432 -0.2181  0.0465 -0.1143
  327loPI   C2B 5230  16.542   9.295   9.983  0.0311 -0.3042 -0.1138
  327loPI   C3B 5231  16.597   9.334   9.525 -0.0672  0.0655  0.1070
  327loPI   C4B 5232  16.614   9.404   9.098  0.0661 -0.2234 -0.1749
  328loPI    C1 5233  14.143   1.032  11.800  0.0216 -0.1385  0.3469
  328loPI    C2 5234  13.795   1.217  11.865  0.0491  0.0483 -0.0118
  328loPI    C3 5235  14.012   1.085  12.174 -0.2487  0.0960  0.2225
  328loPI   PO4 5236  14.133   0.743  11.573  0.0436 -0.1836  0.2110
  328loPI   GL1 5237  14.066   0.739  11.149 -0.2180  0.0365 -0.2678
  328loPI   GL2 5238  13.918   0.993  10.931  0.1936  0.2075  0.0203
  328loPI   C1A 5239  14.532   0.773  10.831  0.1652 -0.1209 -0.1615
  328loPI   C2A 5240  14.581   0.837  10.463 -0.1606  0.4530  0.2539
  328loPI   C3A 5241  14.583   0.667   9.959 -0.2179 -0.1166 -0.0708
  328loPI   C4A 5242  14.680   0.866   9.504  0.0447 -0.2324  0.1467
  328loPI   C5A 5243  14.904   0.752   9.099 -0.0211 -0.0649 -0.6626
  328loPI   C6A 5244  14.953   0.756   8.658 -0.2288 -0.3882  0.2109
  328loPI   C1B 5245  14.059   0.979  10.523  0.0753  0.0896 -0.0057
  328loPI   C2B 5246  14.086   0.887  10.122  0.1476  0.2839 -0.1857
  328loPI   C3B 5247  14.173   0.792   9.686  0.0379 -0.0198 -0.3824
  328loPI   C4B 5248  14.194   0.910   9.313 -0.1145 -0.2014 -0.1289
  329loPI    C1 5249   3.901   4.654  11.174 -0.4793 -0.1262 -0.0102
  329loPI    C2 5250   4.107   4.934  11.372 -0.1568 -0.1689 -0.2763
  329loPI    C3 5251   3.937   4.632  11.572 -0.0262 -0.0917 -0.0442
  329loPI   PO4 5252   3.728   4.764  11.053  0.2549 -0.0568  0.0027
  329loPI   GL1 5253   3.494   5.023  10.841 -0.0320  0.2096  0.0080
  329loPI   GL2 5254   3.282   4.698  10.867  0.0231 -0.4210 -0.2635
  329loPI   C1A 5255   3.465   5.239  10.459  0.0627  0.1126  0.0928
  329loPI   C2A 5256   3.411   5.230  10.014  0.2420 -0.3315  0.1067
  329loPI   C3A 5257   3.524   5.238   9.648 -0.0200  0.0448  0.1554
  329loPI   C4A 5258   3.578   5.106   9.237 -0.0855  0.0248 -0.2300
  329loPI   C5A 5259   3.515   4.890   8.870 -0.0771 -0.0486 -0.4341
  329loPI   C6A 5260   3.261   4.604   8.740  0.0731  0.0181  0.3962
  329loPI   C1B 5261   3.171   4.871  10.481 -0.0389  0.3696  0.0214
  329loPI   C2B 5262   3.174   4.841  10.062 -0.0026  0.0593  0.0146
  329loPI   C3B 5263   3.103   4.673   9.715  0.0236 -0.0066 -0.0815
  329loPI   C4B 5264   3.319   4.607   9.280  0.2872  0.0450 -0.0762
  330loPI    C1 5265  14.220   2.782  11.652 -0.2789  0.0740  0.1817
  330loPI    C2 5266  14.296   3.164  11.744  0.0536  0.0453  0.0393
  330loPI    C3 5267  14.364   2.876  12.013  0.2592  0.0410 -0.0156
  330loPI   PO4 5268  14.373   2.832  11.356 -0.0196  0.2114 -0.0875
  330loPI   GL1 5269  14.407   3.021  10.954  0.0741  0.0163 -0.2701
  330loPI   GL2 5270  14.483   3.253  10.788 -0.1475 -0.0285  0.5578
  330loPI   C1A 5271  14.302   2.759  10.535  0.2603 -0.1365 -0.0995
  330loPI   C2A 5272  14.280   2.681  10.102 -0.1074  0.0428  0.3082
  330loPI   C3A 5273  14.235   2.670   9.722  0.0051 -0.0189 -0.1195
  330loPI   C4A 5274  14.347   2.650   9.300  0.2496 -0.1391  0.3033
  330loPI   C5A 5275  14.699   2.618   9.065 -0.0436 -0.1582 -0.3542
  330loPI   C6A 5276  14.914   2.697   8.655 -0.1517  0.1818 -0.0164
  330loPI   C1B 5277  14.607   3.160  10.390  0.3196 -0.0704 -0.0398
  330loPI   C2B 5278  14.557   3.093   9.962 -0.2248 -0.0485 -0.1870
  330loPI   C3B 5279  14.631   3.018   9.617  0.1093 -0.3287 -0.3377
  330loPI   C4B 5280  14.665   3.243   9.323  0.3514  0.0792  0.1068
  331loPI    C1 5281   0.269   5.688  11.416  0.0228  0.1734  0.1286
  331loPI    C2 5282  -0.084   5.838  11.531 -0.1698 -0.1548 -0.0211
  331loPI    C3 5283   0.205   5.776  11.801 -0.1479  0.3106  0.0703
  331loPI   PO4 5284   0.263   5.915  11.180 -0.1557 -0.2502  0.0780
  331loPI   GL1 5285  -0.078   6.209  11.034 -0.2237 -0.0086 -0.0120
  331loPI   GL2 5286  -0.165   6.504  10.869  0.3829 -0.1626  0.0025
  331loPI   C1A 5287   0.052   6.038  10.592 -0.0769  0.1367 -0.2307
  331loPI   C2A 5288   0.115   6.078  10.213 -0.1316  0.2580  0.0444
  331loPI   C3A 5289   0.103   6.109   9.813  0.2692  0.2771  0.0224
  331loPI   C4A 5290   0.092   6.022   9.476 -0.1737  0.1970 -0.1633
  331loPI   C5A 5291   0.210   5.919   9.106 -0.2921  0.2438  0.0859
  331loPI   C6A 5292   0.298   5.976   8.746 -0.0309  0.0767 -0.0147
  331loPI   C1B 5293  -0.047   6.485  10.459  0.3219  0.1454  0.1424
  331loPI   C2B 5294  -0.068   6.535  10.004  0.3221 -0.1088  0.0880
  331loPI   C3B 5295  -0.156   6.559   9.531 -0.1095  0.1855  0.0685
  331loPI   C4B 5296  -0.187   6.510   9.196  0.1485 -0.0802  0.0044
  332loPI    C1 5297  13.964  10.714  11.540  0.1104  0.0046  0.0307
  332loPI    C2 5298  14.062  10.953  11.234  0.0291  0.1631  0.1270
  332loPI    C3 5299  14.026  11.104  11.603  0.0417 -0.0109  0.2009
  332loPI   PO4 5300  13.779  10.595  11.451 -0.0816 -0.0794  0.1454
  332loPI   GL1 5301  13.621  10.465  11.086 -0.2454  0.0668  0.0005
  332loPI   GL2 5302  13.415  10.447  10.868 -0.0287  0.2238  0.0019
  332loPI   C1A 5303  13.700  10.821  10.805 -0.0850  0.2415 -0.2209
  332loPI   C2A 5304  13.817  10.903  10.348  0.0436 -0.0152 -0.0428
  332loPI   C3A 5305  13.735  10.988   9.966  0.2708  0.1033  0.2866
  332loPI   C4A 5306  13.871  11.069   9.477  0.1750  0.1424 -0.2510
  332loPI   C5A 5307  13.849  11.208   9.063  0.0105 -0.1681 -0.0125
  332loPI   C6A 5308  13.472  11.454   8.874 -0.1376  0.1769 -0.0503
  332loPI   C1B 5309  13.417  10.473  10.434 -0.1123 -0.2350 -0.3293
  332loPI   C2B 5310  13.565  10.555  10.004 -0.3005 -0.0395  0.1987
  332loPI   C3B 5311  13.665  10.613   9.628  0.1157  0.0814 -0.1379
  332loPI   C4B 5312  13.562  10.499   9.241  0.2098  0.0508 -0.3179
  333loPI    C1 5313   7.801   0.820  11.804  0.1479  0.2705  0.0091
  333loPI    C2 5314   7.752   0.595  12.131  0.0771  0.2053 -0.0460
  333loPI    C3 5315   8.095   0.792  12.073  0.1866  0.0142 -0.0569
  333loPI   PO4 5316   7.619   0.667  11.621 -0.0056  0.0789 -0.0224
  333loPI   GL1 5317   7.573   0.683  11.198  0.0211 -0.2138  0.0109
  333loPI   GL2 5318   7.689   0.642  10.927 -0.0083  0.0006  0.1783
  333loPI   C1A 5319   7.484   1.056  10.766 -0.0051  0.0461 -0.1327
  333loPI   C2A 5320   7.552   1.149  10.310  0.2928  0.0609  0.0143
  333loPI   C3A 5321   7.467   1.259   9.995 -0.1181 -0.1447  0.0323
  333loPI   C4A 5322   7.377   1.240   9.533  0.5146  0.0060 -0.1558
  333loPI   C5A 5323   7.305   1.188   9.132 -0.0063 -0.2141 -0.1403
  333loPI   C6A 5324   7.270   1.368   8.763  0.0212  0.0530  0.0536
  333loPI   C1B 5325   7.731   0.680  10.545  0.3019  0.1779 -0.0026
  333loPI   C2B 5326   7.729   0.685  10.106 -0.0170  0.0167 -0.1594
  333loPI   C3B 5327   7.570   0.776   9.770  0.0440 -0.0418 -0.0745
  333loPI   C4B 5328   7.479   0.783   9.339  0.0947 -0.0518 -0.1620
  334loPI    C1 5329   6.801   5.962  11.849  0.0814 -0.1437  0.0531
  334loPI    C2 5330   7.156   5.832  11.981  0.1985  0.1148 -0.0005
  334loPI    C3 5331   6.916   6.041  12.224  0.1514  0.0760 -0.0134
  334loPI   PO4 5332   6.646   5.850  11.638  0.2332 -0.0954  0.0764
  334loPI   GL1 5333   6.665   5.566  11.239  0.0893  0.1802  0.1164
  334loPI   GL2 5334   6.455   5.372  11.050  0.1829 -0.1328  0.0947
  334loPI   C1A 5335   6.743   5.801  10.839  0.0094 -0.2846  0.2244
  334loPI   C2A 5336   6.705   5.809  10.398  0.0928 -0.3049 -0.1774
  334loPI   C3A 5337   6.726   5.884   9.959 -0.1040 -0.3247 -0.1429
  334loPI   C4A 5338   6.831   5.693   9.712 -0.2319 -0.3201 -0.2165
  334loPI   C5A 5339   6.928   5.716   9.220  0.0768  0.1586  0.1185
  334loPI   C6A 5340   6.970   5.637   8.760  0.0780  0.0578 -0.0021
  334loPI   C1B 5341   6.426   5.249  10.620  0.2334 -0.0036 -0.0608
  334loPI   C2B 5342   6.435   5.417  10.231 -0.0418  0.0912  0.2712
  334loPI   C3B 5343   6.493   5.320   9.907  0.1956  0.0228  0.0008
  334loPI   C4B 5344   6.474   5.339   9.395  0.0074  0.0466 -0.2706
  335loPI    C1 5345   2.963   2.650  11.942  0.1821 -0.1323  0.0114
  335loPI    C2 5346   2.927   2.798  12.312 -0.1836  0.0094 -0.0772
  335loPI    C3 5347   2.749   2.453  12.217  0.1708 -0.1884 -0.0374
  335loPI   PO4 5348   3.217   2.684  11.797  0.1979 -0.0477  0.0623
  335loPI   GL1 5349   3.359   2.814  11.317 -0.0020 -0.0174 -0.1521
  335loPI   GL2 5350   3.135   2.819  11.175  0.1056 -0.0592  0.1067
  335loPI   C1A 5351   3.592   2.531  10.972 -0.0245  0.0627  0.0004
  335loPI   C2A 5352   3.685   2.507  10.515  0.0773  0.0549 -0.2101
  335loPI   C3A 5353   3.782   2.460  10.040  0.2016 -0.0785  0.2052
  335loPI   C4A 5354   3.787   2.344   9.627  0.0582 -0.0262 -0.2129
  335loPI   C5A 5355   3.912   2.224   9.275  0.0033  0.0934  0.3833
  335loPI   C6A 5356   4.047   1.851   9.060  0.0697  0.0074  0.0202
  335loPI   C1B 5357   3.138   2.560  10.856 -0.1091 -0.0929  0.1279
  335loPI   C2B 5358   3.079   2.584  10.422 -0.1982 -0.2514  0.0186
  335loPI   C3B 5359   3.264   2.503  10.015  0.1435  0.0724  0.1734
  335loPI   C4B 5360   3.260   2.399   9.527  0.1890  0.0116 -0.2296
  336loPI    C1 5361   0.784   2.637  11.472  0.0825 -0.0496 -0.1348
  336loPI    C2 5362   0.500   2.845  11.283  0.3468  0.2442 -0.2163
  336loPI    C3 5363   0.699   3.010  11.589  0.2356 -0.0642  0.0277
  336loPI   PO4 5364   0.908   2.527  11.346 -0.1790  0.3487 -0.1499
  336loPI   GL1 5365   0.887   2.658  10.872 -0.3526  0.3031  0.1559
  336loPI   GL2 5366   0.584   2.582  10.864  0.0799 -0.0462 -0.0219
  336loPI   C1A 5367   0.962   2.718  10.377 -0.2706 -0.0269 -0.0028
  336loPI   C2A 5368   1.131   2.663   9.949 -0.1252  0.0792  0.2007
  336loPI   C3A 5369   1.258   2.652   9.526  0.2355  0.4018  0.0759
  336loPI   C4A 5370   1.116   2.824   9.188 -0.0993  0.0150 -0.0810
  336loPI   C5A 5371   0.853   3.071   8.812  0.0156  0.2304 -0.2271
  336loPI   C6A 5372   0.362   2.964   8.727 -0.0180  0.1743 -0.2873
  336loPI   C1B 5373   0.582   2.381  10.489 -0.1173 -0.1282 -0.2662
  336loPI   C2B 5374   0.560   2.035  10.244  0.2788  0.3663 -0.0595
  336loPI   C3B 5375   0.531   2.012   9.802  0.3539 -0.2285  0.0148
  336loPI   C4B 5376   0.666   1.745   9.500  0.1888 -0.2158  0.1927
  337loPI    C1 5377   3.853  10.204  11.888  0.0415 -0.0089  0.1191
  337loPI    C2 5378   4.014  10.234  12.252 -0.2451 -0.2403  0.2699
  337loPI    C3 5379   3.878   9.881  12.123  0.1385 -0.2308 -0.1885
  337loPI   PO4 5380   3.994  10.258  11.646  0.1272 -0.2498  0.0544
  337loPI   GL1 5381   4.032  10.488  11.188  0.2639  0.1177  0.1423
  337loPI   GL2 5382   3.886  10.282  11.105  0.3855  0.1340 -0.2362
  337loPI   C1A 5383   4.020  10.535  10.678  0.1484 -0.2257  0.1069
  337loPI   C2A 5384   4.047  10.661  10.233 -0.1320  0.2267  0.1543
  337loPI   C3A 5385   4.040  10.575   9.757 -0.2715  0.2756 -0.1740
  337loPI   C4A 5386   3.912  10.697   9.316 -0.1968 -0.1519  0.3525
  337loPI   C5A 5387   3.648  10.883   9.043  0.1809  0.0586 -0.1067
  337loPI   C6A 5388   3.427  11.282   8.942  0.3786  0.1327 -0.0994
  337loPI   C1B 5389   3.731  10.117  10.747  0.1259 -0.2571  0.2665
  337loPI   C2B 5390   3.672  10.193  10.338 -0.1693  0.1840 -0.0328
  337loPI   C3B 5391   3.735  10.191   9.853  0.5323 -0.0015 -0.0538
  337loPI   C4B 5392   3.757  10.237   9.396 -0.1326  0.2424  0.0200
  338loPI    C1 5393   9.219   5.771  11.826  0.0217 -0.0672  0.2951
  338loPI    C2 5394   9.615   5.765  11.882  0.0459 -0.1127  0.1270
  338loPI    C3 5395   9.401   5.431  11.934  0.0340 -0.0966  0.1832
  338loPI   PO4 5396   9.075   5.996  11.562  0.0765 -0.3205  0.5824
  338loPI   GL1 5397   9.284   6.122  11.238  0.0303 -0.1272  0.0339
  338loPI   GL2 5398   9.140   6.388  11.212  0.0628  0.1246 -0.0736
  338loPI   C1A 5399   9.503   6.350  10.802  0.1163  0.0974 -0.0135
  338loPI   C2A 5400   9.490   6.452  10.326 -0.0282  0.1477 -0.1460
  338loPI   C3A 5401   9.513   6.405   9.843 -0.1013  0.2303 -0.0100
  338loPI   C4A 5402   9.390   6.467   9.449 -0.1710  0.0427 -0.2515
  338loPI   C5A 5403   9.411   6.570   8.986  0.2789  0.1979 -0.0728
  338loPI   C6A 5404   9.627   6.328   8.602 -0.2190 -0.0476 -0.1489
  338loPI   C1B 5405   9.015   6.401  10.901 -0.1180 -0.0147  0.2600
  338loPI   C2B 5406   8.875   6.485  10.520 -0.0701  0.3617 -0.1069
  338loPI   C3B 5407   8.974   6.450  10.052 -0.1496 -0.0928 -0.1598
  338loPI   C4B 5408   8.920   6.463   9.645 -0.1311  0.0004  0.1270
  339loPI    C1 5409   3.835   3.307  11.543 -0.0422 -0.1470 -0.3811
  339loPI    C2 5410   3.683   3.660  11.431 -0.1319 -0.0381  0.0643
  339loPI    C3 5411   3.957   3.643  11.722 -0.0249 -0.3259 -0.0490
  339loPI   PO4 5412   3.959   3.178  11.360  0.4416  0.0496  0.0428
  339loPI   GL1 5413   4.228   3.147  11.087 -0.3174 -0.1880  0.0327
  339loPI   GL2 5414   4.508   2.927  10.980  0.2632 -0.0518  0.0577
  339loPI   C1A 5415   4.252   3.237  10.663  0.2285 -0.2199 -0.2025
  339loPI   C2A 5416   4.351   3.136  10.215  0.0740  0.1468 -0.6133
  339loPI   C3A 5417   4.432   3.200   9.830 -0.0116 -0.1865  0.0491
  339loPI   C4A 5418   4.490   3.088   9.376 -0.1409 -0.3058 -0.2157
  339loPI   C5A 5419   4.336   3.067   8.945  0.3315  0.3293  0.1482
  339loPI   C6A 5420   4.344   2.779   8.683 -0.2332  0.0120  0.0662
  339loPI   C1B 5421   4.627   2.745  10.602  0.0191  0.0898  0.2712
  339loPI   C2B 5422   4.675   2.704  10.074 -0.0705 -0.1492  0.0357
  339loPI   C3B 5423   4.705   2.724   9.633 -0.0398  0.0045  0.4279
  339loPI   C4B 5424   4.686   2.570   9.226 -0.0665 -0.2801 -0.0190
  340loPI    C1 5425   4.094  15.122  11.939 -0.2474 -0.0083  0.0093
  340loPI    C2 5426   4.415  14.950  12.105 -0.0554  0.1897 -0.1512
  340loPI    C3 5427   4.130  15.108  12.337 -0.0446  0.0018 -0.0078
  340loPI   PO4 5428   4.028  14.982  11.680 -0.0636  0.1598 -0.0917
  340loPI   GL1 5429   4.099  15.037  11.274 -0.0532 -0.1809 -0.1473
  340loPI   GL2 5430   4.034  15.328  11.355 -0.0224 -0.0167  0.0648
  340loPI   C1A 5431   4.077  15.228  10.821 -0.1891  0.1191  0.0758
  340loPI   C2A 5432   4.020  15.282  10.348  0.1896 -0.2097 -0.2940
  340loPI   C3A 5433   3.970  15.261   9.918 -0.0750  0.1875 -0.2398
  340loPI   C4A 5434   3.985  15.176   9.447  0.1766 -0.1092  0.6253
  340loPI   C5A 5435   3.922  14.736   9.101  0.1574  0.1653  0.2458
  340loPI   C6A 5436   3.709  14.238   9.170 -0.1453 -0.0759 -0.2277
  340loPI   C1B 5437   3.822  15.627  10.980  0.3143  0.1318 -0.0774
  340loPI   C2B 5438   3.720  15.694  10.555 -0.2659 -0.2327 -0.2759
  340loPI   C3B 5439   3.700  15.624  10.104  0.1145 -0.0475  0.0793
  340loPI   C4B 5440   3.776  15.649   9.671 -0.1231 -0.0656  0.0072
  341loPI    C1 5441  12.975  16.572  11.935 -0.0013  0.0759  0.0355
  341loPI    C2 5442  13.055  16.294  12.212 -0.1667 -0.0414 -0.0326
  341loPI    C3 5443  12.954  16.665  12.324 -0.0674 -0.0417  0.0607
  341loPI   PO4 5444  13.191  16.581  11.693  0.3217 -0.0220  0.2862
  341loPI   GL1 5445  13.425  16.851  11.338  0.0993  0.1654  0.1996
  341loPI   GL2 5446  13.688  17.022  11.233 -0.2149 -0.0404 -0.0129
  341loPI   C1A 5447  13.391  16.653  11.013  0.1520  0.1468  0.1738
  341loPI   C2A 5448  13.452  16.564  10.619 -0.1799 -0.0214 -0.1436
  341loPI   C3A 5449  13.295  16.549  10.202  0.0486  0.3191 -0.0044
  341loPI   C4A 5450  13.313  16.497   9.754 -0.2263  0.4153 -0.1176
  341loPI   C5A 5451  13.477  16.507   9.365  0.2260  0.1325  0.0372
  341loPI   C6A 5452  13.581  16.772   8.960 -0.0687 -0.1994 -0.2916
  341loPI   C1B 5453  13.675  16.959  10.757  0.0448 -0.2815  0.1419
  341loPI   C2B 5454  13.660  16.957  10.328 -0.0227 -0.4021 -0.3857
  341loPI   C3B 5455  13.629  16.954   9.904  0.0950 -0.0243  0.0069
  341loPI   C4B 5456  13.682  16.913   9.513 -0.2106  0.0090 -0.0171
  342loPI    C1 5457  13.216  15.689  11.838 -0.1336 -0.0374 -0.2074
  342loPI    C2 5458  13.066  16.057  11.799  0.0367  0.0460 -0.0912
  342loPI    C3 5459  12.870  15.783  12.014 -0.0572  0.0879 -0.1229
  342loPI   PO4 5460  13.372  15.717  11.600  0.3116  0.1602 -0.1701
  342loPI   GL1 5461  13.601  15.833  11.254  0.1264  0.1805  0.1331
  342loPI   GL2 5462  13.584  16.042  11.093 -0.3500 -0.3267  0.1937
  342loPI   C1A 5463  13.717  15.612  10.888 -0.2735 -0.5331 -0.0391
  342loPI   C2A 5464  13.832  15.593  10.435 -0.1669  0.1219 -0.0900
  342loPI   C3A 5465  13.790  15.538  10.056  0.3111 -0.2227  0.0420
  342loPI   C4A 5466  13.849  15.503   9.587  0.1006  0.2992 -0.0079
  342loPI   C5A 5467  13.658  15.544   9.201 -0.1110  0.0010  0.0558
  342loPI   C6A 5468  13.608  15.799   8.797  0.1142 -0.1528  0.0611
  342loPI   C1B 5469  13.582  16.052  10.588  0.2836  0.0239 -0.0086
  342loPI   C2B 5470  13.578  16.060  10.147  0.3170  0.0652 -0.0942
  342loPI   C3B 5471  13.619  16.034   9.743 -0.2213 -0.0938 -0.0313
  342loPI   C4B 5472  13.411  16.030   9.360  0.2287 -0.2078  0.3185
  343loPI    C1 5473   9.738  11.608  11.570  0.1569  0.0518  0.0090
  343loPI    C2 5474   9.748  11.929  11.809  0.2390  0.1106 -0.0731
  343loPI    C3 5475   9.737  11.562  11.968  0.3901  0.1463  0.0222
  343loPI   PO4 5476   9.571  11.677  11.439 -0.1109 -0.1819 -0.0543
  343loPI   GL1 5477   9.607  11.677  11.019 -0.0545 -0.1713  0.0475
  343loPI   GL2 5478   9.697  11.412  10.870  0.2989  0.2031  0.0335
  343loPI   C1A 5479   9.544  11.957  10.700  0.1558 -0.0740 -0.0584
  343loPI   C2A 5480   9.400  11.962  10.260  0.0797 -0.1874  0.3129
  343loPI   C3A 5481   9.391  11.969   9.892  0.3625  0.1021 -0.2252
  343loPI   C4A 5482   9.440  11.959   9.458 -0.0261 -0.2536 -0.0672
  343loPI   C5A 5483   9.308  11.975   9.042 -0.0996  0.1715  0.0812
  343loPI   C6A 5484   8.927  11.966   8.773  0.1509 -0.1848  0.0148
  343loPI   C1B 5485   9.646  11.491  10.410 -0.2009 -0.5462  0.0525
  343loPI   C2B 5486   9.607  11.518   9.969  0.2241  0.3876 -0.2140
  343loPI   C3B 5487   9.632  11.466   9.563 -0.0131  0.1640 -0.0101
  343loPI   C4B 5488   9.495  11.485   9.161 -0.0071 -0.1950  0.0849
  344loPI    C1 5489   3.503   9.578  11.625 -0.2643  0.2757  0.0282
  344loPI    C2 5490   3.346   9.749  11.951 -0.1441 -0.0877  0.2836
  344loPI    C3 5491   3.244   9.375  11.852  0.0530 -0.0886  0.0748
  344loPI   PO4 5492   3.608   9.809  11.533  0.0093  0.0922 -0.1059
  344loPI   GL1 5493   3.541   9.911  11.149 -0.1118 -0.2914 -0.0412
  344loPI   GL2 5494   3.595   9.560  11.128 -0.4210  0.2768  0.1299
  344loPI   C1A 5495   3.518   9.713  10.644  0.1458  0.0824 -0.0284
  344loPI   C2A 5496   3.347   9.817  10.252  0.0245  0.1993 -0.1127
  344loPI   C3A 5497   3.338   9.791   9.774  0.0574 -0.0596 -0.2562
  344loPI   C4A 5498   3.251   9.859   9.290 -0.2235 -0.0108  0.2885
  344loPI   C5A 5499   3.310   9.786   8.834  0.0390 -0.2458  0.1933
  344loPI   C6A 5500   3.616   9.658   8.543  0.0142 -0.0115 -0.1706
  344loPI   C1B 5501   3.694   9.271  10.759 -0.0606  0.3034  0.1359
  344loPI   C2B 5502   3.707   9.228  10.375  0.2948  0.1421 -0.0692
  344loPI   C3B 5503   3.565   9.321   9.987 -0.5425  0.0610 -0.0611
  344loPI   C4B 5504   3.509   9.311   9.682 -0.0324  0.1347 -0.1215
  345loPI    C1 5505   4.086  11.728  11.667  0.1773 -0.1461  0.0845
  345loPI    C2 5506   4.432  11.694  11.865  0.1959 -0.0945  0.0611
  345loPI    C3 5507   4.178  11.991  11.953  0.2278 -0.0402 -0.0281
  345loPI   PO4 5508   4.127  11.658  11.475 -0.1309  0.0505 -0.0555
  345loPI   GL1 5509   4.261  11.363  11.209 -0.1514 -0.0272  0.2022
  345loPI   GL2 5510   4.110  11.051  11.189 -0.1031 -0.0887 -0.0792
  345loPI   C1A 5511   4.311  11.473  10.795 -0.6280  0.3121 -0.1148
  345loPI   C2A 5512   4.123  11.536  10.335  0.2435 -0.0572 -0.0891
  345loPI   C3A 5513   4.085  11.540   9.860 -0.0073 -0.0371  0.3723
  345loPI   C4A 5514   4.081  11.710   9.461 -0.1505  0.5811 -0.2619
  345loPI   C5A 5515   4.098  11.899   8.994 -0.1325  0.0042  0.0034
  345loPI   C6A 5516   4.040  11.875   8.619  0.1081 -0.0371 -0.0505
  345loPI   C1B 5517   3.979  11.077  10.860 -0.1349 -0.0987 -0.0045
  345loPI   C2B 5518   3.868  11.159  10.465  0.3651  0.2580 -0.2948
  345loPI   C3B 5519   3.894  11.094  10.000  0.2641 -0.1760  0.4061
  345loPI   C4B 5520   3.852  11.128   9.615 -0.0150 -0.0238 -0.0045
  346loPI    C1 5521   1.645   1.097  11.738  0.4050 -0.0760 -0.1969
  346loPI    C2 5522   1.825   0.758  11.852  0.0538 -0.1759  0.0831
  346loPI    C3 5523   1.441   0.821  11.944  0.0306  0.1724 -0.2243
  346loPI   PO4 5524   1.671   1.101  11.485  0.3214 -0.1593 -0.0325
  346loPI   GL1 5525   1.552   1.054  11.012 -0.0637  0.3606 -0.2459
  346loPI   GL2 5526   1.554   1.301  10.951  0.2427  0.0764  0.2292
  346loPI   C1A 5527   1.496   0.854  10.602  0.5191  0.4120  0.2006
  346loPI   C2A 5528   1.638   0.799  10.142 -0.0694 -0.0574 -0.1714
  346loPI   C3A 5529   1.600   0.782   9.721 -0.0206 -0.0326  0.1448
  346loPI   C4A 5530   1.676   0.693   9.332  0.2603 -0.1343  0.1377
  346loPI   C5A 5531   1.742   0.816   8.993  0.0440 -0.0214 -0.1626
  346loPI   C6A 5532   1.906   1.001   8.720  0.0980  0.1094 -0.1724
  346loPI   C1B 5533   1.768   1.318  10.587 -0.1519 -0.0922 -0.2618
  346loPI   C2B 5534   1.818   1.256  10.162 -0.3288  0.0596 -0.0425
  346loPI   C3B 5535   1.845   1.192   9.759 -0.1929  0.0555  0.0190
  346loPI   C4B 5536   1.991   1.038   9.352  0.0877  0.2106  0.0813
  347loPI    C1 5537   7.384  15.523  11.747 -0.0693 -0.2084 -0.0414
  347loPI    C2 5538   7.068  15.677  11.938 -0.0507 -0.1052 -0.0927
  347loPI    C3 5539   7.225  15.329  12.058 -0.1955 -0.1667 -0.0792
  347loPI   PO4 5540   7.446  15.573  11.412 -0.0927 -0.1112  0.3629
  347loPI   GL1 5541   7.390  15.340  11.101 -0.0403 -0.0066 -0.0675
  347loPI   GL2 5542   7.016  15.332  11.115  0.2582  0.0032 -0.4274
  347loPI   C1A 5543   7.497  15.353  10.775  0.0118 -0.0177  0.0153
  347loPI   C2A 5544   7.439  15.313  10.361 -0.1326 -0.0918 -0.4698
  347loPI   C3A 5545   7.447  15.341   9.897 -0.0795 -0.1540  0.2816
  347loPI   C4A 5546   7.407  15.346   9.434 -0.1187  0.1259  0.0271
  347loPI   C5A 5547   7.318  15.307   9.031  0.0892 -0.0445 -0.0930
  347loPI   C6A 5548   7.539  15.328   8.679  0.1466  0.1984  0.0356
  347loPI   C1B 5549   7.008  15.441  10.653  0.1057 -0.1438 -0.1149
  347loPI   C2B 5550   6.874  15.325  10.214 -0.0631  0.1738 -0.0386
  347loPI   C3B 5551   6.919  15.395   9.694  0.2942 -0.0282  0.0888
  347loPI   C4B 5552   6.789  15.424   9.242  0.1491  0.1984  0.0608
  348loPI    C1 5553   5.983   9.171  11.338  0.0518  0.1171  0.2655
  348loPI    C2 5554   5.591   9.097  11.365  0.0182  0.1106 -0.1699
  348loPI    C3 5555   5.848   8.909  11.609 -0.2197 -0.1268 -0.0969
  348loPI   PO4 5556   6.055   9.341  11.271 -0.1014 -0.1272 -0.1048
  348loPI   GL1 5557   5.940   9.391  10.832  0.2481  0.1027  0.0015
  348loPI   GL2 5558   5.786   9.080  10.881  0.2447 -0.2905 -0.0642
  348loPI   C1A 5559   6.070   9.509  10.470  0.1736  0.3776 -0.1620
  348loPI   C2A 5560   6.067   9.605  10.076 -0.0284 -0.0242  0.0858
  348loPI   C3A 5561   6.013   9.628   9.654 -0.2813 -0.3953 -0.2984
  348loPI   C4A 5562   6.062   9.728   9.236  0.0822 -0.0095  0.0549
  348loPI   C5A 5563   6.219  10.166   9.050  0.1319 -0.0656  0.2364
  348loPI   C6A 5564   6.621  10.245   8.786 -0.2570 -0.3475  0.2187
  348loPI   C1B 5565   5.794   9.028  10.482 -0.2361  0.2717 -0.2103
  348loPI   C2B 5566   5.743   8.992  10.055  0.1514 -0.2833  0.3479
  348loPI   C3B 5567   5.638   9.086   9.663 -0.2728  0.2458 -0.5530
  348loPI   C4B 5568   5.732   9.348   9.350  0.0252  0.0502  0.2138
  349loPI    C1 5569  15.551   4.569  11.206 -0.1866  0.0255  0.1412
  349loPI    C2 5570  15.632   4.731  11.562  0.0208  0.0855  0.0683
  349loPI    C3 5571  15.606   4.964  11.238  0.1655 -0.0068 -0.0108
  349loPI   PO4 5572  15.757   4.410  11.161  0.0829  0.0227 -0.1953
  349loPI   GL1 5573  16.117   4.459  10.849  0.2559 -0.1296 -0.3396
  349loPI   GL2 5574  16.086   4.146  10.760 -0.2933  0.1147 -0.2057
  349loPI   C1A 5575  16.216   4.679  10.489 -0.0802  0.0255 -0.2699
  349loPI   C2A 5576  16.297   4.686  10.074  0.2616  0.2051  0.3701
  349loPI   C3A 5577  16.567   4.828   9.805 -0.1061 -0.1202 -0.0234
  349loPI   C4A 5578  16.609   4.774   9.363  0.0709  0.1004  0.1683
  349loPI   C5A 5579  16.703   4.686   8.903 -0.1460  0.2154 -0.1157
  349loPI   C6A 5580  16.731   4.578   8.495  0.0583 -0.1068  0.1935
  349loPI   C1B 5581  16.333   4.210  10.286  0.0456 -0.0615  0.0032
  349loPI   C2B 5582  16.377   4.241   9.884 -0.2887 -0.0468  0.0034
  349loPI   C3B 5583  16.146   4.298   9.576 -0.3007 -0.0068  0.1919
  349loPI   C4B 5584  16.260   4.474   9.246  0.0086  0.2587  0.1857
  350loPI    C1 5585  16.555   2.861  11.160  0.0974 -0.0053 -0.0520
  350loPI    C2 5586  16.879   2.903  11.391  0.0804 -0.0227 -0.0247
  350loPI    C3 5587  16.529   3.058  11.507  0.0170 -0.2378  0.0760
  350loPI   PO4 5588  16.690   2.964  10.935  0.2687 -0.0181 -0.1920
  350loPI   GL1 5589  16.694   2.818  10.469  0.5022 -0.0943 -0.1067
  350loPI   GL2 5590  17.001   2.632  10.359  0.1540 -0.0921  0.0510
  350loPI   C1A 5591  16.731   2.880  10.029 -0.0311 -0.1291 -0.1314
  350loPI   C2A 5592  16.762   2.775   9.698  0.0175  0.1037  0.0156
  350loPI   C3A 5593  16.976   2.964   9.445  0.0165 -0.1201 -0.1294
  350loPI   C4A 5594  17.190   3.379   9.267 -0.3022  0.0404 -0.0855
  350loPI   C5A 5595  17.384   3.636   8.894  0.1155  0.1358 -0.2914
  350loPI   C6A 5596  17.293   3.818   8.456 -0.1141 -0.0822 -0.0742
  350loPI   C1B 5597  17.243   2.815  10.159 -0.2881 -0.0869  0.0108
  350loPI   C2B 5598  17.372   2.816   9.813 -0.0569 -0.1160 -0.1949
  350loPI   C3B 5599  17.521   2.804   9.394 -0.0369 -0.3556  0.0436
  350loPI   C4B 5600  17.949   2.683   9.150 -0.1281 -0.0503 -0.2799
  351loPI    C1 5601   5.230   5.907  11.458 -0.0366  0.0434 -0.1135
  351loPI    C2 5602   5.164   5.628  11.737 -0.0011  0.0841 -0.0641
  351loPI    C3 5603   4.968   5.977  11.752 -0.3078 -0.0724 -0.3244
  351loPI   PO4 5604   5.312   5.752  11.250 -0.0251  0.1547 -0.3168
  351loPI   GL1 5605   5.151   5.577  10.941 -0.2139 -0.1657  0.0278
  351loPI   GL2 5606   5.338   5.411  10.763  0.2201 -0.1049  0.0092
  351loPI   C1A 5607   5.168   5.898  10.574  0.0223  0.0376  0.2364
  351loPI   C2A 5608   5.252   6.034  10.167 -0.1024  0.1548 -0.0980
  351loPI   C3A 5609   5.291   5.889   9.772  0.2636  0.2425  0.0652
  351loPI   C4A 5610   5.180   5.936   9.361  0.0063 -0.0044 -0.0095
  351loPI   C5A 5611   5.154   5.827   8.924  0.0575  0.3370  0.3050
  351loPI   C6A 5612   5.295   5.918   8.588 -0.1397  0.1147  0.0387
  351loPI   C1B 5613   5.341   5.437  10.353 -0.0046 -0.2351  0.0846
  351loPI   C2B 5614   5.504   5.482  10.056  0.0465 -0.0955  0.3953
  351loPI   C3B 5615   5.496   5.442   9.720  0.4639 -0.0401  0.1708
  351loPI   C4B 5616   5.417   5.421   9.257  0.0962  0.1080 -0.3176
  352loPI    C1 5617   2.520   7.878  11.662 -0.0035  0.0186  0.1657
  352loPI    C2 5618   2.124   7.820  11.675 -0.0619  0.3426 -0.0437
  352loPI    C3 5619   2.336   7.831  12.014 -0.1680 -0.2203  0.0502
  352loPI   PO4 5620   2.592   7.762  11.432  0.1057 -0.0495 -0.3958
  352loPI   GL1 5621   2.767   7.851  11.119  0.1100  0.0233 -0.0815
  352loPI   GL2 5622   2.900   7.619  10.858  0.0937 -0.0169  0.1184
  352loPI   C1A 5623   2.726   8.072  10.735  0.2180 -0.0061  0.3547
  352loPI   C2A 5624   2.834   8.088  10.369  0.0627  0.0955  0.1810
  352loPI   C3A 5625   2.737   8.070  10.024  0.3980  0.1863  0.0808
  352loPI   C4A 5626   2.608   7.978   9.548 -0.1260 -0.2096 -0.1477
  352loPI   C5A 5627   2.631   8.049   9.123  0.4112  0.1127 -0.1619
  352loPI   C6A 5628   2.629   7.781   8.783 -0.0114  0.2677 -0.4131
  352loPI   C1B 5629   2.970   7.647  10.374 -0.3442  0.2541 -0.1201
  352loPI   C2B 5630   2.860   7.543  10.013 -0.2838 -0.0328  0.1688
  352loPI   C3B 5631   2.795   7.530   9.594  0.0721  0.1045 -0.4611
  352loPI   C4B 5632   2.867   7.564   9.208 -0.0525  0.2554  0.0664
  353loPI    C1 5633   2.033   3.979  11.317 -0.1635 -0.1354 -0.0339
  353loPI    C2 5634   1.803   4.201  11.558 -0.0118 -0.2583  0.2289
  353loPI    C3 5635   2.202   4.231  11.577  0.0010 -0.0312 -0.2386
  353loPI   PO4 5636   1.928   3.900  11.087  0.4646 -0.0812 -0.2133
  353loPI   GL1 5637   1.987   3.986  10.763 -0.1314  0.2141  0.6497
  353loPI   GL2 5638   1.724   4.231  10.765 -0.1710 -0.2408 -0.0163
  353loPI   C1A 5639   1.921   3.839  10.324 -0.1846 -0.1988 -0.1043
  353loPI   C2A 5640   2.010   4.000   9.940  0.2927 -0.0225  0.1877
  353loPI   C3A 5641   2.053   3.909   9.539  0.0037  0.1323  0.2386
  353loPI   C4A 5642   2.149   3.890   9.178 -0.0558 -0.3066 -0.0058
  353loPI   C5A 5643   2.082   4.184   8.834  0.0348 -0.2910  0.1681
  353loPI   C6A 5644   2.412   4.210   8.472  0.3506  0.1116 -0.0712
  353loPI   C1B 5645   1.723   4.360  10.339  0.0337  0.2824  0.1528
  353loPI   C2B 5646   1.750   4.416   9.856  0.1648 -0.2556 -0.0441
  353loPI   C3B 5647   1.882   4.455   9.434 -0.0104  0.0548  0.0380
  353loPI   C4B 5648   1.873   4.613   9.086  0.0049  0.0758  0.4858
  354loPI    C1 5649  16.407  16.141  11.577  0.1704  0.1227 -0.0702
  354loPI    C2 5650  16.594  15.787  11.572 -0.1826 -0.0693  0.0129
  354loPI    C3 5651  16.408  15.910  11.904 -0.0615  0.1967 -0.0154
  354loPI   PO4 5652  16.232  16.249  11.393 -0.0341 -0.1803 -0.0816
  354loPI   GL1 5653  16.191  16.482  10.990 -0.2383 -0.1541 -0.0332
  354loPI   GL2 5654  16.472  16.673  10.999  0.2780  0.1558  0.3736
  354loPI   C1A 5655  16.199  16.508  10.556 -0.1651  0.1981  0.0581
  354loPI   C2A 5656  16.238  16.490  10.154  0.0616 -0.1915 -0.1027
  354loPI   C3A 5657  16.324  16.543   9.789 -0.2560  0.0741 -0.3983
  354loPI   C4A 5658  16.507  16.506   9.419 -0.2227  0.0152 -0.0072
  354loPI   C5A 5659  16.832  16.548   9.054 -0.1665 -0.1216 -0.1017
  354loPI   C6A 5660  17.095  16.394   8.697  0.0540 -0.2465  0.1399
  354loPI   C1B 5661  16.521  16.881  10.567  0.1874  0.2223  0.2922
  354loPI   C2B 5662  16.527  16.946  10.222 -0.2296  0.1611  0.0612
  354loPI   C3B 5663  16.574  16.946   9.775 -0.0936 -0.0280  0.1474
  354loPI   C4B 5664  16.525  17.018   9.271 -0.1008 -0.1327 -0.1229
  355loPI    C1 5665  15.998   1.292  11.749  0.1574  0.0825  0.0825
  355loPI    C2 5666  16.118   0.940  11.897  0.3648  0.1257  0.0205
  355loPI    C3 5667  15.920   1.197  12.130  0.1916 -0.0401  0.0594
  355loPI   PO4 5668  15.918   1.280  11.474  0.0171  0.0332  0.2331
  355loPI   GL1 5669  15.923   1.309  11.062 -0.0072  0.2262  0.0571
  355loPI   GL2 5670  15.873   1.011  11.046 -0.0951  0.1648 -0.2834
  355loPI   C1A 5671  15.701   1.489  10.689  0.3114 -0.1462 -0.0192
  355loPI   C2A 5672  15.698   1.513  10.290  0.2473 -0.0473 -0.1831
  355loPI   C3A 5673  15.768   1.554   9.923  0.2511 -0.2967  0.0167
  355loPI   C4A 5674  15.955   1.622   9.525  0.2674  0.2697 -0.0451
  355loPI   C5A 5675  15.827   1.597   9.053  0.0528 -0.1467  0.0116
  355loPI   C6A 5676  15.447   1.383   8.951 -0.4735 -0.1156  0.0606
  355loPI   C1B 5677  15.904   1.067  10.513  0.1617 -0.0290 -0.1219
  355loPI   C2B 5678  15.917   1.000  10.081 -0.2319  0.2468 -0.0287
  355loPI   C3B 5679  15.978   1.129   9.698  0.0479 -0.0046 -0.0805
  355loPI   C4B 5680  15.847   1.111   9.247 -0.0242 -0.3632  0.0051
  356loPI    C1 5681   4.843   1.974  11.591  0.1842  0.0155 -0.0882
  356loPI    C2 5682   4.806   1.586  11.679 -0.2512  0.0779  0.0288
  356loPI    C3 5683   4.999   1.830  11.930 -0.3773  0.0201  0.1837
  356loPI   PO4 5684   4.664   1.976  11.422 -0.1017  0.0576  0.1020
  356loPI   GL1 5685   4.619   1.800  11.046 -0.0984  0.2923 -0.0172
  356loPI   GL2 5686   4.909   1.765  11.046 -0.0519  0.2465  0.0451
  356loPI   C1A 5687   4.588   1.775  10.530 -0.1370  0.1164  0.0549
  356loPI   C2A 5688   4.593   1.785  10.074  0.0585 -0.0080 -0.0750
  356loPI   C3A 5689   4.490   1.877   9.610 -0.0476 -0.0765 -0.0300
  356loPI   C4A 5690   4.521   1.855   9.157 -0.0472 -0.1089  0.2651
  356loPI   C5A 5691   4.949   1.979   8.968  0.0217 -0.0813  0.1163
  356loPI   C6A 5692   5.168   2.179   8.580 -0.0650  0.2602  0.0137
  356loPI   C1B 5693   5.043   1.735  10.598  0.0939  0.3670  0.2781
  356loPI   C2B 5694   5.100   1.734  10.156 -0.0904  0.1861 -0.0742
  356loPI   C3B 5695   5.174   1.764   9.818 -0.1259 -0.1200 -0.3319
  356loPI   C4B 5696   5.140   1.819   9.434 -0.2065 -0.0914 -0.2904
  357loPI    C1 5697   9.888   6.200  11.665 -0.1012 -0.0149 -0.1635
  357loPI    C2 5698  10.139   6.422  11.446  0.0081  0.0169 -0.0077
  357loPI    C3 5699  10.240   6.314  11.817 -0.1156 -0.1554 -0.0229
  357loPI   PO4 5700   9.829   6.047  11.437  0.2492  0.1727  0.1275
  357loPI   GL1 5701   9.906   6.127  11.029 -0.2209 -0.1100  0.1687
  357loPI   GL2 5702   9.694   5.904  10.990  0.0741  0.2268  0.3275
  357loPI   C1A 5703  10.010   6.352  10.682  0.1298 -0.1441 -0.1900
  357loPI   C2A 5704   9.980   6.418  10.232  0.1606  0.4243 -0.0935
  357loPI   C3A 5705  10.002   6.449   9.866  0.1150 -0.2325  0.0079
  357loPI   C4A 5706   9.952   6.447   9.420  0.0397 -0.2150  0.2920
  357loPI   C5A 5707   9.863   6.224   9.070  0.0402  0.1402 -0.1732
  357loPI   C6A 5708   9.781   5.865   8.780  0.1613 -0.1747 -0.0479
  357loPI   C1B 5709   9.729   5.948  10.563  0.1642  0.0085  0.0868
  357loPI   C2B 5710   9.737   6.005  10.088  0.0373  0.0871  0.1237
  357loPI   C3B 5711   9.707   5.939   9.634  0.0566  0.1131  0.0347
  357loPI   C4B 5712   9.769   5.743   9.259 -0.1396  0.1196  0.1482
  358loPI    C1 5713   1.979   7.346  11.773 -0.0570 -0.1206  0.0238
  358loPI    C2 5714   1.604   7.417  11.893 -0.0426  0.0435 -0.0255
  358loPI    C3 5715   1.904   7.422  12.158 -0.0831 -0.1552  0.0255
  358loPI   PO4 5716   1.910   7.253  11.497  0.0326  0.0317  0.1873
  358loPI   GL1 5717   1.620   7.138  11.157  0.3402  0.0233  0.1208
  358loPI   GL2 5718   1.619   6.805  11.067  0.1127  0.1048  0.1330
  358loPI   C1A 5719   1.532   7.273  10.798  0.2880  0.3096  0.0043
  358loPI   C2A 5720   1.498   7.211  10.307 -0.1143 -0.1628  0.2949
  358loPI   C3A 5721   1.571   7.245   9.882 -0.1985 -0.0615 -0.1046
  358loPI   C4A 5722   1.487   7.291   9.446  0.1959 -0.0601 -0.0710
  358loPI   C5A 5723   1.348   7.245   9.066  0.0793 -0.0049 -0.1651
  358loPI   C6A 5724   1.187   7.442   8.702 -0.2442  0.2280 -0.0816
  358loPI   C1B 5725   1.728   6.743  10.675 -0.0445 -0.0578 -0.2363
  358loPI   C2B 5726   1.735   6.812  10.127  0.1361  0.1159  0.1275
  358loPI   C3B 5727   1.653   6.781   9.632  0.3251 -0.1153  0.1512
  358loPI   C4B 5728   1.702   6.786   9.184  0.0219 -0.2401  0.1489
  359loPI    C1 5729  16.681  12.113  11.644 -0.2645  0.1760  0.0946
  359loPI    C2 5730  16.822  11.796  11.844  0.0303  0.2479  0.0070
  359loPI    C3 5731  16.680  11.752  11.473 -0.3927  0.1374  0.1758
  359loPI   PO4 5732  16.828  12.291  11.633 -0.0966  0.0185  0.2797
  359loPI   GL1 5733  16.741  12.383  11.217 -0.0306 -0.2969  0.3269
  359loPI   GL2 5734  16.799  12.716  11.343 -0.0042 -0.1813 -0.1437
  359loPI   C1A 5735  16.572  12.381  10.841 -0.2608  0.1235  0.1075
  359loPI   C2A 5736  16.635  12.428  10.414 -0.0928 -0.0583  0.0530
  359loPI   C3A 5737  16.615  12.470   9.920 -0.3703  0.1825 -0.2872
  359loPI   C4A 5738  16.679  12.466   9.476  0.1004  0.1224  0.1388
  359loPI   C5A 5739  16.478  12.399   9.156 -0.0070  0.3920 -0.0396
  359loPI   C6A 5740  16.271  12.655   8.875 -0.0403  0.0541  0.3085
  359loPI   C1B 5741  16.882  12.839  10.843 -0.1323  0.1133 -0.0290
  359loPI   C2B 5742  16.950  12.797  10.436 -0.1603 -0.1101  0.2174
  359loPI   C3B 5743  16.947  12.919  10.012  0.0366  0.1975  0.1774
  359loPI   C4B 5744  17.033  12.913   9.566  0.0841 -0.1700 -0.0763
  360loPI    C1 5745  10.278   2.010  11.958  0.0610 -0.1606  0.1672
  360loPI    C2 5746  10.246   1.715  12.227 -0.3184  0.0170  0.3248
  360loPI    C3 5747  10.427   2.058  12.326 -0.0465 -0.0877  0.2017
  360loPI   PO4 5748  10.387   1.990  11.736 -0.1743 -0.0882  0.3944
  360loPI   GL1 5749  10.441   2.058  11.185  0.0815 -0.0332 -0.0967
  360loPI   GL2 5750  10.546   2.309  10.975  0.1139  0.2475  0.2156
  360loPI   C1A 5751  10.163   1.931  10.843 -0.1151 -0.2621 -0.0447
  360loPI   C2A 5752  10.149   1.965  10.398  0.1748  0.3376 -0.1203
  360loPI   C3A 5753  10.221   1.907   9.998 -0.0624  0.1245  0.0171
  360loPI   C4A 5754  10.244   1.755   9.602  0.2722  0.2487  0.2721
  360loPI   C5A 5755  10.147   1.764   9.148  0.1429 -0.2937  0.2831
  360loPI   C6A 5756   9.953   1.601   8.833  0.0394  0.0114  0.0145
  360loPI   C1B 5757  10.493   2.356  10.520 -0.0467  0.1584  0.1971
  360loPI   C2B 5758  10.542   2.337  10.124  0.0607  0.0322  0.0307
  360loPI   C3B 5759  10.474   2.321   9.691  0.0797 -0.1482  0.1142
  360loPI   C4B 5760  10.346   2.177   9.305 -0.0150  0.0464 -0.0092
  361loPI    C1 5761  15.360  17.321  11.869 -0.0547 -0.1815  0.1679
  361loPI    C2 5762  15.337  17.706  11.972 -0.0015 -0.1907  0.2147
  361loPI    C3 5763  15.613  17.470  12.140  0.0414 -0.2219  0.1015
  361loPI   PO4 5764  15.366  17.330  11.649  0.1694 -0.2590 -0.0660
  361loPI   GL1 5765  15.185  17.173  11.307 -0.0997 -0.1139 -0.1047
  361loPI   GL2 5766  14.958  17.039  11.149  0.1475  0.1821 -0.1982
  361loPI   C1A 5767  15.322  17.565  10.924  0.0371  0.0195  0.0559
  361loPI   C2A 5768  15.212  17.536  10.533 -0.1489  0.1146 -0.0042
  361loPI   C3A 5769  15.316  17.517  10.107 -0.1815  0.0576 -0.1233
  361loPI   C4A 5770  15.360  17.522   9.686 -0.1255 -0.1597 -0.1478
  361loPI   C5A 5771  15.324  17.581   9.285 -0.1545 -0.0333  0.2456
  361loPI   C6A 5772  15.306  17.737   8.998  0.0155 -0.2839  0.2422
  361loPI   C1B 5773  14.999  17.083  10.724 -0.4477  0.1506  0.0794
  361loPI   C2B 5774  14.961  17.156  10.260 -0.1900 -0.0897  0.0324
  361loPI   C3B 5775  15.108  17.025   9.901  0.0500  0.1102  0.4262
  361loPI   C4B 5776  15.018  17.211   9.449 -0.1374 -0.0675  0.0361
  362loPI    C1 5777   7.154   9.838  11.617 -0.0125 -0.0945  0.1186
  362loPI    C2 5778   6.854   9.815  11.881  0.0236  0.0244  0.1704
  362loPI    C3 5779   7.201   9.632  11.957 -0.0124 -0.0564  0.1416
  362loPI   PO4 5780   7.055   9.875  11.419 -0.1250  0.3330  0.1783
  362loPI   GL1 5781   6.857   9.958  11.016  0.1100 -0.0394  0.3194
  362loPI   GL2 5782   7.230   9.837  10.933 -0.2450  0.2534  0.0650
  362loPI   C1A 5783   6.878   9.840  10.559  0.0483 -0.0419 -0.1069
  362loPI   C2A 5784   6.878   9.835  10.178  0.3980  0.0918 -0.1558
  362loPI   C3A 5785   6.830   9.964   9.883 -0.0470  0.4682  0.0510
  362loPI   C4A 5786   6.928   9.817   9.523  0.0750 -0.1738 -0.1321
  362loPI   C5A 5787   7.089   9.752   9.093 -0.1290  0.2004  0.2420
  362loPI   C6A 5788   7.105   9.603   8.644  0.0106 -0.1126 -0.0954
  362loPI   C1B 5789   7.406   9.839  10.515  0.0370  0.1601  0.2857
  362loPI   C2B 5790   7.355   9.803  10.098 -0.1770  0.0280 -0.2121
  362loPI   C3B 5791   7.386   9.836   9.724 -0.0459  0.2367 -0.0758
  362loPI   C4B 5792   7.397  10.072   9.388 -0.0348  0.1125  0.0171
  363loPI    C1 5793   8.144   4.154  11.799  0.0768  0.1871  0.0827
  363loPI    C2 5794   8.035   4.404  11.507 -0.0518 -0.0194 -0.0484
  363loPI    C3 5795   7.756   4.225  11.732  0.0415  0.0024  0.0858
  363loPI   PO4 5796   8.432   4.059  11.621 -0.0956  0.1371 -0.1934
  363loPI   GL1 5797   8.441   4.100  11.158  0.1382  0.0291  0.0746
  363loPI   GL2 5798   8.554   3.806  11.222  0.0419  0.0471  0.2800
  363loPI   C1A 5799   8.312   4.163  10.746 -0.1389  0.1014 -0.0843
  363loPI   C2A 5800   8.382   4.257  10.323  0.0667 -0.3141 -0.2124
  363loPI   C3A 5801   8.407   4.218   9.894  0.1402  0.0200  0.1777
  363loPI   C4A 5802   8.442   4.236   9.439 -0.1334  0.0376 -0.4783
  363loPI   C5A 5803   8.726   4.056   9.144 -0.0019 -0.1608  0.0948
  363loPI   C6A 5804   8.752   3.732   9.030 -0.0799 -0.2635 -0.0385
  363loPI   C1B 5805   8.599   3.653  10.798  0.1528 -0.2552 -0.0625
  363loPI   C2B 5806   8.596   3.767  10.442 -0.0941  0.0899 -0.0531
  363loPI   C3B 5807   8.674   3.804  10.037 -0.2742  0.2895 -0.1005
  363loPI   C4B 5808   8.690   3.807   9.676 -0.3269 -0.1176 -0.2753
  364loPI    C1 5809   6.740   4.173  11.549 -0.0270  0.2231  0.0144
  364loPI    C2 5810   6.909   3.823  11.643 -0.1127  0.1212 -0.2059
  364loPI    C3 5811   6.799   4.075  11.933  0.2110  0.0923 -0.0537
  364loPI   PO4 5812   6.792   4.139  11.269  0.0381 -0.0922  0.1515
  364loPI   GL1 5813   7.173   4.098  10.978 -0.0628 -0.1240 -0.3446
  364loPI   GL2 5814   7.321   4.378  10.835 -0.0001  0.1743  0.0035
  364loPI   C1A 5815   6.974   3.897  10.658 -0.2711  0.1576  0.1656
  364loPI   C2A 5816   7.008   3.930  10.135  0.1540  0.0392  0.1612
  364loPI   C3A 5817   7.115   3.931   9.752 -0.2007 -0.1444 -0.0907
  364loPI   C4A 5818   7.111   3.879   9.298  0.1513  0.0860 -0.0332
  364loPI   C5A 5819   6.723   3.830   9.007  0.0583 -0.2171  0.0800
  364loPI   C6A 5820   6.396   4.069   8.950 -0.2981 -0.1552  0.1772
  364loPI   C1B 5821   7.371   4.378  10.384 -0.2647  0.1487  0.3610
  364loPI   C2B 5822   7.447   4.303   9.990 -0.0087 -0.2484  0.0838
  364loPI   C3B 5823   7.371   4.293   9.520 -0.1674  0.2113  0.0300
  364loPI   C4B 5824   7.385   4.382   9.090 -0.1267 -0.0407  0.4502
  365loPI    C1 5825   1.252   7.369  11.517 -0.1006  0.0624 -0.1916
  365loPI    C2 5826   1.102   7.410  11.885  0.3209 -0.0633 -0.0002
  365loPI    C3 5827   1.022   7.081  11.672 -0.0753  0.0920 -0.0982
  365loPI   PO4 5828   1.217   7.576  11.377 -0.0425 -0.0207 -0.2583
  365loPI   GL1 5829   1.455   7.739  10.995 -0.0147  0.0878  0.1105
  365loPI   GL2 5830   1.718   7.690  10.937  0.1588 -0.0241 -0.1727
  365loPI   C1A 5831   1.321   7.671  10.600  0.0859 -0.0749 -0.0920
  365loPI   C2A 5832   1.302   7.769  10.209  0.0320  0.0760  0.3090
  365loPI   C3A 5833   1.243   7.682   9.725 -0.4172  0.1616  0.4868
  365loPI   C4A 5834   1.330   7.742   9.302 -0.1414  0.1493 -0.1202
  365loPI   C5A 5835   1.540   7.744   8.928  0.0059  0.3802  0.0282
  365loPI   C6A 5836   2.024   7.746   8.773 -0.1779 -0.0052 -0.0950
  365loPI   C1B 5837   1.817   7.720  10.604 -0.0121  0.0746  0.0896
  365loPI   C2B 5838   1.747   7.616  10.192  0.0675 -0.0648  0.0540
  365loPI   C3B 5839   1.786   7.761   9.899 -0.0824  0.1878  0.1215
  365loPI   C4B 5840   1.800   7.661   9.415 -0.1133 -0.2356  0.0851
  366loPI    C1 5841  14.633   6.943  11.674 -0.0333 -0.1218  0.0365
  366loPI    C2 5842  14.477   6.577  11.716 -0.1580 -0.0737 -0.0049
  366loPI    C3 5843  14.465   6.835  12.021  0.1621 -0.1911  0.1110
  366loPI   PO4 5844  14.538   7.019  11.496 -0.0228  0.2558 -0.0082
  366loPI   GL1 5845  14.432   7.143  11.076  0.3803  0.0977 -0.0182
  366loPI   GL2 5846  14.779   7.166  11.018 -0.0556  0.1311 -0.2664
  366loPI   C1A 5847  14.285   7.180  10.641  0.1996  0.1251 -0.0072
  366loPI   C2A 5848  14.423   7.309  10.181 -0.1292 -0.1877 -0.0983
  366loPI   C3A 5849  14.389   7.307   9.799 -0.0006  0.3202  0.1276
  366loPI   C4A 5850  14.370   7.279   9.408 -0.0291 -0.0474 -0.1516
  366loPI   C5A 5851  14.480   7.264   8.987 -0.0547  0.0169  0.0551
  366loPI   C6A 5852  14.737   7.273   8.695  0.1785  0.0361 -0.0546
  366loPI   C1B 5853  14.820   7.131  10.626 -0.1132 -0.0443 -0.1542
  366loPI   C2B 5854  14.899   7.258  10.218 -0.1228 -0.1603 -0.1740
  366loPI   C3B 5855  14.872   7.237   9.743 -0.0442  0.2959  0.0318
  366loPI   C4B 5856  14.920   7.247   9.282  0.3253  0.0146 -0.0439
  367loPI    C1 5857  15.135   7.074  11.721  0.1973 -0.0776  0.0555
  367loPI    C2 5858  14.897   7.216  12.009  0.1017  0.1306 -0.1237
  367loPI    C3 5859  15.288   7.170  12.078  0.0487 -0.0001  0.0990
  367loPI   PO4 5860  15.091   7.137  11.496 -0.0706  0.2225 -0.0820
  367loPI   GL1 5861  15.271   7.094  11.129 -0.0003 -0.1243 -0.2135
  367loPI   GL2 5862  15.606   6.930  11.102 -0.1339 -0.1468  0.0686
  367loPI   C1A 5863  15.379   7.143  10.590 -0.0764 -0.0719 -0.0072
  367loPI   C2A 5864  15.418   7.152  10.125  0.1258  0.4492 -0.3655
  367loPI   C3A 5865  15.387   7.208   9.663  0.0145 -0.3332 -0.0703
  367loPI   C4A 5866  15.436   7.204   9.238 -0.0368 -0.1183 -0.0552
  367loPI   C5A 5867  15.687   7.482   9.004 -0.1026  0.2722 -0.0068
  367loPI   C6A 5868  15.770   7.493   8.545 -0.0712  0.1686 -0.2873
  367loPI   C1B 5869  15.654   6.736  10.768 -0.0041  0.0838 -0.0175
  367loPI   C2B 5870  15.592   6.662  10.233  0.1237  0.0988 -0.2420
  367loPI   C3B 5871  15.578   6.687   9.851  0.0081  0.1908  0.0754
  367loPI   C4B 5872  15.637   6.748   9.427  0.2035 -0.0524  0.1984
  368loPI    C1 5873   6.748   7.294  11.793 -0.0599  0.0348  0.5281
  368loPI    C2 5874   6.358   7.380  11.772 -0.0660 -0.0797  0.0645
  368loPI    C3 5875   6.612   7.643  11.934 -0.2867  0.1498  0.0439
  368loPI   PO4 5876   6.818   7.190  11.504  0.2330 -0.2428 -0.0995
  368loPI   GL1 5877   6.768   6.948  11.038 -0.1499 -0.0687  0.1127
  368loPI   GL2 5878   6.882   6.674  11.024  0.1832  0.2509 -0.2147
  368loPI   C1A 5879   6.636   7.062  10.586 -0.0469  0.1577 -0.2321
  368loPI   C2A 5880   6.587   7.217  10.128 -0.0696  0.0968 -0.0072
  368loPI   C3A 5881   6.618   7.233   9.695  0.1440  0.2034 -0.1184
  368loPI   C4A 5882   6.750   7.025   9.372  0.1760 -0.0250  0.4252
  368loPI   C5A 5883   6.765   7.120   9.002  0.0261  0.2128 -0.2114
  368loPI   C6A 5884   7.192   7.060   8.728  0.1443  0.2636 -0.2867
  368loPI   C1B 5885   6.850   6.603  10.607 -0.1487  0.0458 -0.2625
  368loPI   C2B 5886   6.854   6.651  10.229  0.2088  0.1021 -0.1413
  368loPI   C3B 5887   6.893   6.665   9.756  0.1614 -0.1696 -0.1757
  368loPI   C4B 5888   6.943   6.599   9.259  0.1218 -0.2434 -0.1545
  369loPI    C1 5889   6.026  10.213  11.741 -0.0152  0.1474 -0.1649
  369loPI    C2 5890   6.336  10.066  11.947 -0.2141 -0.2451 -0.1360
  369loPI    C3 5891   6.095  10.338  12.115  0.0808  0.0244 -0.1409
  369loPI   PO4 5892   6.033  10.196  11.475  0.0200  0.1961  0.1374
  369loPI   GL1 5893   5.791  10.255  11.097  0.0112 -0.2300 -0.0108
  369loPI   GL2 5894   5.754  10.621  11.038 -0.3229  0.0421 -0.2561
  369loPI   C1A 5895   5.856   9.925  10.775  0.0489 -0.1588 -0.0070
  369loPI   C2A 5896   5.821  10.033  10.294 -0.0463 -0.1394 -0.2021
  369loPI   C3A 5897   5.797  10.071   9.959  0.1987  0.0983 -0.0830
  369loPI   C4A 5898   5.730  10.022   9.574  0.3094  0.3861  0.2386
  369loPI   C5A 5899   5.705  10.133   9.117  0.0799 -0.0333  0.0113
  369loPI   C6A 5900   5.710  10.234   8.681  0.2011 -0.0108  0.0537
  369loPI   C1B 5901   5.662  10.527  10.656 -0.0542  0.0696 -0.0913
  369loPI   C2B 5902   5.635  10.504  10.241  0.0534  0.1748 -0.2453
  369loPI   C3B 5903   5.561  10.511   9.853  0.2397  0.0026  0.2342
  369loPI   C4B 5904   5.596  10.545   9.437 -0.2798  0.1079 -0.1407
  370loPI    C1 5905   1.885   8.479  11.658  0.1090 -0.1362  0.1345
  370loPI    C2 5906   2.231   8.355  11.501  0.1162 -0.0743  0.1010
  370loPI    C3 5907   2.227   8.533  11.859  0.0942 -0.2574  0.1931
  370loPI   PO4 5908   1.621   8.233  11.524 -0.0657 -0.1473  0.1545
  370loPI   GL1 5909   1.384   8.181  11.133  0.4808 -0.3255  0.0351
  370loPI   GL2 5910   1.213   8.142  10.827  0.0533 -0.0888 -0.1459
  370loPI   C1A 5911   1.671   8.205  10.741  0.1750  0.0824  0.2942
  370loPI   C2A 5912   1.679   8.141  10.271  0.0714 -0.1228  0.0137
  370loPI   C3A 5913   1.564   8.245   9.878 -0.2909 -0.1371 -0.0741
  370loPI   C4A 5914   1.587   8.149   9.418 -0.3611  0.2255  0.1992
  370loPI   C5A 5915   1.318   8.205   9.104  0.4275  0.2514  0.1494
  370loPI   C6A 5916   1.180   8.458   8.771 -0.1412  0.0673 -0.0467
  370loPI   C1B 5917   1.154   8.161  10.407  0.1686  0.1756 -0.2908
  370loPI   C2B 5918   1.102   8.250  10.027  0.1882  0.3322  0.2326
  370loPI   C3B 5919   1.032   8.164   9.526 -0.2275  0.2230  0.0775
  370loPI   C4B 5920   0.843   8.339   9.133  0.2510 -0.1723 -0.1029
  371loPI    C1 5921   6.885  13.111  11.639  0.0974  0.0181  0.1012
  371loPI    C2 5922   6.737  12.740  11.615  0.0429  0.0426  0.0543
  371loPI    C3 5923   6.598  12.993  11.891 -0.0256  0.0760 -0.0105
  371loPI   PO4 5924   6.958  13.192  11.457 -0.1237  0.0092  0.1888
  371loPI   GL1 5925   6.821  13.120  11.017 -0.1111  0.2817 -0.2755
  371loPI   GL2 5926   6.623  12.876  11.099 -0.4393  0.2453  0.1154
  371loPI   C1A 5927   6.941  13.155  10.605  0.4219 -0.2516  0.2984
  371loPI   C2A 5928   6.921  13.153  10.194 -0.1818 -0.0432  0.1932
  371loPI   C3A 5929   6.771  13.176   9.732 -0.0482 -0.3629 -0.0208
  371loPI   C4A 5930   6.943  13.162   9.348 -0.2674  0.0456  0.0160
  371loPI   C5A 5931   7.302  13.317   9.108 -0.1691  0.2690 -0.0740
  371loPI   C6A 5932   7.682  13.293   8.770 -0.2257  0.2905 -0.0299
  371loPI   C1B 5933   6.656  12.715  10.671 -0.1302  0.1771 -0.1691
  371loPI   C2B 5934   6.579  12.646  10.272  0.2303  0.1430  0.1435
  371loPI   C3B 5935   6.597  12.718   9.783  0.1075 -0.0809 -0.3507
  371loPI   C4B 5936   6.550  12.897   9.439  0.0999 -0.5430  0.0421
  372loPI    C1 5937  10.618   4.518  11.618 -0.0923  0.1373 -0.0430
  372loPI    C2 5938  10.509   4.141  11.698  0.0317  0.1584  0.2364
  372loPI    C3 5939  10.848   4.288  11.852  0.1289  0.2960 -0.1015
  372loPI   PO4 5940  10.562   4.587  11.365  0.0989 -0.0603 -0.2318
  372loPI   GL1 5941  10.672   4.412  10.951 -0.1115 -0.4723 -0.0320
  372loPI   GL2 5942  10.821   4.158  10.856  0.1317 -0.0819 -0.1907
  372loPI   C1A 5943  10.384   4.511  10.533 -0.3117 -0.0344  0.0738
  372loPI   C2A 5944  10.404   4.508  10.049  0.0893 -0.3705 -0.0536
  372loPI   C3A 5945  10.375   4.511   9.605  0.1590  0.0010 -0.1252
  372loPI   C4A 5946  10.374   4.536   9.274 -0.0036  0.0488  0.0367
  372loPI   C5A 5947  10.425   4.555   8.866 -0.1546  0.0303  0.1266
  372loPI   C6A 5948  10.739   4.730   8.670 -0.1116 -0.1139  0.3247
  372loPI   C1B 5949  10.647   4.065  10.502  0.1508 -0.0313 -0.1120
  372loPI   C2B 5950  10.571   4.012  10.014 -0.1799 -0.0360 -0.0311
  372loPI   C3B 5951  10.621   4.080   9.567  0.3786 -0.1683 -0.0275
  372loPI   C4B 5952  10.655   4.083   9.156 -0.1893  0.0295  0.0128
  373loPI    C1 5953   6.812   1.383  11.741  0.0417 -0.0450 -0.0044
  373loPI    C2 5954   7.028   1.333  12.074 -0.0467  0.0016  0.0603
  373loPI    C3 5955   6.694   1.119  12.018  0.0312 -0.0917 -0.0532
  373loPI   PO4 5956   6.984   1.433  11.557 -0.0592  0.2610  0.0307
  373loPI   GL1 5957   6.974   1.581  11.177 -0.5004 -0.1779  0.1749
  373loPI   GL2 5958   6.979   1.905  10.948 -0.0581  0.0065 -0.1156
  373loPI   C1A 5959   7.302   1.541  10.789  0.2657 -0.1305  0.1763
  373loPI   C2A 5960   7.182   1.632  10.387 -0.0074  0.0453 -0.0579
  373loPI   C3A 5961   7.260   1.746   9.907 -0.0124  0.1023 -0.0104
  373loPI   C4A 5962   7.232   1.752   9.404 -0.0088 -0.0006 -0.0100
  373loPI   C5A 5963   7.396   1.812   9.000 -0.0837 -0.5519  0.0568
  373loPI   C6A 5964   7.495   1.851   8.566 -0.1897 -0.1444  0.0299
  373loPI   C1B 5965   6.897   2.080  10.516  0.1866  0.0082 -0.1588
  373loPI   C2B 5966   7.026   2.144  10.140  0.0052  0.1525 -0.0673
  373loPI   C3B 5967   6.951   2.122   9.692 -0.1785 -0.1424 -0.0493
  373loPI   C4B 5968   6.993   2.169   9.233  0.0403  0.0487  0.2485
  374loPI    C1 5969   3.570   0.281  12.115 -0.0323  0.0366  0.1026
  374loPI    C2 5970   3.750   0.635  12.065 -0.0202  0.0572  0.2843
  374loPI    C3 5971   3.745   0.463  12.426 -0.1357 -0.0689  0.2233
  374loPI   PO4 5972   3.670   0.173  11.887 -0.0307  0.0587 -0.4098
  374loPI   GL1 5973   3.496   0.198  11.435 -0.2315  0.1460 -0.0006
  374loPI   GL2 5974   3.465   0.482  11.185  0.0086  0.0563  0.1020
  374loPI   C1A 5975   3.750   0.099  11.039 -0.2816 -0.1404  0.1150
  374loPI   C2A 5976   3.905   0.116  10.670  0.0726 -0.3617 -0.0924
  374loPI   C3A 5977   3.891   0.093  10.195 -0.0866 -0.1225  0.0955
  374loPI   C4A 5978   3.841   0.099   9.806  0.1628 -0.1378  0.0901
  374loPI   C5A 5979   3.893  -0.008   9.421  0.0203  0.0916 -0.0473
  374loPI   C6A 5980   3.831  -0.334   9.257  0.0632  0.0297 -0.2122
  374loPI   C1B 5981   3.632   0.634  10.804  0.2509  0.1683  0.0320
  374loPI   C2B 5982   3.581   0.617  10.386 -0.6289 -0.1106 -0.3313
  374loPI   C3B 5983   3.741   0.619   9.883  0.0752 -0.1099 -0.1655
  374loPI   C4B 5984   3.690   0.490   9.525  0.0406 -0.0716  0.1252
  375loPI    C1 5985   8.990   5.306  11.683  0.0461 -0.0703 -0.0451
  375loPI    C2 5986   9.188   4.983  11.813 -0.1569 -0.3133 -0.3260
  375loPI    C3 5987   8.856   5.105  12.002  0.1365 -0.0267  0.0210
  375loPI   PO4 5988   9.127   5.327  11.431  0.2012 -0.2196 -0.2131
  375loPI   GL1 5989   8.852   5.264  11.124  0.0682  0.2936  0.1392
  375loPI   GL2 5990   8.583   5.511  11.010  0.0464 -0.0905 -0.5277
  375loPI   C1A 5991   8.990   5.037  10.800  0.0344  0.1255 -0.2546
  375loPI   C2A 5992   9.048   5.034  10.424  0.0545  0.1587  0.0966
  375loPI   C3A 5993   9.083   5.161  10.005  0.3863  0.2958 -0.0689
  375loPI   C4A 5994   9.053   5.161   9.656 -0.0060 -0.2284  0.1089
  375loPI   C5A 5995   9.147   5.143   9.317 -0.2767 -0.2366  0.2356
  375loPI   C6A 5996   9.261   5.542   9.017  0.0218  0.1994  0.2215
  375loPI   C1B 5997   8.770   5.521  10.631 -0.0418 -0.2354 -0.0589
  375loPI   C2B 5998   8.765   5.565  10.260 -0.1430 -0.0680 -0.1302
  375loPI   C3B 5999   8.861   5.603   9.829 -0.1689 -0.1763  0.1153
  375loPI   C4B 6000   8.894   5.558   9.445  0.1363  0.1941 -0.1363
  376loPI    C1 6001   0.059   5.048  11.714  0.1171 -0.0398 -0.3952
  376loPI    C2 6002   0.419   4.884  11.770  0.0428 -0.1411 -0.2070
  376loPI    C3 6003   0.111   4.656  11.655 -0.0231 -0.1044 -0.1044
  376loPI   PO4 6004  -0.019   5.305  11.525 -0.1317 -0.0803  0.1066
  376loPI   GL1 6005  -0.289   5.399  11.124 -0.0542  0.0616  0.0274
  376loPI   GL2 6006  -0.161   5.682  11.009  0.0949  0.0519  0.2369
  376loPI   C1A 6007  -0.108   5.136  10.736  0.0305 -0.1643 -0.1114
  376loPI   C2A 6008  -0.005   5.156  10.374  0.0810  0.2708 -0.0224
  376loPI   C3A 6009  -0.033   5.214   9.975 -0.3655 -0.1433  0.1704
  376loPI   C4A 6010   0.079   5.138   9.568 -0.0664 -0.0412  0.1751
  376loPI   C5A 6011   0.110   5.122   9.092  0.1337  0.5231 -0.1355
  376loPI   C6A 6012   0.139   5.058   8.683 -0.1574 -0.1347  0.3193
  376loPI   C1B 6013  -0.290   5.589  10.567  0.1571  0.1645 -0.0763
  376loPI   C2B 6014  -0.292   5.576  10.159 -0.1136  0.1900  0.2293
  376loPI   C3B 6015  -0.151   5.643   9.777  0.2390  0.1157 -0.3913
  376loPI   C4B 6016  -0.173   5.505   9.361  0.1881 -0.3678 -0.0924
  377loPI    C1 6017   5.678   3.213  11.899 -0.0048 -0.1533 -0.1864
  377loPI    C2 6018   5.982   3.032  11.713  0.2370 -0.0107  0.0623
  377loPI    C3 6019   6.043   3.216  12.063 -0.1010  0.1658  0.0326
  377loPI   PO4 6020   5.582   3.384  11.742 -0.1136  0.4256  0.0290
  377loPI   GL1 6021   5.517   3.222  11.380  0.0572 -0.2832 -0.2560
  377loPI   GL2 6022   5.853   3.148  11.248 -0.1395  0.1786  0.2453
  377loPI   C1A 6023   5.412   3.074  10.981  0.1048  0.0627 -0.3226
  377loPI   C2A 6024   5.386   3.043  10.497  0.1846  0.0460 -0.0169
  377loPI   C3A 6025   5.446   3.087  10.089  0.1130  0.0672  0.1644
  377loPI   C4A 6026   5.457   3.209   9.668 -0.0367  0.2112 -0.0202
  377loPI   C5A 6027   5.456   3.086   9.233  0.1989  0.0331 -0.0786
  377loPI   C6A 6028   5.298   3.280   8.872 -0.2533  0.2702 -0.0537
  377loPI   C1B 6029   5.826   2.990  10.739  0.2631  0.0297  0.1377
  377loPI   C2B 6030   5.904   3.068  10.303 -0.1413 -0.2316  0.0266
  377loPI   C3B 6031   5.987   3.120   9.807  0.3233  0.4611  0.0169
  377loPI   C4B 6032   5.966   3.210   9.353 -0.4039  0.1095  0.2445
  378loPI    C1 6033   0.723  15.703  11.944  0.1701 -0.0839  0.0639
  378loPI    C2 6034   0.631  16.089  11.890 -0.0380 -0.1423 -0.0090
  378loPI    C3 6035   0.475  15.888  12.198  0.0256 -0.1833 -0.0034
  378loPI   PO4 6036   0.790  15.607  11.732  0.0524 -0.2382 -0.1387
  378loPI   GL1 6037   0.557  15.530  11.361 -0.1177  0.0124  0.0472
  378loPI   GL2 6038   0.733  15.300  11.322 -0.0901  0.0115  0.1290
  378loPI   C1A 6039   0.347  15.362  11.022  0.0690 -0.0417  0.2421
  378loPI   C2A 6040   0.437  15.455  10.610  0.2291 -0.0883  0.0660
  378loPI   C3A 6041   0.350  15.459  10.167 -0.1849  0.0095 -0.2018
  378loPI   C4A 6042   0.337  15.516   9.697  0.1315  0.1021  0.3626
  378loPI   C5A 6043   0.356  15.415   9.290  0.2925  0.0983 -0.0148
  378loPI   C6A 6044   0.424  15.350   8.848  0.1494  0.0091  0.0337
  378loPI   C1B 6045   0.879  15.346  10.864 -0.4269 -0.0797  0.0398
  378loPI   C2B 6046   0.880  15.384  10.402  0.0184 -0.0341  0.0320
  378loPI   C3B 6047   0.858  15.430   9.942  0.3097 -0.0893 -0.0572
  378loPI   C4B 6048   0.815  15.399   9.459  0.0724 -0.1870  0.0256
  379loPI    C1 6049  13.461   9.578  11.405 -0.1886  0.0159 -0.0579
  379loPI    C2 6050  13.230   9.802  11.642 -0.0115 -0.0178  0.1495
  379loPI    C3 6051  13.622   9.769  11.717 -0.0382 -0.4166  0.1378
  379loPI   PO4 6052  13.337   9.406  11.387 -0.2772  0.3005  0.2370
  379loPI   GL1 6053  13.225   9.362  10.987 -0.1467 -0.0483  0.0201
  379loPI   GL2 6054  12.923   9.592  10.869  0.2903 -0.0644  0.4065
  379loPI   C1A 6055  13.103   9.181  10.599 -0.0033 -0.1306 -0.0104
  379loPI   C2A 6056  13.050   9.179  10.164 -0.0438  0.0459  0.4524
  379loPI   C3A 6057  13.134   9.323   9.763 -0.3401 -0.0106 -0.2992
  379loPI   C4A 6058  12.983   9.295   9.299  0.2333  0.1914  0.0525
  379loPI   C5A 6059  12.839   9.211   8.954  0.4041  0.1568  0.0528
  379loPI   C6A 6060  12.452   9.020   8.786 -0.2176 -0.1812  0.0295
  379loPI   C1B 6061  12.846   9.668  10.387  0.1375  0.1264 -0.0349
  379loPI   C2B 6062  12.820   9.721   9.950  0.0862  0.2720 -0.0525
  379loPI   C3B 6063  12.967   9.760   9.558 -0.1691  0.1110 -0.0512
  379loPI   C4B 6064  12.834   9.741   9.186 -0.0271 -0.0766  0.4074
  380loPI    C1 6065   1.541   6.963  11.644  0.1539 -0.0443 -0.0067
  380loPI    C2 6066   1.415   6.941  12.023  0.0003 -0.0448 -0.0570
  380loPI    C3 6067   1.806   6.929  11.941  0.0455  0.1741  0.1178
  380loPI   PO4 6068   1.374   6.823  11.499 -0.1936 -0.0718  0.1162
  380loPI   GL1 6069   1.074   7.000  11.164 -0.1092 -0.0891 -0.2175
  380loPI   GL2 6070   1.096   7.267  10.971  0.2035  0.0614 -0.1712
  380loPI   C1A 6071   1.252   6.841  10.678  0.0872  0.1162  0.2274
  380loPI   C2A 6072   1.178   6.782  10.244 -0.1798  0.1826  0.4004
  380loPI   C3A 6073   1.210   6.886   9.831  0.0967 -0.0323  0.0771
  380loPI   C4A 6074   1.117   6.863   9.402  0.1034 -0.1883  0.4093
  380loPI   C5A 6075   1.033   6.745   8.929 -0.1914 -0.2090  0.1001
  380loPI   C6A 6076   1.120   6.454   8.544  0.0106  0.1842 -0.0504
  380loPI   C1B 6077   1.031   7.316  10.484 -0.0576  0.0461 -0.0244
  380loPI   C2B 6078   1.044   7.325  10.048 -0.0767 -0.0480  0.2056
  380loPI   C3B 6079   1.006   7.323   9.567 -0.1627  0.0025 -0.1003
  380loPI   C4B 6080   0.911   7.458   9.140 -0.1799  0.2133  0.2815
  381loPI    C1 6081   3.109  15.254  11.696 -0.0903  0.0258  0.0659
  381loPI    C2 6082   3.232  15.501  11.986  0.2470 -0.0523 -0.0055
  381loPI    C3 6083   3.193  15.110  12.060 -0.2586  0.0111  0.0995
  381loPI   PO4 6084   3.184  15.352  11.467 -0.0614  0.1146  0.0578
  381loPI   GL1 6085   2.999  15.664  11.194 -0.1486 -0.0312  0.0084
  381loPI   GL2 6086   3.229  15.957  11.095 -0.1628 -0.0527 -0.0051
  381loPI   C1A 6087   2.751  15.694  10.816 -0.1524 -0.0777 -0.0054
  381loPI   C2A 6088   2.745  15.709  10.468 -0.0797 -0.1470  0.2920
  381loPI   C3A 6089   2.727  15.692   9.955  0.1210 -0.0289 -0.1045
  381loPI   C4A 6090   2.743  15.756   9.539  0.1623  0.0226 -0.3306
  381loPI   C5A 6091   2.814  15.618   9.092  0.2901 -0.2438  0.0025
  381loPI   C6A 6092   2.778  15.742   8.686  0.0785  0.2085 -0.2173
  381loPI   C1B 6093   3.207  15.738  10.684  0.2906 -0.1130 -0.1117
  381loPI   C2B 6094   3.204  15.648  10.267  0.0052  0.0865 -0.1604
  381loPI   C3B 6095   3.220  15.656   9.809 -0.3597  0.1850  0.0809
  381loPI   C4B 6096   3.316  15.678   9.430 -0.1576  0.2673 -0.0958
  382loPI    C1 6097   6.447   9.552  11.654 -0.2071  0.0197  0.0489
  382loPI    C2 6098   6.095   9.729  11.585 -0.1515  0.1084 -0.0097
  382loPI    C3 6099   6.111   9.392  11.799 -0.3011 -0.0400 -0.2282
  382loPI   PO4 6100   6.588   9.584  11.346 -0.2439 -0.1582 -0.0859
  382loPI   GL1 6101   6.489   9.458  10.973  0.3168 -0.2703  0.0984
  382loPI   GL2 6102   6.722   9.398  10.782 -0.0681 -0.2574  0.2554
  382loPI   C1A 6103   6.390   9.808  10.649  0.1313  0.2577  0.0661
  382loPI   C2A 6104   6.324   9.946  10.245 -0.0413  0.2487  0.1231
  382loPI   C3A 6105   6.302  10.007   9.816 -0.2658  0.1383 -0.1157
  382loPI   C4A 6106   6.453  10.056   9.474 -0.3777 -0.2207 -0.0581
  382loPI   C5A 6107   6.557   9.828   9.114  0.0943  0.0787 -0.1291
  382loPI   C6A 6108   6.556   9.774   8.815 -0.0155  0.2544  0.0428
  382loPI   C1B 6109   6.588   9.437  10.419 -0.0454 -0.0949  0.1610
  382loPI   C2B 6110   6.561   9.544   9.967  0.0582 -0.0044 -0.1065
  382loPI   C3B 6111   6.534   9.508   9.543 -0.1606  0.1901 -0.0287
  382loPI   C4B 6112   6.377   9.361   9.162 -0.4327  0.1595 -0.1336
  383loPI    C1 6113  12.345   2.777  11.386  0.0225 -0.2123 -0.0718
  383loPI    C2 6114  12.148   2.882  11.718  0.1714 -0.2532  0.0305
  383loPI    C3 6115  12.464   3.095  11.597 -0.0122 -0.1088 -0.2063
  383loPI   PO4 6116  12.184   2.776  11.137 -0.0117  0.0870  0.2040
  383loPI   GL1 6117  12.264   2.940  10.772 -0.3204  0.1101  0.0046
  383loPI   GL2 6118  12.544   2.696  10.843 -0.0203 -0.1951  0.1374
  383loPI   C1A 6119  12.050   2.946  10.358 -0.1576  0.2985 -0.2396
  383loPI   C2A 6120  11.905   2.852  10.024 -0.1431  0.0557  0.0039
  383loPI   C3A 6121  11.821   2.746   9.617  0.0225  0.0977  0.0810
  383loPI   C4A 6122  11.547   2.663   9.241 -0.4611  0.1095  0.1616
  383loPI   C5A 6123  11.404   2.566   8.908 -0.3649  0.0849 -0.0206
  383loPI   C6A 6124  11.350   2.269   8.516  0.2456  0.0955  0.0143
  383loPI   C1B 6125  12.420   2.611  10.420 -0.0368  0.2306  0.0007
  383loPI   C2B 6126  12.363   2.557  10.034 -0.1543 -0.0707 -0.1948
  383loPI   C3B 6127  12.344   2.504   9.669 -0.0375  0.0384 -0.0173
  383loPI   C4B 6128  12.145   2.615   9.262  0.2243  0.1413  0.1132
  384loPI    C1 6129   7.796  16.821  11.919  0.0972  0.2511  0.0793
  384loPI    C2 6130   7.456  16.852  12.127  0.0046  0.3061 -0.0780
  384loPI    C3 6131   7.766  17.090  12.213  0.0238  0.2171  0.1029
  384loPI   PO4 6132   7.700  16.808  11.635  0.1252 -0.2298  0.0073
  384loPI   GL1 6133   7.515  16.465  11.298 -0.1677  0.2480 -0.2553
  384loPI   GL2 6134   7.301  16.618  11.183 -0.1505  0.1028  0.1706
  384loPI   C1A 6135   7.621  16.261  10.851 -0.0129  0.0639  0.0367
  384loPI   C2A 6136   7.462  16.271  10.394  0.0327 -0.1014  0.0350
  384loPI   C3A 6137   7.497  16.276   9.826 -0.2323  0.4334  0.2312
  384loPI   C4A 6138   7.568  16.240   9.346  0.0298 -0.1835  0.0743
  384loPI   C5A 6139   7.736  16.111   8.976  0.2205 -0.0197 -0.1773
  384loPI   C6A 6140   7.748  15.722   8.825  0.3861 -0.0899  0.0406
  384loPI   C1B 6141   7.339  16.689  10.671 -0.2592  0.1721  0.0887
  384loPI   C2B 6142   7.326  16.704  10.213 -0.4277 -0.4183 -0.1833
  384loPI   C3B 6143   7.222  16.711   9.786  0.0382 -0.0144  0.0392
  384loPI   C4B 6144   7.350  16.680   9.384 -0.2816 -0.2010 -0.2281
  385loPI    C1 6145   6.462  14.299  11.904  0.1525 -0.1875 -0.0466
  385loPI    C2 6146   6.823  14.340  12.073  0.0643  0.3018  0.0376
  385loPI    C3 6147   6.494  14.331  12.302  0.0264 -0.3262 -0.0245
  385loPI   PO4 6148   6.534  14.385  11.672  0.1366 -0.4151  0.0791
  385loPI   GL1 6149   6.685  14.476  11.262  0.0943 -0.0024  0.0150
  385loPI   GL2 6150   6.581  14.114  11.156 -0.2078  0.0219 -0.1664
  385loPI   C1A 6151   6.848  14.489  10.884  0.0644 -0.1526 -0.2044
  385loPI   C2A 6152   6.821  14.521  10.434 -0.1499 -0.1837 -0.0184
  385loPI   C3A 6153   6.791  14.542  10.007 -0.1627 -0.0001  0.3279
  385loPI   C4A 6154   6.680  14.506   9.606 -0.3424  0.0665 -0.0284
  385loPI   C5A 6155   6.604  14.578   9.191 -0.0664  0.0308  0.2229
  385loPI   C6A 6156   6.610  14.609   8.834 -0.0300 -0.1587 -0.0202
  385loPI   C1B 6157   6.580  14.090  10.747 -0.0108 -0.0198 -0.1938
  385loPI   C2B 6158   6.473  14.056  10.335 -0.0748 -0.1399  0.3190
  385loPI   C3B 6159   6.458  14.138   9.798 -0.2507  0.0246 -0.3605
  385loPI   C4B 6160   6.467  14.076   9.378 -0.0435 -0.4761 -0.0607
  386loPI    C1 6161   6.049  13.466  11.584  0.1460 -0.0610  0.0172
  386loPI    C2 6162   6.118  13.212  11.886  0.1129 -0.1954 -0.0874
  386loPI    C3 6163   5.977  13.579  11.961  0.0544 -0.2468  0.0565
  386loPI   PO4 6164   5.942  13.267  11.380  0.0420  0.2443 -0.2407
  386loPI   GL1 6165   5.842  13.521  10.885 -0.2182  0.4205 -0.1488
  386loPI   GL2 6166   5.576  13.643  10.702  0.2330  0.1001 -0.2372
  386loPI   C1A 6167   5.803  13.228  10.503  0.1069 -0.2883  0.2591
  386loPI   C2A 6168   5.844  13.309  10.004 -0.0922 -0.0901  0.0017
  386loPI   C3A 6169   5.518  13.345   9.755 -0.0064 -0.1221  0.1359
  386loPI   C4A 6170   5.247  13.327   9.361 -0.2043 -0.1435 -0.3643
  386loPI   C5A 6171   5.240  13.307   8.971  0.3744 -0.0576 -0.0636
  386loPI   C6A 6172   5.360  13.093   8.670 -0.2566  0.2031 -0.0253
  386loPI   C1B 6173   5.744  13.711  10.316 -0.1526 -0.0083 -0.2450
  386loPI   C2B 6174   5.756  13.800   9.869 -0.0847  0.1641 -0.0575
  386loPI   C3B 6175   5.740  13.660   9.461 -0.2015  0.0689 -0.1827
  386loPI   C4B 6176   5.881  13.443   9.132 -0.3498 -0.0500 -0.1637
  387loPI    C1 6177   8.646   2.242  11.572  0.2079  0.1882  0.2445
  387loPI    C2 6178   8.648   1.994  11.885  0.0259  0.0114  0.1081
  387loPI    C3 6179   8.382   2.292  11.868 -0.1928 -0.1885 -0.0367
  387loPI   PO4 6180   8.791   2.038  11.396  0.0549 -0.1697 -0.2966
  387loPI   GL1 6181   8.891   1.806  11.112  0.3809  0.1938  0.2448
  387loPI   GL2 6182   9.050   1.936  11.008 -0.2796  0.0102  0.2366
  387loPI   C1A 6183   8.767   1.567  10.819  0.0829 -0.1267 -0.0604
  387loPI   C2A 6184   8.795   1.617  10.517 -0.0617 -0.2822  0.2622
  387loPI   C3A 6185   8.786   1.519  10.073 -0.0132  0.0364 -0.0972
  387loPI   C4A 6186   8.780   1.491   9.593  0.3406  0.2031  0.0349
  387loPI   C5A 6187   8.696   1.877   9.215  0.1318 -0.3043  0.0612
  387loPI   C6A 6188   8.517   1.931   8.847 -0.1135  0.2519  0.1012
  387loPI   C1B 6189   9.173   1.978  10.622 -0.2231  0.1044 -0.0020
  387loPI   C2B 6190   9.195   2.019  10.189 -0.2610  0.0735  0.1130
  387loPI   C3B 6191   9.029   1.913   9.857 -0.0323  0.1355 -0.0654
  387loPI   C4B 6192   9.072   1.992   9.484 -0.0801 -0.0271  0.0187
  388loPI    C1 6193  13.516   0.461  11.894 -0.1479  0.1836 -0.0338
  388loPI    C2 6194  13.646   0.284  12.228 -0.1807 -0.0790 -0.1578
  388loPI    C3 6195  13.282   0.449  12.219 -0.1816 -0.0752 -0.0661
  388loPI   PO4 6196  13.678   0.567  11.776  0.0609 -0.1979  0.0736
  388loPI   GL1 6197  13.707   0.409  11.405 -0.0920  0.0268 -0.0081
  388loPI   GL2 6198  13.961   0.159  11.329 -0.1887  0.3215 -0.0037
  388loPI   C1A 6199  13.608   0.479  10.986 -0.1142  0.0014 -0.2453
  388loPI   C2A 6200  13.805   0.565  10.714  0.0892  0.3491  0.1450
  388loPI   C3A 6201  13.771   0.528  10.347 -0.1565 -0.1298  0.1795
  388loPI   C4A 6202  13.793   0.386   9.870  0.1213 -0.0819  0.0107
  388loPI   C5A 6203  13.832   0.520   9.432  0.3842 -0.0379  0.1427
  388loPI   C6A 6204  14.010   0.482   9.036 -0.0736  0.1202 -0.2123
  388loPI   C1B 6205  13.882  -0.002  10.964 -0.0499 -0.2049  0.0894
  388loPI   C2B 6206  14.022   0.007  10.482  0.1120  0.2041 -0.0249
  388loPI   C3B 6207  14.016  -0.115  10.007  0.0047 -0.1902 -0.1072
  388loPI   C4B 6208  13.993  -0.068   9.514  0.0987  0.2204 -0.2834
  389loPI    C1 6209  15.602   3.440  11.599 -0.4236 -0.5622  0.2844
  389loPI    C2 6210  15.844   3.497  11.913 -0.2592  0.2376  0.0339
  389loPI    C3 6211  15.465   3.624  11.927 -0.2052  0.4231 -0.1428
  389loPI   PO4 6212  15.775   3.535  11.413 -0.2366  0.0511  0.0319
  389loPI   GL1 6213  15.748   3.386  10.996 -0.0999 -0.1626  0.2031
  389loPI   GL2 6214  15.798   3.682  10.783 -0.1643 -0.2615 -0.0610
  389loPI   C1A 6215  15.896   3.201  10.693 -0.1940  0.0905  0.2070
  389loPI   C2A 6216  15.939   3.344  10.267 -0.0474 -0.2195 -0.1333
  389loPI   C3A 6217  15.978   3.389   9.789  0.1251 -0.3077 -0.2535
  389loPI   C4A 6218  16.174   3.481   9.446 -0.0347 -0.2392 -0.0349
  389loPI   C5A 6219  16.138   3.492   8.992  0.1448 -0.0363 -0.1907
  389loPI   C6A 6220  16.157   3.487   8.596 -0.4447  0.0931 -0.3443
  389loPI   C1B 6221  15.796   3.840  10.420  0.0713 -0.0280 -0.2309
  389loPI   C2B 6222  15.804   3.924   9.941  0.2954  0.2414  0.0469
  389loPI   C3B 6223  15.737   3.792   9.518 -0.2410  0.1467  0.0262
  389loPI   C4B 6224  15.688   3.812   9.053 -0.4215  0.4885  0.1112
  390loPI    C1 6225  11.330   2.904  11.571 -0.3240  0.1564 -0.1725
  390loPI    C2 6226  11.488   3.200  11.788 -0.1358  0.0282 -0.1318
  390loPI    C3 6227  11.107   3.094  11.843 -0.1163  0.0596  0.0694
  390loPI   PO4 6228  11.307   2.968  11.400 -0.0743 -0.3475 -0.0265
  390loPI   GL1 6229  11.327   3.099  11.001 -0.0982  0.1471  0.1538
  390loPI   GL2 6230  11.278   3.398  10.864 -0.3277  0.0484  0.1467
  390loPI   C1A 6231  10.861   3.145  10.948  0.1314  0.0916  0.0081
  390loPI   C2A 6232  10.567   3.197  10.565  0.1317  0.0643 -0.0981
  390loPI   C3A 6233  10.539   3.174  10.106  0.2884  0.2559  0.0838
  390loPI   C4A 6234  10.479   3.245   9.631 -0.1099  0.1227  0.0163
  390loPI   C5A 6235  10.373   3.223   9.210 -0.4281 -0.0274 -0.0184
  390loPI   C6A 6236  10.539   3.069   8.796  0.2100  0.1057  0.1706
  390loPI   C1B 6237  11.082   3.221  10.436  0.4889  0.0793  0.0698
  390loPI   C2B 6238  11.048   3.179   9.934  0.4390  0.1080  0.2027
  390loPI   C3B 6239  11.053   3.156   9.551  0.1330 -0.0090 -0.2287
  390loPI   C4B 6240  10.866   3.214   9.135 -0.0474  0.0762 -0.0985
  391loPI    C1 6241   3.194  13.896  11.634 -0.0614  0.3174 -0.1007
  391loPI    C2 6242   3.472  13.823  11.355  0.0003  0.1567  0.0016
  391loPI    C3 6243   3.581  13.954  11.717 -0.0536  0.0540  0.0555
  391loPI   PO4 6244   2.921  14.022  11.504 -0.0704 -0.3290  0.2054
  391loPI   GL1 6245   2.684  14.253  11.113  0.2398 -0.1297 -0.0782
  391loPI   GL2 6246   2.541  13.987  11.175  0.0086 -0.2068  0.1544
  391loPI   C1A 6247   2.854  14.381  10.674 -0.1703 -0.0657 -0.0223
  391loPI   C2A 6248   2.829  14.372  10.142 -0.1568 -0.0184  0.1646
  391loPI   C3A 6249   2.820  14.309   9.727 -0.0140  0.0206 -0.0783
  391loPI   C4A 6250   2.740  14.232   9.198 -0.0387 -0.0384 -0.1928
  391loPI   C5A 6251   2.402  14.263   8.871  0.3359 -0.0794  0.0030
  391loPI   C6A 6252   2.186  14.392   8.522  0.3556  0.0216  0.0380
  391loPI   C1B 6253   2.517  14.042  10.728  0.0020  0.4479  0.2086
  391loPI   C2B 6254   2.524  13.972  10.312  0.3101 -0.0281 -0.0996
  391loPI   C3B 6255   2.525  13.980   9.933 -0.0253 -0.1663 -0.2911
  391loPI   C4B 6256   2.449  13.970   9.515  0.1330 -0.0048 -0.1463
  392loPI    C1 6257   5.260  14.346  11.377  0.1567  0.1037 -0.0451
  392loPI    C2 6258   5.288  14.705  11.550 -0.3579  0.1713 -0.0861
  392loPI    C3 6259   5.000  14.452  11.662 -0.3156 -0.0277 -0.4142
  392loPI   PO4 6260   5.566  14.307  11.401  0.2347 -0.1742 -0.1307
  392loPI   GL1 6261   5.828  14.363  11.100  0.1104  0.2215 -0.1120
  392loPI   GL2 6262   6.069  14.285  11.084  0.1765  0.0632  0.1386
  392loPI   C1A 6263   5.810  14.616  10.777  0.2977  0.0475 -0.1797
  392loPI   C2A 6264   5.839  14.575  10.417  0.0753 -0.4001  0.2101
  392loPI   C3A 6265   5.779  14.563   9.992 -0.2385  0.0223 -0.1478
  392loPI   C4A 6266   5.659  14.609   9.560 -0.1244 -0.2544  0.1897
  392loPI   C5A 6267   5.580  14.534   9.097 -0.2296 -0.1715  0.2399
  392loPI   C6A 6268   5.681  14.733   8.758 -0.1320 -0.0054  0.1701
  392loPI   C1B 6269   6.002  14.160  10.663  0.1597 -0.0680  0.1126
  392loPI   C2B 6270   5.986  14.141  10.200 -0.1207  0.2964  0.0169
  392loPI   C3B 6271   5.964  14.211   9.728 -0.2534 -0.0098  0.0771
  392loPI   C4B 6272   5.845  14.197   9.325 -0.0440  0.2313  0.1177
  393loPI    C1 6273   9.969  10.720  11.588 -0.1864  0.0023  0.0927
  393loPI    C2 6274  10.325  10.542  11.626 -0.0774  0.2007  0.0165
  393loPI    C3 6275  10.054  10.510  11.918  0.0167  0.0812  0.0924
  393loPI   PO4 6276   9.904  10.730  11.348  0.2495 -0.0530  0.0416
  393loPI   GL1 6277   9.648  10.799  10.924  0.1618  0.1391  0.1225
  393loPI   GL2 6278   9.882  10.949  10.893  0.1498  0.3646 -0.2400
  393loPI   C1A 6279   9.526  10.524  10.588 -0.1033 -0.2044 -0.0789
  393loPI   C2A 6280   9.553  10.492  10.128  0.1358 -0.1971 -0.0656
  393loPI   C3A 6281   9.528  10.529   9.689 -0.0312 -0.3597  0.3848
  393loPI   C4A 6282   9.629  10.617   9.302 -0.1896  0.0168 -0.1155
  393loPI   C5A 6283   9.872  10.643   8.925 -0.2615 -0.0061 -0.0814
  393loPI   C6A 6284  10.374  10.765   8.960  0.1969  0.1420  0.0722
  393loPI   C1B 6285   9.840  11.035  10.457  0.1606  0.2186 -0.2461
  393loPI   C2B 6286   9.918  11.067   9.947 -0.1313 -0.1491 -0.1582
  393loPI   C3B 6287  10.040  10.979   9.560  0.0709 -0.0107  0.1083
  393loPI   C4B 6288   9.866  11.063   9.226 -0.0008  0.5323  0.1208
  394loPI    C1 6289  13.927  15.020  12.059  0.0394  0.0155 -0.0012
  394loPI    C2 6290  13.985  14.628  12.116 -0.3219 -0.0870 -0.3000
  394loPI    C3 6291  13.690  14.817  12.310  0.0379  0.1075  0.0724
  394loPI   PO4 6292  13.949  15.000  11.766 -0.0273 -0.1702 -0.0652
  394loPI   GL1 6293  13.921  14.937  11.340 -0.1574 -0.2176  0.1466
  394loPI   GL2 6294  13.604  14.841  11.423  0.1630 -0.2229 -0.1076
  394loPI   C1A 6295  14.033  15.057  10.863  0.0608 -0.0586  0.0546
  394loPI   C2A 6296  13.977  15.144  10.390 -0.1070 -0.2538 -0.2916
  394loPI   C3A 6297  14.042  15.082   9.958  0.1548 -0.3222 -0.2950
  394loPI   C4A 6298  13.996  15.005   9.533 -0.1237 -0.2992  0.2394
  394loPI   C5A 6299  13.889  15.057   9.121  0.1529  0.2074  0.1097
  394loPI   C6A 6300  13.731  14.801   8.757  0.1874  0.0576  0.1398
  394loPI   C1B 6301  13.631  14.677  10.973 -0.2366  0.0650  0.2265
  394loPI   C2B 6302  13.687  14.722  10.560 -0.1402  0.1699  0.2233
  394loPI   C3B 6303  13.765  14.668  10.101  0.2597  0.0763  0.0162
  394loPI   C4B 6304  13.604  14.645   9.667  0.1450 -0.3100  0.0472
  395loPI    C1 6305   7.259  11.628  11.805  0.1408 -0.1158  0.2011
  395loPI    C2 6306   7.272  11.927  12.070 -0.0105 -0.0747  0.1631
  395loPI    C3 6307   7.141  11.566  12.182 -0.1848 -0.0266  0.1165
  395loPI   PO4 6308   7.173  11.797  11.571  0.1953 -0.0173  0.0980
  395loPI   GL1 6309   7.145  11.712  11.163 -0.1898  0.0412  0.1706
  395loPI   GL2 6310   6.921  11.885  11.035 -0.2421  0.1244 -0.2204
  395loPI   C1A 6311   7.244  11.313  10.901  0.0702  0.1379 -0.0284
  395loPI   C2A 6312   7.367  11.198  10.492 -0.2403  0.1028 -0.0935
  395loPI   C3A 6313   7.236  11.197  10.176 -0.0055  0.1662 -0.0054
  395loPI   C4A 6314   7.181  11.310   9.717  0.2829  0.2526  0.2078
  395loPI   C5A 6315   7.136  11.234   9.331  0.1960 -0.2519 -0.0508
  395loPI   C6A 6316   7.482  11.041   9.037  0.0561  0.2921  0.0049
  395loPI   C1B 6317   7.107  11.730  10.651 -0.0001  0.0674  0.1044
  395loPI   C2B 6318   7.106  11.651  10.173 -0.0183  0.1534  0.1095
  395loPI   C3B 6319   7.003  11.717   9.756  0.1858 -0.1635  0.1323
  395loPI   C4B 6320   7.001  11.787   9.311 -0.0200  0.1195 -0.0327
  396loPI    C1 6321   4.416   4.486  11.469 -0.2194 -0.1832 -0.0930
  396loPI    C2 6322   4.473   4.151  11.681 -0.1238 -0.2263 -0.1855
  396loPI    C3 6323   4.726   4.458  11.720 -0.2014 -0.1709 -0.1138
  396loPI   PO4 6324   4.321   4.394  11.247  0.1684  0.0201 -0.3451
  396loPI   GL1 6325   4.236   4.272  10.870 -0.0780 -0.1150 -0.1274
  396loPI   GL2 6326   4.069   4.477  10.730 -0.0729  0.2441  0.0192
  396loPI   C1A 6327   4.426   4.163  10.497  0.1611 -0.0886 -0.0061
  396loPI   C2A 6328   4.401   4.134  10.095 -0.4452 -0.2147 -0.2361
  396loPI   C3A 6329   4.514   4.130   9.762  0.2928 -0.3090  0.1552
  396loPI   C4A 6330   4.559   4.156   9.370 -0.0484 -0.0978 -0.0769
  396loPI   C5A 6331   4.677   3.905   9.020  0.1588  0.1689 -0.1443
  396loPI   C6A 6332   5.118   3.809   8.829  0.0231 -0.2162  0.1957
  396loPI   C1B 6333   4.110   4.560  10.376  0.2937 -0.1218 -0.0333
  396loPI   C2B 6334   4.228   4.593   9.945 -0.1334 -0.3249  0.3501
  396loPI   C3B 6335   4.285   4.533   9.522 -0.1150  0.0977  0.0700
  396loPI   C4B 6336   4.434   4.598   9.045  0.1875 -0.0201 -0.0000
  397loPI    C1 6337  17.006  13.942  11.979 -0.1610  0.1695 -0.0397
  397loPI    C2 6338  16.721  14.179  12.128 -0.0453  0.1530  0.2132
  397loPI    C3 6339  16.962  13.977  12.375  0.1239  0.0925  0.0013
  397loPI   PO4 6340  16.992  14.019  11.707  0.3696  0.0716 -0.0955
  397loPI   GL1 6341  16.896  14.031  11.280  0.0760  0.2286 -0.1090
  397loPI   GL2 6342  17.075  13.738  11.208  0.3800 -0.1301  0.1238
  397loPI   C1A 6343  16.874  14.151  11.005  0.1989 -0.1967 -0.0779
  397loPI   C2A 6344  16.780  14.217  10.611  0.0006  0.2673  0.0783
  397loPI   C3A 6345  16.748  14.205  10.191 -0.2270  0.0578 -0.2020
  397loPI   C4A 6346  16.770  14.253   9.867  0.1294 -0.0110 -0.1885
  397loPI   C5A 6347  16.865  14.264   9.347  0.0994  0.2094  0.0454
  397loPI   C6A 6348  16.796  14.182   8.934  0.0055 -0.2859  0.0313
  397loPI   C1B 6349  16.978  13.703  10.910 -0.1542  0.0432  0.0552
  397loPI   C2B 6350  16.984  13.731  10.510 -0.0740  0.0974  0.0020
  397loPI   C3B 6351  17.040  13.683  10.192  0.5014  0.4216  0.0761
  397loPI   C4B 6352  17.007  13.764   9.803  0.0395  0.2376  0.1705
  398loPI    C1 6353   5.820   4.746  11.504  0.0853 -0.0083  0.0532
  398loPI    C2 6354   5.646   4.409  11.630 -0.0781  0.0182 -0.0964
  398loPI    C3 6355   6.044   4.427  11.592 -0.0459 -0.0676  0.1753
  398loPI   PO4 6356   5.672   4.794  11.252  0.0522 -0.1961  0.2048
  398loPI   GL1 6357   5.701   4.517  10.852  0.2217 -0.1620  0.1604
  398loPI   GL2 6358   5.826   4.290  11.091  0.3694 -0.3049 -0.0149
  398loPI   C1A 6359   5.787   4.367  10.390  0.0273 -0.1731 -0.1066
  398loPI   C2A 6360   5.934   4.406  10.000 -0.0590 -0.0330 -0.1520
  398loPI   C3A 6361   5.925   4.573   9.580 -0.1493  0.1131  0.0803
  398loPI   C4A 6362   5.854   4.492   9.093 -0.0051 -0.0556  0.1386
  398loPI   C5A 6363   5.637   4.761   8.744  0.0623  0.2681 -0.1116
  398loPI   C6A 6364   5.327   5.009   8.439  0.1028 -0.2956 -0.4310
  398loPI   C1B 6365   6.216   4.402  10.774  0.1567 -0.0711 -0.1823
  398loPI   C2B 6366   6.271   4.522  10.332 -0.1518 -0.0219 -0.2587
  398loPI   C3B 6367   6.393   4.479   9.872  0.3334 -0.0200  0.3368
  398loPI   C4B 6368   6.347   4.402   9.367  0.2540 -0.0299 -0.1747
  399loPI    C1 6369   3.027   4.327  11.428 -0.1338  0.0512  0.1839
  399loPI    C2 6370   2.744   4.324  11.711 -0.1792  0.0560  0.1385
  399loPI    C3 6371   3.068   4.094  11.751 -0.0500  0.2682  0.3316
  399loPI   PO4 6372   2.965   4.318  11.151 -0.1865  0.0207 -0.1737
  399loPI   GL1 6373   3.095   4.231  10.772  0.1806  0.1893 -0.0278
  399loPI   GL2 6374   3.081   3.915  10.797  0.1719 -0.1267  0.0041
  399loPI   C1A 6375   3.082   4.363  10.339 -0.6041  0.0153  0.1844
  399loPI   C2A 6376   3.211   4.211  10.000  0.1724 -0.1711 -0.0282
  399loPI   C3A 6377   3.438   4.223   9.614 -0.2125 -0.1453  0.0411
  399loPI   C4A 6378   3.437   4.140   9.165 -0.2905 -0.0325 -0.0206
  399loPI   C5A 6379   3.671   4.259   8.737  0.1103 -0.2483 -0.2555
  399loPI   C6A 6380   3.839   4.007   8.562  0.0268  0.0378  0.2050
  399loPI   C1B 6381   2.947   3.865  10.285 -0.1336 -0.2603  0.2441
  399loPI   C2B 6382   3.020   3.805   9.822  0.0998  0.2084 -0.1806
  399loPI   C3B 6383   3.130   3.783   9.467  0.0799 -0.0882 -0.0519
  399loPI   C4B 6384   3.155   3.733   9.017  0.2211 -0.1440 -0.2856
  400loPI    C1 6385   6.515  10.511  11.720  0.0451 -0.1064 -0.0359
  400loPI    C2 6386   6.853  10.311  11.794  0.1094  0.0607  0.1314
  400loPI    C3 6387   6.642  10.465  12.097 -0.0221  0.1113  0.0151
  400loPI   PO4 6388   6.566  10.580  11.458  0.0817 -0.1630  0.0257
  400loPI   GL1 6389   6.614  10.402  11.109  0.0041 -0.0113  0.0293
  400loPI   GL2 6390   6.254  10.493  11.086  0.0610 -0.1267  0.0021
  400loPI   C1A 6391   6.699  10.287  10.691 -0.0437 -0.2064 -0.1509
  400loPI   C2A 6392   6.681  10.315  10.207 -0.1260  0.0345 -0.1191
  400loPI   C3A 6393   6.571  10.413   9.870 -0.1559 -0.2146  0.0988
  400loPI   C4A 6394   6.556  10.544   9.441  0.1284  0.0135 -0.0872
  400loPI   C5A 6395   6.426  10.720   8.979 -0.1531 -0.2337 -0.0166
  400loPI   C6A 6396   6.512  10.705   8.534 -0.0845 -0.1626 -0.0789
  400loPI   C1B 6397   6.173  10.388  10.692 -0.1517 -0.2978  0.0804
  400loPI   C2B 6398   6.123  10.484  10.228 -0.0355  0.1014  0.0624
  400loPI   C3B 6399   6.033  10.514   9.778  0.2799 -0.0333 -0.0279
  400loPI   C4B 6400   6.064  10.543   9.285  0.0577  0.2393  0.0993
  401loPI    C1 6401  13.076  10.407  11.710 -0.0993 -0.0996  0.1002
  401loPI    C2 6402  13.440  10.261  11.635 -0.1391 -0.1756  0.0534
  401loPI    C3 6403  13.400  10.601  11.842 -0.0305 -0.0009 -0.2066
  401loPI   PO4 6404  12.954  10.246  11.499 -0.1707 -0.1587 -0.0962
  401loPI   GL1 6405  13.188  10.043  11.193 -0.0593  0.0797 -0.0027
  401loPI   GL2 6406  13.351   9.854  11.015 -0.2234  0.0404 -0.0385
  401loPI   C1A 6407  13.065  10.098  10.695 -0.1920  0.0150  0.1306
  401loPI   C2A 6408  13.185  10.066  10.288  0.0048  0.2590  0.3516
  401loPI   C3A 6409  13.212  10.132   9.865 -0.2839  0.1375 -0.3485
  401loPI   C4A 6410  13.243  10.128   9.363 -0.0684  0.1996 -0.1659
  401loPI   C5A 6411  13.263   9.961   8.981  0.2492  0.0961 -0.0988
  401loPI   C6A 6412  13.510   9.637   8.716 -0.2801  0.0975 -0.1162
  401loPI   C1B 6413  13.417   9.591  10.596  0.1222 -0.0062  0.1137
  401loPI   C2B 6414  13.353   9.613  10.116 -0.2905 -0.0735 -0.1136
  401loPI   C3B 6415  13.456   9.692   9.684 -0.0700 -0.1959 -0.2201
  401loPI   C4B 6416  13.404   9.569   9.206 -0.2502 -0.1401 -0.3279
  402loPI    C1 6417   8.898  13.576  11.509  0.0710  0.2765 -0.0905
  402loPI    C2 6418   8.912  13.634  11.905  0.1189 -0.2422 -0.0101
  402loPI    C3 6419   8.559  13.591  11.721  0.0929  0.0725 -0.0394
  402loPI   PO4 6420   9.009  13.739  11.428  0.1220 -0.0450  0.2182
  402loPI   GL1 6421   9.013  13.912  11.070 -0.1215  0.0932  0.3002
  402loPI   GL2 6422   9.146  13.618  10.926 -0.0795  0.1784 -0.1037
  402loPI   C1A 6423   8.790  14.004  10.697 -0.5207 -0.3132 -0.0511
  402loPI   C2A 6424   8.909  14.078  10.263 -0.3494 -0.1361  0.1365
  402loPI   C3A 6425   8.892  14.134   9.784  0.0260 -0.2641  0.1101
  402loPI   C4A 6426   8.844  14.231   9.346  0.2541 -0.1125 -0.2914
  402loPI   C5A 6427   8.984  14.225   8.966 -0.0375  0.0810  0.1051
  402loPI   C6A 6428   9.394  13.981   8.829  0.2766 -0.2101  0.2440
  402loPI   C1B 6429   8.838  13.436  10.592  0.1043  0.0705 -0.1989
  402loPI   C2B 6430   8.726  13.402  10.152  0.0904 -0.0029  0.0168
  402loPI   C3B 6431   8.732  13.418   9.750 -0.0690  0.1992  0.1037
  402loPI   C4B 6432   8.759  13.382   9.394  0.2947  0.0257  0.3562
  403loPI    C1 6433  15.480   3.978  11.583  0.1281 -0.1196 -0.1426
  403loPI    C2 6434  15.315   4.325  11.693  0.0434 -0.1429 -0.1957
  403loPI    C3 6435  15.705   4.261  11.755  0.0657 -0.0263 -0.2139
  403loPI   PO4 6436  15.368   3.915  11.332 -0.0616  0.0287  0.5640
  403loPI   GL1 6437  15.328   3.853  10.901 -0.1026  0.1011 -0.1920
  403loPI   GL2 6438  15.313   3.568  10.817  0.0924 -0.1488 -0.1796
  403loPI   C1A 6439  15.319   3.896  10.416 -0.0588  0.1044 -0.1430
  403loPI   C2A 6440  15.293   3.946  10.018  0.0455  0.1253 -0.0223
  403loPI   C3A 6441  15.311   3.981   9.671  0.2600  0.0146  0.0972
  403loPI   C4A 6442  15.197   4.069   9.214  0.4097 -0.2147  0.1801
  403loPI   C5A 6443  15.255   3.748   8.836 -0.4017  0.0486  0.1628
  403loPI   C6A 6444  15.656   3.643   8.581 -0.1346 -0.2290  0.4045
  403loPI   C1B 6445  15.536   3.426  10.507  0.1418 -0.3209 -0.0270
  403loPI   C2B 6446  15.473   3.469  10.093 -0.2008  0.1472  0.2045
  403loPI   C3B 6447  15.379   3.461   9.667 -0.2475 -0.2189  0.1404
  403loPI   C4B 6448  15.293   3.602   9.315  0.0701  0.1624 -0.1175
  404loPI    C1 6449   4.139   2.858  11.996  0.1327 -0.0928  0.0605
  404loPI    C2 6450   4.233   3.239  11.921 -0.4291  0.0496  0.0375
  404loPI    C3 6451   4.182   3.116  12.298  0.2176 -0.1278  0.0785
  404loPI   PO4 6452   4.229   2.670  11.750  0.0461 -0.0067  0.0026
  404loPI   GL1 6453   4.305   2.545  11.245  0.1833 -0.0453  0.1568
  404loPI   GL2 6454   4.042   2.682  11.259 -0.1538  0.1599  0.1775
  404loPI   C1A 6455   4.237   2.521  10.760  0.1109 -0.1390  0.1153
  404loPI   C2A 6456   4.265   2.500  10.325  0.2189  0.1026 -0.1144
  404loPI   C3A 6457   4.248   2.407   9.963 -0.1930 -0.1017 -0.0313
  404loPI   C4A 6458   4.332   2.330   9.551 -0.1735 -0.3138 -0.3391
  404loPI   C5A 6459   4.316   2.304   9.008  0.1682  0.0211  0.0556
  404loPI   C6A 6460   3.894   2.368   8.804  0.0592 -0.1648  0.1603
  404loPI   C1B 6461   3.935   2.888  10.773 -0.1444  0.0929 -0.0345
  404loPI   C2B 6462   3.971   2.855  10.256 -0.2546  0.0251  0.2366
  404loPI   C3B 6463   4.056   2.794   9.736  0.1533  0.0983  0.0065
  404loPI   C4B 6464   4.065   2.733   9.223  0.0563 -0.1092 -0.0858
  405loPI    C1 6465  13.660  17.343  11.722  0.0061 -0.0170  0.0423
  405loPI    C2 6466  13.999  17.511  11.852  0.1153 -0.2317  0.0396
  405loPI    C3 6467  13.917  17.130  11.944 -0.0863 -0.2061 -0.0299
  405loPI   PO4 6468  13.420  17.397  11.484 -0.0143  0.0843  0.0703
  405loPI   GL1 6469  13.046  17.215  11.291  0.1933  0.1421 -0.1167
  405loPI   GL2 6470  12.943  17.492  11.150  0.0927 -0.2694  0.0849
  405loPI   C1A 6471  13.038  17.036  10.875 -0.2061  0.0101 -0.2234
  405loPI   C2A 6472  13.119  17.001  10.412 -0.0492  0.0637 -0.0032
  405loPI   C3A 6473  13.066  16.939   9.962  0.2282 -0.0786 -0.0741
  405loPI   C4A 6474  13.060  16.878   9.490  0.1111  0.0964 -0.0524
  405loPI   C5A 6475  13.009  16.668   9.043  0.2273 -0.0532 -0.0559
  405loPI   C6A 6476  13.206  16.658   8.648  0.0857 -0.1952  0.2581
  405loPI   C1B 6477  12.912  17.557  10.639  0.0548  0.0898 -0.1225
  405loPI   C2B 6478  12.869  17.500  10.175  0.3033  0.2294 -0.4386
  405loPI   C3B 6479  12.860  17.497   9.859 -0.1049 -0.0347 -0.2506
  405loPI   C4B 6480  12.828  17.400   9.384 -0.0997  0.3345 -0.0491
  406loPI    C1 6481  11.814  13.223  11.892 -0.0935 -0.0586 -0.2467
  406loPI    C2 6482  11.604  13.032  12.173  0.0550  0.0275 -0.0754
  406loPI    C3 6483  11.761  13.392  12.250 -0.0169  0.1119 -0.3144
  406loPI   PO4 6484  11.778  13.061  11.712 -0.0242 -0.0487 -0.0346
  406loPI   GL1 6485  11.746  13.105  11.249  0.2172 -0.1803  0.1169
  406loPI   GL2 6486  12.059  13.219  11.220 -0.2782  0.2864  0.0441
  406loPI   C1A 6487  11.431  13.231  10.840 -0.1570  0.3544  0.2395
  406loPI   C2A 6488  11.438  13.172  10.410  0.2280 -0.2031 -0.1444
  406loPI   C3A 6489  11.317  13.046   9.974 -0.2077  0.0847  0.0142
  406loPI   C4A 6490  11.387  13.137   9.479  0.0990  0.0052  0.3118
  406loPI   C5A 6491  11.335  13.230   9.130 -0.3415 -0.0798  0.1774
  406loPI   C6A 6492  11.522  13.250   8.710  0.4979 -0.2306  0.3115
  406loPI   C1B 6493  11.990  13.090  10.754  0.1652 -0.1152  0.1983
  406loPI   C2B 6494  11.883  13.052  10.236 -0.2215  0.0695 -0.0357
  406loPI   C3B 6495  11.806  13.083   9.790  0.2821  0.0196  0.0795
  406loPI   C4B 6496  11.960  13.197   9.422 -0.0598 -0.0342 -0.0201
  407loPI    C1 6497  16.760   6.001  11.642  0.0683  0.0495 -0.1206
  407loPI    C2 6498  16.376   5.944  11.737  0.0908  0.0879 -0.0054
  407loPI    C3 6499  16.631   6.085  12.011  0.1950  0.0277 -0.0708
  407loPI   PO4 6500  16.727   5.930  11.385  0.3240  0.1306  0.0480
  407loPI   GL1 6501  16.650   6.126  11.023  0.1815 -0.3751  0.3256
  407loPI   GL2 6502  16.354   6.007  10.980  0.1267  0.0371 -0.0096
  407loPI   C1A 6503  16.883   6.014  10.779  0.0736  0.1836  0.2568
  407loPI   C2A 6504  16.955   6.066  10.292 -0.1334 -0.0588 -0.4278
  407loPI   C3A 6505  16.924   6.137   9.873  0.0104  0.0888 -0.0252
  407loPI   C4A 6506  16.930   6.131   9.459  0.4214  0.1496 -0.0887
  407loPI   C5A 6507  17.069   6.031   9.084  0.1117  0.1260  0.3957
  407loPI   C6A 6508  17.150   6.079   8.745  0.0231  0.2352 -0.2160
  407loPI   C1B 6509  16.395   6.262  10.544 -0.2073  0.0186  0.0699
  407loPI   C2B 6510  16.360   6.239  10.088  0.0210 -0.2956  0.1659
  407loPI   C3B 6511  16.430   6.104   9.601  0.2588  0.1566  0.0103
  407loPI   C4B 6512  16.466   6.020   9.181 -0.1547 -0.1873 -0.1333
  408loPI    C1 6513   7.182   3.026  11.760  0.0223 -0.2953  0.0343
  408loPI    C2 6514   7.236   2.706  11.993  0.1673 -0.1236  0.2411
  408loPI    C3 6515   7.256   3.073  12.150 -0.2050 -0.0146  0.0472
  408loPI   PO4 6516   7.273   3.003  11.558 -0.0411 -0.2001  0.3123
  408loPI   GL1 6517   7.126   3.177  11.153 -0.2537 -0.2723 -0.1196
  408loPI   GL2 6518   6.845   2.953  11.161  0.3918  0.2698  0.0399
  408loPI   C1A 6519   7.110   3.388  10.784 -0.6111  0.1968  0.0931
  408loPI   C2A 6520   7.183   3.473  10.419 -0.2542 -0.0036 -0.0639
  408loPI   C3A 6521   7.284   3.458   9.943 -0.4365 -0.2270  0.3834
  408loPI   C4A 6522   7.354   3.362   9.551 -0.1612 -0.0948  0.0432
  408loPI   C5A 6523   7.480   3.121   9.203  0.2462  0.0445  0.1103
  408loPI   C6A 6524   7.747   2.937   9.116  0.3066 -0.2019  0.0982
  408loPI   C1B 6525   6.918   2.887  10.719  0.1521  0.1488 -0.1432
  408loPI   C2B 6526   6.919   3.069  10.306  0.0340 -0.0723  0.1601
  408loPI   C3B 6527   6.950   3.016   9.908 -0.1073  0.0232  0.0840
  408loPI   C4B 6528   7.006   2.976   9.369 -0.0356 -0.2221  0.0072
  409loPI    C1 6529   6.863   8.048  11.696  0.0097  0.0161  0.0449
  409loPI    C2 6530   6.490   8.167  11.777 -0.0140 -0.1842  0.2390
  409loPI    C3 6531   6.769   8.176  12.063  0.1396 -0.0054  0.0860
  409loPI   PO4 6532   6.880   8.133  11.429 -0.0155 -0.0786  0.2103
  409loPI   GL1 6533   6.914   7.984  11.010 -0.0308  0.1263 -0.3425
  409loPI   GL2 6534   6.645   7.882  10.856 -0.1859  0.0173 -0.0062
  409loPI   C1A 6535   7.221   7.927  10.607 -0.1224 -0.0524  0.2680
  409loPI   C2A 6536   7.259   7.873  10.189 -0.2075 -0.0001 -0.0010
  409loPI   C3A 6537   7.301   8.001   9.779  0.3515  0.0756 -0.0393
  409loPI   C4A 6538   7.030   8.015   9.359 -0.2789  0.2753  0.0856
  409loPI   C5A 6539   7.148   8.200   8.938  0.2106  0.1126 -0.4132
  409loPI   C6A 6540   6.937   7.988   8.499 -0.3539 -0.1052 -0.3337
  409loPI   C1B 6541   6.735   8.048  10.415  0.1204 -0.1529  0.1831
  409loPI   C2B 6542   6.734   8.084   9.924 -0.3374  0.0228 -0.3896
  409loPI   C3B 6543   6.573   8.072   9.531 -0.0650 -0.0163  0.3764
  409loPI   C4B 6544   6.656   8.037   9.080 -0.2241 -0.0441  0.0199
  410loPI    C1 6545   4.542  15.134  11.654  0.1422 -0.1197 -0.0316
  410loPI    C2 6546   4.753  15.284  11.959  0.1369 -0.0850 -0.0451
  410loPI    C3 6547   4.812  14.906  11.842 -0.0330 -0.1758  0.1562
  410loPI   PO4 6548   4.602  15.312  11.441  0.0297  0.0980 -0.1853
  410loPI   GL1 6549   4.503  15.220  11.028 -0.2632  0.4308 -0.2803
  410loPI   GL2 6550   4.805  15.154  11.019  0.1696 -0.0572  0.1010
  410loPI   C1A 6551   4.554  15.221  10.545  0.0530 -0.0758 -0.1156
  410loPI   C2A 6552   4.520  15.160  10.102  0.0920 -0.2017  0.0299
  410loPI   C3A 6553   4.515  15.154   9.724 -0.1688  0.0113 -0.3313
  410loPI   C4A 6554   4.414  15.219   9.222  0.0055 -0.2948 -0.1181
  410loPI   C5A 6555   4.098  15.174   8.961 -0.1022 -0.1867 -0.0329
  410loPI   C6A 6556   3.654  15.049   8.897  0.2392 -0.1191 -0.2058
  410loPI   C1B 6557   5.067  15.149  10.599 -0.0365  0.0833 -0.0813
  410loPI   C2B 6558   5.095  15.112  10.269  0.1765  0.0076 -0.1599
  410loPI   C3B 6559   5.043  15.089   9.789 -0.3955  0.0654 -0.0888
  410loPI   C4B 6560   4.914  15.157   9.398 -0.0001  0.1969  0.1831
  411loPI    C1 6561   6.373   8.688  11.241 -0.0510 -0.2157 -0.1320
  411loPI    C2 6562   6.702   8.519  11.089  0.0495 -0.1738  0.0352
  411loPI    C3 6563   6.669   8.572  11.484  0.0054  0.1658 -0.0105
  411loPI   PO4 6564   6.175   8.603  11.174 -0.2585 -0.0976 -0.1163
  411loPI   GL1 6565   6.233   8.390  10.833  0.0330  0.0411  0.3186
  411loPI   GL2 6566   6.035   8.529  10.703  0.0737  0.2278 -0.4301
  411loPI   C1A 6567   6.638   8.529  10.546  0.1599 -0.0463 -0.0927
  411loPI   C2A 6568   6.519   8.466  10.120  0.1077  0.0314 -0.2632
  411loPI   C3A 6569   6.452   8.564   9.695  0.1993  0.2675 -0.0592
  411loPI   C4A 6570   6.262   8.481   9.354 -0.1554 -0.0158 -0.0181
  411loPI   C5A 6571   6.422   8.466   8.940 -0.0724 -0.2859 -0.0226
  411loPI   C6A 6572   6.683   8.382   8.679  0.1555  0.2043 -0.0735
  411loPI   C1B 6573   6.028   8.541  10.289  0.2462  0.1914 -0.0049
  411loPI   C2B 6574   5.976   8.626   9.831 -0.3244  0.0342 -0.1136
  411loPI   C3B 6575   5.795   8.600   9.477 -0.2787 -0.2522  0.1976
  411loPI   C4B 6576   5.878   8.489   8.961  0.1063  0.2201 -0.1815
  412loPI    C1 6577   2.463  15.868  11.790  0.1002 -0.1658 -0.0994
  412loPI    C2 6578   2.586  16.235  11.892 -0.3842 -0.0499  0.0979
  412loPI    C3 6579   2.638  15.929  12.145  0.1565 -0.1571 -0.1286
  412loPI   PO4 6580   2.503  15.897  11.499  0.0519  0.1761 -0.0403
  412loPI   GL1 6581   2.303  15.675  11.138 -0.3579 -0.0008  0.1935
  412loPI   GL2 6582   1.984  15.761  11.133 -0.0410  0.1389  0.0213
  412loPI   C1A 6583   2.247  15.708  10.687  0.1681 -0.1548 -0.0612
  412loPI   C2A 6584   2.163  15.708  10.330 -0.1035 -0.0925 -0.1913
  412loPI   C3A 6585   2.198  15.698   9.926 -0.3646  0.0365  0.0245
  412loPI   C4A 6586   2.234  15.732   9.420  0.0920  0.2791 -0.1411
  412loPI   C5A 6587   1.974  16.007   9.162  0.2926 -0.3804  0.0354
  412loPI   C6A 6588   1.854  16.015   8.735  0.1846 -0.2023 -0.0296
  412loPI   C1B 6589   1.761  15.818  10.804  0.0396  0.0433  0.3362
  412loPI   C2B 6590   1.657  15.743  10.440  0.0217  0.1385  0.2379
  412loPI   C3B 6591   1.736  15.829   9.995 -0.0419  0.0592  0.1233
  412loPI   C4B 6592   1.689  15.787   9.540  0.1273 -0.1229 -0.0904
  413loPI    C1 6593   5.634  12.766  11.463  0.2010 -0.0417 -0.1770
  413loPI    C2 6594   5.651  12.750  11.863 -0.0569  0.2777 -0.1495
  413loPI    C3 6595   5.985  12.814  11.651  0.0690  0.1825  0.0172
  413loPI   PO4 6596   5.505  12.573  11.362 -0.0585 -0.2400  0.2778
  413loPI   GL1 6597   5.329  12.430  11.054  0.4531  0.2263 -0.1135
  413loPI   GL2 6598   5.066  12.245  11.049 -0.3449  0.2374  0.2671
  413loPI   C1A 6599   5.387  12.335  10.568 -0.3870  0.1792  0.0480
  413loPI   C2A 6600   5.199  12.427  10.164 -0.1185  0.1985 -0.0006
  413loPI   C3A 6601   5.183  12.413   9.700 -0.0999 -0.0197 -0.4123
  413loPI   C4A 6602   5.337  12.469   9.253  0.1616  0.0867 -0.1801
  413loPI   C5A 6603   5.152  12.235   8.928 -0.4224 -0.0755 -0.0340
  413loPI   C6A 6604   4.984  12.210   8.534  0.1456 -0.0863  0.0688
  413loPI   C1B 6605   5.071  11.938  10.670 -0.1017 -0.1425  0.0793
  413loPI   C2B 6606   4.970  11.960  10.236  0.2871 -0.2944 -0.2693
  413loPI   C3B 6607   4.958  11.971   9.833 -0.0138  0.0133 -0.2112
  413loPI   C4B 6608   4.965  12.104   9.339 -0.1318  0.0000  0.0437
  414loPI    C1 6609   2.546   3.880  11.745 -0.1018  0.1174 -0.0497
  414loPI    C2 6610   2.173   3.736  11.729 -0.0747  0.0510 -0.0885
  414loPI    C3 6611   2.400   3.669  12.051 -0.1481  0.2201 -0.0006
  414loPI   PO4 6612   2.548   3.930  11.455 -0.0563  0.2602 -0.0986
  414loPI   GL1 6613   2.499   3.975  10.965 -0.1254 -0.3188 -0.0200
  414loPI   GL2 6614   2.534   4.152  10.988  0.1005 -0.1704 -0.0687
  414loPI   C1A 6615   2.407   3.777  10.565  0.1664  0.0268 -0.1297
  414loPI   C2A 6616   2.441   3.871  10.182 -0.1122  0.2406  0.1634
  414loPI   C3A 6617   2.551   3.857   9.741 -0.0848  0.1735  0.2272
  414loPI   C4A 6618   2.676   3.813   9.343 -0.1282 -0.1154  0.0659
  414loPI   C5A 6619   2.666   3.498   9.021  0.1254 -0.1331  0.0489
  414loPI   C6A 6620   2.503   3.170   8.689  0.2460 -0.2223 -0.3469
  414loPI   C1B 6621   2.621   4.267  10.539 -0.0747 -0.2247  0.0304
  414loPI   C2B 6622   2.683   4.252  10.065 -0.0522  0.4346 -0.3182
  414loPI   C3B 6623   2.883   4.235   9.589 -0.3221  0.0478  0.2409
  414loPI   C4B 6624   2.958   4.190   9.135  0.1142 -0.1197  0.0074
  415loPI    C1 6625  14.195  12.393  11.848  0.0509  0.0522  0.0865
  415loPI    C2 6626  14.094  12.011  11.911  0.0366  0.0248 -0.0990
  415loPI    C3 6627  14.006  12.289  12.185 -0.2885 -0.0445 -0.1280
  415loPI   PO4 6628  14.128  12.519  11.613 -0.0418  0.3365  0.0422
  415loPI   GL1 6629  14.096  12.428  11.187  0.1570  0.0073  0.0593
  415loPI   GL2 6630  13.796  12.339  11.012  0.0754  0.1555  0.1254
  415loPI   C1A 6631  14.210  12.277  10.729 -0.1180 -0.2058 -0.1403
  415loPI   C2A 6632  14.218  12.338  10.296  0.3817  0.0311 -0.0734
  415loPI   C3A 6633  14.291  12.337   9.846 -0.0366  0.2979 -0.1063
  415loPI   C4A 6634  14.291  12.351   9.504  0.2272 -0.4490  0.0434
  415loPI   C5A 6635  14.387  12.547   9.251  0.1326 -0.3528  0.0448
  415loPI   C6A 6636  14.517  12.479   8.862  0.0998  0.0177  0.1305
  415loPI   C1B 6637  13.753  12.466  10.564 -0.0256  0.7593 -0.0169
  415loPI   C2B 6638  13.661  12.455  10.093 -0.1518  0.0867  0.0338
  415loPI   C3B 6639  13.757  12.491   9.679 -0.1634 -0.0552 -0.2580
  415loPI   C4B 6640  13.775  12.319   9.339 -0.2216  0.0709 -0.0729
  416loPI    C1 6641  14.599   4.549  11.251 -0.0163  0.2624  0.2172
  416loPI    C2 6642  14.830   4.319  11.483  0.1058  0.1255 -0.0363
  416loPI    C3 6643  14.666   4.652  11.631  0.0084 -0.0708  0.3062
  416loPI   PO4 6644  14.752   4.489  10.910 -0.1233  0.1457 -0.2333
  416loPI   GL1 6645  14.958   4.113  10.651  0.2780 -0.2334  0.0041
  416loPI   GL2 6646  15.119   4.421  10.581 -0.1373 -0.0251  0.1313
  416loPI   C1A 6647  14.827   4.066  10.285  0.0576  0.0361  0.1794
  416loPI   C2A 6648  14.853   4.126   9.911  0.1452  0.3629  0.3046
  416loPI   C3A 6649  14.802   4.212   9.513  0.0572 -0.0109  0.4001
  416loPI   C4A 6650  14.598   4.129   9.157 -0.4195  0.0922 -0.0402
  416loPI   C5A 6651  14.361   3.939   8.808 -0.2380 -0.0478  0.1037
  416loPI   C6A 6652  14.127   3.621   8.540  0.1071  0.3537 -0.0109
  416loPI   C1B 6653  15.122   4.499  10.178  0.0949 -0.1983 -0.0523
  416loPI   C2B 6654  15.118   4.538   9.778 -0.0672  0.0030  0.3365
  416loPI   C3B 6655  15.153   4.529   9.408 -0.1552  0.1050 -0.0881
  416loPI   C4B 6656  15.281   4.559   8.918  0.1405 -0.1195 -0.3417
  417loPI    C1 6657  12.977   9.405  11.774 -0.0374  0.0136 -0.0194
  417loPI    C2 6658  13.052   9.164  12.084  0.0380  0.1257  0.0499
  417loPI    C3 6659  13.342   9.397  11.937 -0.0011  0.0828 -0.0965
  417loPI   PO4 6660  12.881   9.282  11.586 -0.2812  0.0306 -0.1522
  417loPI   GL1 6661  12.810   9.222  11.201 -0.1874 -0.0049 -0.0672
  417loPI   GL2 6662  12.953   8.926  11.096  0.0137 -0.1065 -0.1327
  417loPI   C1A 6663  12.590   9.255  10.796 -0.1038  0.1606  0.0968
  417loPI   C2A 6664  12.521   9.307  10.396 -0.2232  0.0194 -0.0101
  417loPI   C3A 6665  12.564   9.227   9.964 -0.1200 -0.0385 -0.1475
  417loPI   C4A 6666  12.466   9.330   9.553 -0.1280 -0.2419 -0.3496
  417loPI   C5A 6667  12.414   9.436   9.123  0.1058 -0.1688  0.0888
  417loPI   C6A 6668  12.098   9.354   8.781  0.0886 -0.1475  0.2825
  417loPI   C1B 6669  13.269   8.750  10.873 -0.0478 -0.0252  0.0121
  417loPI   C2B 6670  13.345   8.668  10.462 -0.1011 -0.2231  0.3673
  417loPI   C3B 6671  13.281   8.717  10.079 -0.0257  0.0535  0.2074
  417loPI   C4B 6672  13.295   8.873   9.671  0.1619 -0.0547 -0.3849
  418loPI    C1 6673   7.528   8.766  11.529 -0.1415  0.2283  0.0491
  418loPI    C2 6674   7.624   8.520  11.830 -0.1440  0.0608 -0.0854
  418loPI    C3 6675   7.568   8.910  11.900  0.2759  0.1008  0.0589
  418loPI   PO4 6676   7.720   8.597  11.299 -0.1296 -0.1272 -0.3252
  418loPI   GL1 6677   7.939   8.802  10.968 -0.2391 -0.0521  0.2656
  418loPI   GL2 6678   8.096   8.608  10.886 -0.0462  0.3045 -0.0547
  418loPI   C1A 6679   7.917   8.967  10.513  0.1789  0.0379  0.0740
  418loPI   C2A 6680   7.884   8.911  10.146 -0.1436  0.1107 -0.0513
  418loPI   C3A 6681   7.834   8.959   9.766  0.3901 -0.0668 -0.0070
  418loPI   C4A 6682   7.602   9.012   9.304 -0.2337  0.4822 -0.2159
  418loPI   C5A 6683   7.683   8.997   8.861  0.1526 -0.1847 -0.1764
  418loPI   C6A 6684   7.591   8.741   8.586 -0.0517 -0.5015  0.0845
  418loPI   C1B 6685   8.107   8.348  10.565 -0.0415 -0.0995  0.0463
  418loPI   C2B 6686   8.051   8.374  10.168  0.1181  0.2185  0.2188
  418loPI   C3B 6687   8.112   8.387   9.792  0.1389 -0.0483  0.1105
  418loPI   C4B 6688   7.869   8.466   9.389  0.3946 -0.1874 -0.0501
  419loPI    C1 6689  14.621   1.196  11.745  0.3932 -0.2687  0.0683
  419loPI    C2 6690  14.827   1.154  12.085  0.1231  0.0009  0.2708
  419loPI    C3 6691  14.473   1.340  12.087  0.1723  0.1112 -0.1797
  419loPI   PO4 6692  14.740   1.228  11.597  0.0191 -0.1380  0.0425
  419loPI   GL1 6693  15.086   1.150  11.350 -0.0311  0.1173  0.0110
  419loPI   GL2 6694  15.473   1.067  11.309 -0.2161  0.0220 -0.1064
  419loPI   C1A 6695  14.844   1.206  10.924 -0.1283 -0.0176 -0.0889
  419loPI   C2A 6696  14.855   1.255  10.569 -0.1004 -0.0700  0.0735
  419loPI   C3A 6697  14.896   1.171  10.113 -0.2164  0.1537  0.0027
  419loPI   C4A 6698  14.953   1.294   9.720 -0.0412  0.2779 -0.2513
  419loPI   C5A 6699  15.108   1.214   9.344 -0.1358 -0.1151 -0.1492
  419loPI   C6A 6700  15.372   0.976   9.219  0.0120  0.2819 -0.0644
  419loPI   C1B 6701  15.346   1.180  10.875  0.2420 -0.3398 -0.0224
  419loPI   C2B 6702  15.385   1.168  10.494  0.0757  0.1210  0.2394
  419loPI   C3B 6703  15.402   1.078  10.099  0.3589  0.0940 -0.2318
  419loPI   C4B 6704  15.494   1.040   9.723  0.0391 -0.5172 -0.4163
  420loPI    C1 6705   5.374   7.421  11.491  0.2534  0.3303 -0.0013
  420loPI    C2 6706   5.123   7.528  11.783  0.0541  0.0541 -0.0671
  420loPI    C3 6707   5.482   7.376  11.873 -0.0161 -0.0529  0.0348
  420loPI   PO4 6708   5.198   7.438  11.221 -0.1018 -0.2280 -0.0392
  420loPI   GL1 6709   5.280   7.412  10.847 -0.0351 -0.1558  0.1322
  420loPI   GL2 6710   5.005   7.318  10.755  0.0318  0.0262  0.0100
  420loPI   C1A 6711   5.487   7.328  10.515 -0.2890 -0.0989 -0.0618
  420loPI   C2A 6712   5.598   7.253  10.075 -0.2028  0.0179  0.0012
  420loPI   C3A 6713   5.710   7.182   9.654 -0.0647 -0.5311 -0.0647
  420loPI   C4A 6714   5.695   7.085   9.188 -0.0707  0.2430 -0.0678
  420loPI   C5A 6715   5.939   7.058   8.797 -0.2388  0.0014 -0.0373
  420loPI   C6A 6716   6.262   6.914   8.637  0.0687  0.0303  0.2413
  420loPI   C1B 6717   5.021   7.298  10.369 -0.1449  0.1890  0.0530
  420loPI   C2B 6718   4.992   7.272   9.809  0.1773 -0.1065  0.1323
  420loPI   C3B 6719   4.981   7.419   9.309  0.0133 -0.3205 -0.0244
  420loPI   C4B 6720   5.267   7.645   8.959 -0.1443 -0.0883  0.0323
  421loPI    C1 6721   2.558  11.720  11.932 -0.0423 -0.2308 -0.0829
  421loPI    C2 6722   2.933  11.712  12.071  0.0208 -0.0384 -0.2376
  421loPI    C3 6723   2.716  11.376  12.063  0.0096 -0.0548  0.3328
  421loPI   PO4 6724   2.520  11.819  11.681 -0.0392 -0.0665  0.0121
  421loPI   GL1 6725   2.722  11.990  11.340  0.1101  0.2541  0.0271
  421loPI   GL2 6726   2.685  11.661  11.219 -0.2770  0.0557 -0.3108
  421loPI   C1A 6727   2.488  12.046  10.941 -0.0045 -0.1832 -0.1509
  421loPI   C2A 6728   2.408  12.144  10.477  0.1006  0.1159  0.2556
  421loPI   C3A 6729   2.418  12.080  10.046 -0.1078  0.0005 -0.1817
  421loPI   C4A 6730   2.313  12.097   9.594 -0.0880 -0.0251  0.2714
  421loPI   C5A 6731   2.107  12.248   9.192  0.1728 -0.1142 -0.2274
  421loPI   C6A 6732   1.663  12.162   8.967 -0.0663 -0.3655  0.1589
  421loPI   C1B 6733   2.657  11.652  10.687 -0.0157  0.1493 -0.1381
  421loPI   C2B 6734   2.593  11.644  10.235 -0.2962  0.1621  0.0100
  421loPI   C3B 6735   2.510  11.618   9.803 -0.1891 -0.1742  0.0420
  421loPI   C4B 6736   2.430  11.518   9.343 -0.0836 -0.0100 -0.1351
  422loPI    C1 6737  15.874   5.430  11.329 -0.0441  0.0793 -0.3503
  422loPI    C2 6738  15.894   5.165  11.629 -0.0098  0.0864 -0.3463
  422loPI    C3 6739  16.049   5.531  11.675 -0.0183  0.0926 -0.3672
  422loPI   PO4 6740  16.032   5.314  11.155 -0.0299 -0.0988 -0.0096
  422loPI   GL1 6741  15.971   5.011  10.746 -0.1495 -0.0246 -0.0232
  422loPI   GL2 6742  15.746   4.833  10.786  0.0341  0.0953 -0.0734
  422loPI   C1A 6743  16.239   5.171  10.395 -0.1858  0.0352 -0.0048
  422loPI   C2A 6744  16.284   5.238   9.982 -0.0964 -0.0327  0.1490
  422loPI   C3A 6745  16.252   5.276   9.528 -0.0140  0.2539 -0.4404
  422loPI   C4A 6746  16.372   5.401   9.150 -0.0338 -0.0826 -0.2267
  422loPI   C5A 6747  16.396   5.184   8.755  0.0871  0.0343 -0.3043
  422loPI   C6A 6748  16.172   4.944   8.527 -0.0352 -0.0411  0.1293
  422loPI   C1B 6749  15.829   4.880  10.286  0.0327  0.2501  0.0308
  422loPI   C2B 6750  15.849   4.943   9.878 -0.1394  0.1159  0.0814
  422loPI   C3B 6751  16.076   4.785   9.606  0.0679 -0.1009  0.1208
  422loPI   C4B 6752  16.194   4.931   9.138  0.0006  0.2481  0.2290
  423loPI    C1 6753  12.676  10.733  11.797 -0.1312  0.1351 -0.2798
  423loPI    C2 6754  12.974  11.000  11.799 -0.0159  0.0065 -0.1121
  423loPI    C3 6755  12.658  11.052  12.038  0.0187 -0.0198 -0.0603
  423loPI   PO4 6756  12.634  10.673  11.547 -0.2497  0.3207  0.0229
  423loPI   GL1 6757  12.737  10.581  11.201  0.0524 -0.0517 -0.1000
  423loPI   GL2 6758  12.717  10.174  11.075  0.1874 -0.1807  0.0065
  423loPI   C1A 6759  12.913  10.640  10.730 -0.1063 -0.1962  0.2815
  423loPI   C2A 6760  12.964  10.583  10.276 -0.2083 -0.0512 -0.1544
  423loPI   C3A 6761  13.074  10.571   9.909 -0.1439 -0.1804 -0.1658
  423loPI   C4A 6762  12.992  10.728   9.514  0.1626  0.0644  0.1076
  423loPI   C5A 6763  12.740  10.817   9.086  0.1022 -0.2549 -0.1008
  423loPI   C6A 6764  12.361  10.962   8.744  0.2311 -0.0425 -0.1953
  423loPI   C1B 6765  12.619  10.219  10.680 -0.2696  0.3893  0.0419
  423loPI   C2B 6766  12.662  10.169  10.259 -0.2168 -0.1777 -0.0120
  423loPI   C3B 6767  12.726  10.190   9.794 -0.0557 -0.1631  0.0300
  423loPI   C4B 6768  12.698  10.319   9.391 -0.0671 -0.2430  0.2890
  424loPI    C1 6769   8.206  10.459  11.587 -0.4004 -0.2208  0.1344
  424loPI    C2 6770   8.015  10.808  11.634  0.1503  0.0973  0.0974
  424loPI    C3 6771   8.269  10.678  11.915 -0.0194 -0.2591  0.0920
  424loPI   PO4 6772   8.274  10.485  11.298 -0.0218  0.3476  0.3217
  424loPI   GL1 6773   8.105  10.301  10.921 -0.1071  0.2012  0.1790
  424loPI   GL2 6774   8.033   9.958  10.826  0.2262 -0.0592 -0.3013
  424loPI   C1A 6775   8.179  10.263  10.498  0.1263 -0.2082  0.1641
  424loPI   C2A 6776   8.153  10.316  10.046 -0.4148  0.2910 -0.1988
  424loPI   C3A 6777   8.203  10.263   9.654  0.2276  0.2136 -0.0806
  424loPI   C4A 6778   8.253  10.018   9.241 -0.1544  0.1072 -0.0574
  424loPI   C5A 6779   8.257  10.132   8.839 -0.1033  0.2475 -0.1517
  424loPI   C6A 6780   8.168  10.523   8.603  0.2905 -0.1964  0.2471
  424loPI   C1B 6781   7.981   9.800  10.413 -0.0793 -0.1369  0.0832
  424loPI   C2B 6782   7.955   9.892   9.953 -0.0925 -0.0875  0.0708
  424loPI   C3B 6783   7.847   9.857   9.519  0.0735 -0.0006  0.0547
  424loPI   C4B 6784   7.716   9.880   9.114 -0.0292 -0.1889  0.1316
  425loPI    C1 6785  11.469  12.371  11.561  0.0930  0.0654  0.1261
  425loPI    C2 6786  11.226  12.343  11.878  0.1146 -0.0856  0.1300
  425loPI    C3 6787  11.508  12.627  11.866 -0.1224  0.1508  0.0836
  425loPI   PO4 6788  11.454  12.121  11.495 -0.4738 -0.0673 -0.1904
  425loPI   GL1 6789  11.540  11.857  11.112  0.0300 -0.2264 -0.0034
  425loPI   GL2 6790  11.323  11.653  11.226  0.1305 -0.4580  0.1078
  425loPI   C1A 6791  11.609  11.786  10.707  0.3260  0.2320  0.3323
  425loPI   C2A 6792  11.577  11.653  10.274  0.0464  0.1976  0.0670
  425loPI   C3A 6793  11.509  11.723   9.831  0.3317  0.0672  0.1276
  425loPI   C4A 6794  11.549  11.770   9.443 -0.0090  0.3209  0.0424
  425loPI   C5A 6795  11.444  11.423   9.104  0.0765 -0.2642 -0.1806
  425loPI   C6A 6796  11.324  10.996   9.012 -0.0874  0.0542  0.1730
  425loPI   C1B 6797  11.098  11.786  10.844  0.0952 -0.2771  0.0569
  425loPI   C2B 6798  11.174  11.788  10.442  0.1278  0.3035 -0.1323
  425loPI   C3B 6799  11.037  11.742  10.068  0.0640 -0.4117 -0.3135
  425loPI   C4B 6800  10.991  11.785   9.621 -0.1497  0.0292  0.3989
  426loPI    C1 6801   9.898   8.958  11.811 -0.1453 -0.2055 -0.0136
  426loPI    C2 6802   9.797   8.625  12.009 -0.0945 -0.2783 -0.1097
  426loPI    C3 6803   9.647   8.978  12.122 -0.0619 -0.3190  0.0619
  426loPI   PO4 6804   9.845   8.909  11.553  0.2237  0.2959  0.0089
  426loPI   GL1 6805  10.182   8.802  11.208  0.2083 -0.2873 -0.0603
  426loPI   GL2 6806   9.947   8.864  10.997  0.1614  0.3434 -0.0550
  426loPI   C1A 6807  10.384   8.550  10.882 -0.0838 -0.2453  0.0074
  426loPI   C2A 6808  10.409   8.514  10.476 -0.0361 -0.2352 -0.0561
  426loPI   C3A 6809  10.458   8.573  10.025  0.2467  0.1489 -0.0588
  426loPI   C4A 6810  10.378   8.578   9.630  0.2675  0.0238 -0.0966
  426loPI   C5A 6811  10.330   8.801   9.229 -0.1146 -0.1846 -0.0059
  426loPI   C6A 6812  10.288   9.056   8.849 -0.0868  0.1187 -0.1950
  426loPI   C1B 6813  10.003   8.699  10.594  0.3877 -0.1887 -0.1085
  426loPI   C2B 6814   9.999   8.629  10.128  0.2316 -0.1086  0.0121
  426loPI   C3B 6815   9.888   8.639   9.601  0.0338 -0.1581  0.1931
  426loPI   C4B 6816   9.850   8.791   9.093 -0.4806 -0.2250  0.0144
  427loPI    C1 6817  10.408  11.277  11.561 -0.0235 -0.0830  0.1940
  427loPI    C2 6818  10.204  11.114  11.864  0.1207 -0.2721  0.1912
  427loPI    C3 6819  10.532  11.331  11.937  0.0862 -0.2152  0.1777
  427loPI   PO4 6820  10.464  11.028  11.444  0.2468 -0.0674  0.1014
  427loPI   GL1 6821  10.341  10.833  11.078 -0.1136 -0.1531 -0.2876
  427loPI   GL2 6822  10.343  10.543  11.124  0.2266  0.3214 -0.0108
  427loPI   C1A 6823  10.438  10.840  10.579 -0.0121 -0.0032 -0.0128
  427loPI   C2A 6824  10.507  10.844  10.230  0.1644 -0.2444 -0.2532
  427loPI   C3A 6825  10.428  10.984   9.905  0.1885 -0.0468 -0.0447
  427loPI   C4A 6826  10.552  10.897   9.423 -0.0123  0.2001 -0.2518
  427loPI   C5A 6827  10.409  11.213   9.192  0.0411 -0.1004 -0.0938
  427loPI   C6A 6828  10.487  11.330   8.772  0.0431  0.0476  0.4864
  427loPI   C1B 6829  10.615  10.447  10.821  0.0012  0.0524 -0.3188
  427loPI   C2B 6830  10.702  10.397  10.381  0.0084 -0.2301 -0.0836
  427loPI   C3B 6831  10.674  10.396   9.915 -0.2009 -0.2750  0.0672
  427loPI   C4B 6832  10.585  10.400   9.517 -0.1173 -0.0442  0.1354
  428loPI    C1 6833  13.116   4.444  11.311  0.0437  0.0528 -0.0758
  428loPI    C2 6834  13.479   4.341  11.442 -0.0407  0.0348  0.1476
  428loPI    C3 6835  13.304   4.673  11.579 -0.0746  0.0879 -0.0220
  428loPI   PO4 6836  13.101   4.355  11.029  0.4687  0.0987  0.3266
  428loPI   GL1 6837  13.129   4.404  10.554 -0.0100 -0.0612  0.0084
  428loPI   GL2 6838  13.088   4.693  10.712 -0.1764  0.3652 -0.0469
  428loPI   C1A 6839  13.098   4.452  10.123 -0.0237  0.0183  0.0958
  428loPI   C2A 6840  12.994   4.481   9.646 -0.2222 -0.2888  0.3734
  428loPI   C3A 6841  12.843   4.360   9.134 -0.1724  0.1298  0.0081
  428loPI   C4A 6842  12.795   4.528   8.778 -0.1626 -0.0648 -0.0598
  428loPI   C5A 6843  13.123   4.389   8.412 -0.0426  0.0324  0.1350
  428loPI   C6A 6844  13.533   4.455   8.259  0.1918  0.1070  0.1801
  428loPI   C1B 6845  12.964   4.850  10.378 -0.2841 -0.0296 -0.2791
  428loPI   C2B 6846  12.906   4.892  10.013 -0.1316  0.1681 -0.1511
  428loPI   C3B 6847  12.780   4.903   9.565 -0.1723  0.3540  0.1410
  428loPI   C4B 6848  12.639   4.831   9.143 -0.1746  0.1082 -0.0025
  429loPI    C1 6849   8.162   3.651  11.708 -0.1336 -0.0652  0.2217
  429loPI    C2 6850   8.100   3.300  11.890  0.0018 -0.0565  0.2860
  429loPI    C3 6851   8.401   3.535  12.008  0.1002 -0.0572  0.0410
  429loPI   PO4 6852   8.197   3.541  11.427 -0.0314  0.1059 -0.2047
  429loPI   GL1 6853   8.008   3.483  11.132  0.2490  0.2571 -0.1826
  429loPI   GL2 6854   8.070   3.697  10.952 -0.1331  0.1429  0.2452
  429loPI   C1A 6855   7.917   3.058  10.987 -0.3758  0.0370  0.0295
  429loPI   C2A 6856   7.941   2.960  10.613  0.0319  0.0739 -0.0336
  429loPI   C3A 6857   7.932   2.921  10.154 -0.0529 -0.0096  0.2098
  429loPI   C4A 6858   8.135   2.931   9.755 -0.3328 -0.0767 -0.0268
  429loPI   C5A 6859   8.240   2.892   9.343  0.0682  0.1291  0.2897
  429loPI   C6A 6860   8.178   2.958   8.853 -0.1232 -0.0424  0.0649
  429loPI   C1B 6861   8.092   3.782  10.487  0.0590 -0.2904 -0.1068
  429loPI   C2B 6862   8.237   3.837  10.133  0.1019  0.2450  0.0628
  429loPI   C3B 6863   8.092   3.820   9.780 -0.2352 -0.1319 -0.0048
  429loPI   C4B 6864   8.267   3.766   9.319  0.1382  0.1576 -0.2611
  430loPI    C1 6865  11.540  10.061  11.849  0.0489  0.1147  0.1858
  430loPI    C2 6866  11.597   9.994  12.239  0.1605 -0.1282  0.1298
  430loPI    C3 6867  11.728   9.729  11.970 -0.1189 -0.0744 -0.0634
  430loPI   PO4 6868  11.601  10.266  11.771  0.0461  0.2441  0.3279
  430loPI   GL1 6869  11.633  10.398  11.304 -0.0494 -0.0919  0.1291
  430loPI   GL2 6870  11.588  10.110  11.127 -0.1672  0.1474  0.2863
  430loPI   C1A 6871  11.854  10.662  10.993  0.3423 -0.2001 -0.0519
  430loPI   C2A 6872  11.961  10.721  10.592 -0.1473 -0.2962 -0.1341
  430loPI   C3A 6873  11.931  10.684  10.158 -0.4349 -0.2217  0.2745
  430loPI   C4A 6874  11.915  10.844   9.782  0.3556 -0.2376 -0.0999
  430loPI   C5A 6875  11.873  10.812   9.256  0.0194  0.0019 -0.0432
  430loPI   C6A 6876  11.948  10.730   8.849 -0.0852  0.0085 -0.1981
  430loPI   C1B 6877  11.705  10.289  10.702 -0.2154  0.0849 -0.0783
  430loPI   C2B 6878  11.656  10.327  10.307  0.1626  0.0137  0.0477
  430loPI   C3B 6879  11.709  10.312   9.849  0.0036  0.0996 -0.0867
  430loPI   C4B 6880  11.609  10.385   9.458 -0.0011  0.0880  0.1605
  431loPI    C1 6881   8.010  12.327  11.773  0.1545  0.2043  0.0475
  431loPI    C2 6882   7.768  12.603  11.931 -0.0912 -0.1197  0.2496
  431loPI    C3 6883   8.108  12.505  12.117  0.1366  0.2410  0.0337
  431loPI   PO4 6884   7.970  12.297  11.527  0.3105 -0.2260 -0.2840
  431loPI   GL1 6885   7.647  12.245  11.258  0.0535 -0.1252 -0.0671
  431loPI   GL2 6886   7.534  12.511  11.025  0.0613 -0.1192  0.0789
  431loPI   C1A 6887   7.858  12.068  10.928  0.3223  0.0632 -0.3064
  431loPI   C2A 6888   7.845  12.177  10.532 -0.3254 -0.1014 -0.1565
  431loPI   C3A 6889   7.991  12.117  10.128 -0.1211  0.3252 -0.0095
  431loPI   C4A 6890   7.866  12.023   9.776 -0.2418  0.0658  0.1635
  431loPI   C5A 6891   7.865  11.976   9.367 -0.0374  0.0500 -0.4344
  431loPI   C6A 6892   8.070  12.274   9.136 -0.4683 -0.0405  0.0461
  431loPI   C1B 6893   7.666  12.603  10.631 -0.2183  0.2807  0.2705
  431loPI   C2B 6894   7.518  12.565  10.198 -0.1767 -0.2142 -0.4074
  431loPI   C3B 6895   7.710  12.488   9.773 -0.2234  0.2535 -0.1985
  431loPI   C4B 6896   7.605  12.527   9.358  0.1445 -0.3253  0.2763
  432loPI    C1 6897   3.229  14.326  11.937  0.0254 -0.0190  0.3678
  432loPI    C2 6898   3.009  14.658  11.971  0.0742  0.0505  0.0366
  432loPI    C3 6899   3.262  14.555  12.264 -0.3891 -0.0288  0.4218
  432loPI   PO4 6900   3.315  14.393  11.675 -0.3775  0.1655 -0.1934
  432loPI   GL1 6901   3.265  14.271  11.219 -0.1849  0.0833 -0.1690
  432loPI   GL2 6902   3.402  14.518  11.193 -0.1978  0.2982  0.1657
  432loPI   C1A 6903   3.346  14.368  10.748 -0.0373 -0.3211  0.1262
  432loPI   C2A 6904   3.489  14.405  10.374 -0.0884 -0.0804 -0.0437
  432loPI   C3A 6905   3.357  14.331   9.885 -0.3252  0.0532 -0.1030
  432loPI   C4A 6906   3.253  14.261   9.511  0.0657  0.1084 -0.0513
  432loPI   C5A 6907   3.232  14.235   8.961 -0.3933  0.2121 -0.1554
  432loPI   C6A 6908   3.548  14.523   8.773 -0.1703  0.0219  0.1018
  432loPI   C1B 6909   3.173  14.801  10.976  0.0927 -0.0276  0.0899
  432loPI   C2B 6910   3.109  14.781  10.493 -0.2570  0.0006  0.1354
  432loPI   C3B 6911   3.182  14.760  10.045 -0.2273  0.4387  0.2740
  432loPI   C4B 6912   3.155  14.832   9.671  0.0608 -0.1016 -0.0554
  433loPI    C1 6913   5.267   1.363  11.454 -0.0110 -0.1458 -0.0106
  433loPI    C2 6914   5.359   0.990  11.343 -0.0500 -0.1145 -0.1501
  433loPI    C3 6915   5.573   1.172  11.627  0.0524 -0.1948 -0.1752
  433loPI   PO4 6916   5.042   1.378  11.298 -0.1397  0.2841 -0.0256
  433loPI   GL1 6917   4.922   1.144  11.003  0.0983  0.1368  0.0908
  433loPI   GL2 6918   4.746   1.320  10.866 -0.0716  0.0271 -0.3424
  433loPI   C1A 6919   4.975   0.909  10.638  0.0235  0.1820 -0.1247
  433loPI   C2A 6920   4.884   0.821  10.175  0.1606  0.3025 -0.1812
  433loPI   C3A 6921   5.050   0.941   9.810  0.0327  0.0783 -0.0487
  433loPI   C4A 6922   4.986   0.965   9.423 -0.2791 -0.1460  0.1614
  433loPI   C5A 6923   5.120   0.778   9.018 -0.0584 -0.1878 -0.1128
  433loPI   C6A 6924   5.047   0.715   8.561  0.1008  0.1162 -0.3729
  433loPI   C1B 6925   4.735   1.311  10.430  0.4049  0.3010  0.1391
  433loPI   C2B 6926   4.827   1.355   9.897 -0.0572 -0.1272 -0.3639
  433loPI   C3B 6927   4.774   1.428   9.538  0.1471 -0.0209 -0.1233
  433loPI   C4B 6928   4.763   1.341   9.157 -0.1743 -0.5162  0.0448
  434loPI    C1 6929   9.240  14.794  11.319  0.0771 -0.0241 -0.2402
  434loPI    C2 6930   9.539  14.899  11.563 -0.1463 -0.1047  0.0740
  434loPI    C3 6931   9.195  15.104  11.568  0.0155  0.2030 -0.5291
  434loPI   PO4 6932   9.319  14.676  11.138 -0.2541 -0.2978 -0.0477
  434loPI   GL1 6933   9.407  14.737  10.783  0.0695 -0.0797  0.1073
  434loPI   GL2 6934   9.553  14.981  10.747  0.0019 -0.2917 -0.1032
  434loPI   C1A 6935   9.410  14.700  10.357  0.2097  0.0455  0.1365
  434loPI   C2A 6936   9.554  14.625   9.966 -0.1168  0.0951  0.1652
  434loPI   C3A 6937   9.669  14.643   9.551 -0.3289 -0.0097 -0.0033
  434loPI   C4A 6938   9.829  14.747   9.117  0.1162 -0.5705 -0.0672
  434loPI   C5A 6939   9.667  14.936   8.793  0.2546 -0.3954 -0.2680
  434loPI   C6A 6940   9.360  15.146   8.483 -0.0980 -0.0293 -0.3051
  434loPI   C1B 6941   9.510  15.242  10.411  0.0966 -0.1559  0.2873
  434loPI   C2B 6942   9.522  15.154  10.021 -0.1438 -0.0599  0.0352
  434loPI   C3B 6943   9.395  15.106   9.625  0.1586  0.4823  0.2306
  434loPI   C4B 6944   9.275  15.110   9.219  0.1864 -0.2270 -0.2433
  435loPI    C1 6945   9.055   8.794  11.472  0.1502  0.0513  0.0479
  435loPI    C2 6946   9.063   8.737  11.868 -0.0271  0.1233  0.0629
  435loPI    C3 6947   8.851   9.039  11.713  0.0612  0.1104 -0.0859
  435loPI   PO4 6948   8.946   8.660  11.342 -0.1108 -0.5476  0.3379
  435loPI   GL1 6949   8.781   8.554  10.854 -0.0267  0.0160  0.3643
  435loPI   GL2 6950   9.005   8.820  10.866  0.3197 -0.0745 -0.0089
  435loPI   C1A 6951   8.619   8.412  10.609 -0.3132 -0.1354 -0.2564
  435loPI   C2A 6952   8.576   8.327  10.209 -0.2737 -0.0988  0.1465
  435loPI   C3A 6953   8.603   8.406   9.768  0.2841  0.3303 -0.0068
  435loPI   C4A 6954   8.559   8.302   9.413  0.1364  0.0540  0.0939
  435loPI   C5A 6955   8.290   8.352   9.144  0.1278  0.0663  0.3276
  435loPI   C6A 6956   8.004   8.570   8.827 -0.0024 -0.2783  0.0601
  435loPI   C1B 6957   9.003   8.894  10.510  0.0863  0.0237 -0.0174
  435loPI   C2B 6958   8.933   8.781  10.144  0.2100 -0.3030 -0.0598
  435loPI   C3B 6959   9.049   8.718   9.742 -0.1748  0.2603 -0.0680
  435loPI   C4B 6960   9.403   8.758   9.416  0.3506 -0.1531  0.2884
  436loPI    C1 6961  16.767  11.322  12.359  0.2983 -0.0578 -0.0749
  436loPI    C2 6962  17.082  11.397  12.594  0.1048  0.0090  0.1665
  436loPI    C3 6963  16.716  11.515  12.705 -0.0299 -0.2086 -0.0353
  436loPI   PO4 6964  16.805  11.379  12.134  0.2404 -0.0769  0.3339
  436loPI   GL1 6965  16.857  11.314  11.613  0.1355  0.1063  0.2128
  436loPI   GL2 6966  16.990  11.083  11.422 -0.1783 -0.0513 -0.1236
  436loPI   C1A 6967  16.676  11.377  11.131 -0.0226 -0.2403 -0.1655
  436loPI   C2A 6968  16.533  11.578  10.811  0.1981  0.1809 -0.1226
  436loPI   C3A 6969  16.545  11.553  10.311 -0.3078 -0.0091  0.2679
  436loPI   C4A 6970  16.453  11.579   9.877 -0.2679 -0.0480 -0.1377
  436loPI   C5A 6971  16.542  11.591   9.454  0.3514  0.1132  0.5132
  436loPI   C6A 6972  16.742  11.443   9.051 -0.1505 -0.0543 -0.1619
  436loPI   C1B 6973  17.236  11.025  10.983 -0.1598  0.1196 -0.3050
  436loPI   C2B 6974  17.291  10.992  10.582  0.1274  0.2905 -0.3623
  436loPI   C3B 6975  17.173  11.050  10.142 -0.2471 -0.0765  0.2577
  436loPI   C4B 6976  17.270  11.061   9.732  0.0222  0.0711  0.1350
  437loPI    C1 6977  12.768   0.290  11.589 -0.0629  0.0016  0.2463
  437loPI    C2 6978  12.720   0.246  11.984  0.0842 -0.2924  0.2340
  437loPI    C3 6979  13.083   0.204  11.821  0.1080  0.2761  0.1215
  437loPI   PO4 6980  12.755   0.483  11.511 -0.3197  0.2195  0.0056
  437loPI   GL1 6981  12.785   0.677  11.144 -0.0490 -0.0750 -0.0043
  437loPI   GL2 6982  13.080   0.637  10.998  0.2054 -0.2778 -0.0372
  437loPI   C1A 6983  12.728   0.660  10.684 -0.1412 -0.3751 -0.0703
  437loPI   C2A 6984  12.662   0.600  10.305 -0.0509 -0.1749 -0.0514
  437loPI   C3A 6985  12.802   0.635   9.828  0.3530 -0.1557  0.0030
  437loPI   C4A 6986  12.819   0.623   9.362 -0.2443  0.1787  0.0446
  437loPI   C5A 6987  12.500   0.458   8.989  0.0668  0.0112  0.2045
  437loPI   C6A 6988  12.041   0.488   9.014 -0.0457 -0.0322 -0.0644
  437loPI   C1B 6989  13.201   0.602  10.586 -0.2738 -0.0782 -0.1547
  437loPI   C2B 6990  13.179   0.600  10.163  0.0560 -0.0812  0.0844
  437loPI   C3B 6991  13.247   0.572   9.678  0.2739 -0.2643 -0.2195
  437loPI   C4B 6992  13.237   0.369   9.205  0.0136 -0.1108  0.1828
  438loPI    C1 6993   0.628  13.599  12.091  0.1663 -0.1355  0.1124
  438loPI    C2 6994   0.894  13.884  12.000 -0.1363  0.0932 -0.0765
  438loPI    C3 6995   0.639  13.937  12.305 -0.2498  0.0633 -0.1655
  438loPI   PO4 6996   0.457  13.673  11.864 -0.2076  0.0178  0.1980
  438loPI   GL1 6997   0.385  13.528  11.459  0.0706 -0.2370  0.3754
  438loPI   GL2 6998   0.543  13.227  11.264  0.3437 -0.3319 -0.0185
  438loPI   C1A 6999   0.236  13.599  11.041  0.1973 -0.1107 -0.0186
  438loPI   C2A 7000   0.237  13.591  10.617  0.0630  0.0942  0.0925
  438loPI   C3A 7001   0.208  13.651  10.100  0.0638 -0.1375 -0.1052
  438loPI   C4A 7002   0.171  13.736   9.671 -0.0343  0.1106  0.3203
  438loPI   C5A 7003  -0.196  13.802   9.339 -0.0535  0.1786  0.0103
  438loPI   C6A 7004  -0.074  13.590   8.988  0.2590  0.2346  0.0463
  438loPI   C1B 7005   0.426  13.133  10.866  0.1853  0.0908 -0.3705
  438loPI   C2B 7006   0.414  13.206  10.398  0.0416 -0.3073 -0.2431
  438loPI   C3B 7007   0.355  13.158  10.014 -0.2962 -0.2688  0.0309
  438loPI   C4B 7008   0.458  13.260   9.636 -0.0955 -0.1500 -0.2755
  439loPI    C1 7009  16.318  15.457  11.802  0.0043 -0.0351 -0.0858
  439loPI    C2 7010  16.289  15.100  11.980 -0.0733 -0.0177 -0.0635
  439loPI    C3 7011  16.253  15.435  12.196  0.2152  0.0054 -0.0474
  439loPI   PO4 7012  16.330  15.398  11.528 -0.1261 -0.2563 -0.0161
  439loPI   GL1 7013  16.396  15.660  11.133 -0.0872 -0.0161 -0.2342
  439loPI   GL2 7014  16.185  15.793  11.092 -0.0810  0.1136 -0.0026
  439loPI   C1A 7015  16.737  15.601  10.809 -0.2917 -0.0496  0.0498
  439loPI   C2A 7016  16.604  15.578  10.458 -0.2259  0.0171 -0.2301
  439loPI   C3A 7017  16.593  15.534  10.025 -0.0740 -0.0523 -0.1849
  439loPI   C4A 7018  16.619  15.574   9.664 -0.0557 -0.2726  0.1263
  439loPI   C5A 7019  16.718  15.590   9.177  0.2117  0.2091  0.1881
  439loPI   C6A 7020  16.968  15.438   8.807  0.0141  0.3193 -0.1202
  439loPI   C1B 7021  16.107  15.660  10.685 -0.2384  0.0423 -0.1907
  439loPI   C2B 7022  16.023  15.660  10.251 -0.0489  0.2681  0.1232
  439loPI   C3B 7023  16.130  15.715   9.790  0.4212 -0.0233 -0.1237
  439loPI   C4B 7024  16.185  15.665   9.378 -0.0944 -0.1346 -0.2419
  440loPI    C1 7025   2.178   1.413  11.480 -0.1560 -0.1070  0.0372
  440loPI    C2 7026   1.867   1.514  11.711 -0.0073  0.1662  0.1224
  440loPI    C3 7027   2.140   1.253  11.845  0.0468  0.2789  0.2340
  440loPI   PO4 7028   2.006   1.346  11.241 -0.0349 -0.0100  0.0513
  440loPI   GL1 7029   2.037   0.974  10.925 -0.0573  0.3510 -0.0310
  440loPI   GL2 7030   2.368   0.966  11.052 -0.1087 -0.2275  0.1311
  440loPI   C1A 7031   2.031   0.939  10.512 -0.1713 -0.1400  0.2876
  440loPI   C2A 7032   2.126   0.758  10.101  0.0243 -0.1494 -0.2317
  440loPI   C3A 7033   2.192   0.678   9.646 -0.3556 -0.0689  0.2356
  440loPI   C4A 7034   2.135   0.572   9.260 -0.1672 -0.0336 -0.0727
  440loPI   C5A 7035   2.248   0.439   8.965 -0.0548  0.0364 -0.0617
  440loPI   C6A 7036   2.612   0.605   8.788 -0.1713 -0.0353  0.0599
  440loPI   C1B 7037   2.617   0.818  10.659 -0.1697  0.1597 -0.0916
  440loPI   C2B 7038   2.699   0.663  10.247  0.3140 -0.0466  0.1073
  440loPI   C3B 7039   2.682   0.642   9.779 -0.0505  0.3760  0.4564
  440loPI   C4B 7040   2.680   0.591   9.331  0.4088 -0.2328 -0.0881
  441loPI    C1 7041  14.035   5.841  11.306  0.0359  0.0095  0.0631
  441loPI    C2 7042  13.728   5.615  11.428 -0.1038  0.2294  0.1257
  441loPI    C3 7043  14.071   5.614  11.634 -0.1231  0.1191  0.1581
  441loPI   PO4 7044  14.059   5.751  10.932 -0.0635 -0.1316 -0.0179
  441loPI   GL1 7045  13.931   5.964  10.621  0.2802  0.2021 -0.0835
  441loPI   GL2 7046  13.759   6.204  10.642 -0.0532  0.0108 -0.0284
  441loPI   C1A 7047  14.010   6.089  10.211  0.0336 -0.3160 -0.6226
  441loPI   C2A 7048  13.974   6.027   9.722  0.1057  0.0734 -0.1127
  441loPI   C3A 7049  13.850   5.852   9.276  0.0872  0.3264 -0.2600
  441loPI   C4A 7050  13.539   5.974   8.899  0.0065  0.3820 -0.2005
  441loPI   C5A 7051  13.095   6.071   8.784  0.0383  0.0013  0.3198
  441loPI   C6A 7052  12.672   6.026   8.816 -0.0208  0.0290 -0.0775
  441loPI   C1B 7053  13.644   6.381  10.405  0.0573  0.2173  0.1337
  441loPI   C2B 7054  13.570   6.499  10.032 -0.2206  0.2748  0.0730
  441loPI   C3B 7055  13.683   6.405   9.600 -0.1542 -0.0263 -0.0332
  441loPI   C4B 7056  13.819   6.388   9.222  0.0566  0.0528  0.0629
  442loPI    C1 7057  12.905  11.486  11.761 -0.2747  0.0992  0.1458
  442loPI    C2 7058  13.088  11.787  11.950 -0.1167  0.0336  0.0989
  442loPI    C3 7059  13.284  11.445  11.884 -0.1625  0.0625 -0.2005
  442loPI   PO4 7060  12.822  11.664  11.537  0.1039  0.2012 -0.0700
  442loPI   GL1 7061  12.923  11.633  11.040  0.3212 -0.1301 -0.0479
  442loPI   GL2 7062  13.151  11.572  10.903  0.2250 -0.0628  0.0636
  442loPI   C1A 7063  12.998  11.975  10.654  0.1395  0.0748 -0.0339
  442loPI   C2A 7064  12.941  11.964  10.250 -0.1379 -0.1276  0.4340
  442loPI   C3A 7065  12.885  12.054   9.866  0.1109 -0.1172 -0.3773
  442loPI   C4A 7066  13.026  12.122   9.511  0.1671 -0.2160  0.3817
  442loPI   C5A 7067  13.293  12.079   9.137 -0.0536  0.3073  0.1079
  442loPI   C6A 7068  13.203  11.854   8.799  0.0134  0.0202  0.0147
  442loPI   C1B 7069  13.103  11.532  10.467  0.1005  0.0278 -0.1551
  442loPI   C2B 7070  13.023  11.454  10.094 -0.0280  0.0620  0.2116
  442loPI   C3B 7071  13.141  11.628   9.745 -0.2617  0.2265  0.1392
  442loPI   C4B 7072  13.131  11.582   9.269 -0.0443 -0.1157 -0.1442
  443loPI    C1 7073   2.841   6.960  11.642 -0.2981 -0.0601  0.0488
  443loPI    C2 7074   3.158   7.064  11.862 -0.0800 -0.1403 -0.2222
  443loPI    C3 7075   2.880   7.337  11.771  0.1263  0.0354 -0.3346
  443loPI   PO4 7076   2.956   6.856  11.407 -0.0052  0.1368 -0.4297
  443loPI   GL1 7077   3.053   6.882  10.959  0.2922 -0.1563  0.3375
  443loPI   GL2 7078   3.170   7.192  10.840  0.0280 -0.0262  0.0661
  443loPI   C1A 7079   2.845   6.741  10.637  0.0959  0.1024 -0.1588
  443loPI   C2A 7080   2.802   6.724  10.161 -0.2703 -0.0809 -0.0726
  443loPI   C3A 7081   2.771   6.703   9.779  0.0099  0.0222  0.1710
  443loPI   C4A 7082   2.695   6.845   9.392 -0.0129  0.0349  0.0966
  443loPI   C5A 7083   2.678   7.082   9.046  0.0020  0.2089 -0.3760
  443loPI   C6A 7084   2.367   7.338   8.843  0.1009  0.0451  0.0968
  443loPI   C1B 7085   3.090   7.128  10.297 -0.1766  0.2310  0.0259
  443loPI   C2B 7086   3.055   7.102   9.880  0.1194 -0.0992 -0.2289
  443loPI   C3B 7087   3.121   7.092   9.415 -0.1705 -0.1285 -0.3349
  443loPI   C4B 7088   3.192   6.916   9.014 -0.0678 -0.0068  0.3970
  444loPI    C1 7089   8.230  12.891  11.853  0.1241 -0.1356  0.1714
  444loPI    C2 7090   8.600  13.043  11.841  0.0439  0.0526  0.0305
  444loPI    C3 7091   8.308  13.243  12.027 -0.0970  0.1520 -0.2900
  444loPI   PO4 7092   8.237  12.796  11.553 -0.2676  0.1198 -0.1403
  444loPI   GL1 7093   8.098  12.933  11.161 -0.1557  0.1920 -0.2257
  444loPI   GL2 7094   7.881  12.964  10.998 -0.1405  0.1864 -0.2513
  444loPI   C1A 7095   8.349  13.154  10.715  0.1218  0.0512  0.2841
  444loPI   C2A 7096   8.266  13.330  10.346  0.0579 -0.1902 -0.4012
  444loPI   C3A 7097   8.259  13.357   9.965 -0.0172 -0.0804 -0.2245
  444loPI   C4A 7098   8.227  13.437   9.488  0.1056 -0.0911  0.0317
  444loPI   C5A 7099   8.328  13.549   9.082  0.3014  0.0619 -0.5563
  444loPI   C6A 7100   8.153  13.256   8.634  0.1362 -0.0965 -0.2548
  444loPI   C1B 7101   7.890  13.040  10.465  0.4671  0.2251 -0.1563
  444loPI   C2B 7102   7.899  13.005  10.085 -0.0629 -0.0247  0.1590
  444loPI   C3B 7103   7.965  12.901   9.571  0.0182  0.0499 -0.0155
  444loPI   C4B 7104   8.041  12.887   9.102 -0.0067  0.3814  0.0286
  445loPI    C1 7105   0.863   1.685  11.583 -0.0588 -0.2300  0.0049
  445loPI    C2 7106   0.519   1.673  11.787 -0.0105  0.0159  0.1039
  445loPI    C3 7107   0.865   1.601  11.974  0.0260  0.1530  0.0902
  445loPI   PO4 7108   0.827   1.573  11.378  0.3456  0.4085  0.0575
  445loPI   GL1 7109   0.957   1.699  10.998  0.0355 -0.0211  0.3103
  445loPI   GL2 7110   1.230   1.795  10.958 -0.1718 -0.0681 -0.2432
  445loPI   C1A 7111   0.902   1.670  10.579  0.1314 -0.1908 -0.2348
  445loPI   C2A 7112   1.034   1.857  10.158  0.1372  0.1339 -0.1118
  445loPI   C3A 7113   1.118   1.781   9.730  0.1592  0.1575  0.1717
  445loPI   C4A 7114   1.095   1.646   9.268 -0.5551 -0.0569 -0.1681
  445loPI   C5A 7115   0.665   1.667   9.009  0.2719 -0.1253  0.0229
  445loPI   C6A 7116   0.485   1.332   8.636  0.0344 -0.1741  0.0018
  445loPI   C1B 7117   1.386   1.748  10.576 -0.0614  0.1704 -0.4056
  445loPI   C2B 7118   1.493   1.781  10.174 -0.2490 -0.1222 -0.2879
  445loPI   C3B 7119   1.639   1.664   9.773  0.2237 -0.2055 -0.1745
  445loPI   C4B 7120   1.718   1.639   9.371  0.2342  0.0966  0.0646
  446loPI    C1 7121  10.766  12.567  11.482  0.0593  0.0584  0.0636
  446loPI    C2 7122  10.530  12.570  11.159  0.1690  0.1486 -0.0160
  446loPI    C3 7123  10.479  12.290  11.440  0.0233  0.1159 -0.0738
  446loPI   PO4 7124  10.979  12.510  11.410 -0.0047 -0.0425  0.0615
  446loPI   GL1 7125  11.082  12.237  11.133  0.2012 -0.2423 -0.0425
  446loPI   GL2 7126  11.324  12.293  10.904  0.1570 -0.1268  0.1514
  446loPI   C1A 7127  10.870  12.249  10.694 -0.1655 -0.3304  0.2992
  446loPI   C2A 7128  10.769  12.208  10.210  0.0647 -0.0019 -0.0861
  446loPI   C3A 7129  10.768  12.189   9.831 -0.0072 -0.1626 -0.2450
  446loPI   C4A 7130  10.756  12.184   9.441 -0.1528  0.1112  0.0937
  446loPI   C5A 7131  10.852  12.154   9.005 -0.0819 -0.0510 -0.0104
  446loPI   C6A 7132  11.170  11.929   8.776 -0.1001  0.1855  0.1179
  446loPI   C1B 7133  11.312  12.242  10.428  0.0354  0.0562 -0.1951
  446loPI   C2B 7134  11.299  12.125  10.011 -0.1117 -0.1723  0.0864
  446loPI   C3B 7135  11.298  12.226   9.612 -0.1867  0.1459 -0.1188
  446loPI   C4B 7136  11.317  12.203   9.175 -0.0279 -0.0339  0.1168
  447loPI    C1 7137   2.478   9.955  11.822  0.1317  0.0052  0.1391
  447loPI    C2 7138   2.520  10.047  12.209 -0.0281 -0.1741  0.2010
  447loPI    C3 7139   2.179   9.885  12.078 -0.0119 -0.0242 -0.0343
  447loPI   PO4 7140   2.644  10.166  11.596  0.1971 -0.1361 -0.0414
  447loPI   GL1 7141   2.778  10.240  11.248 -0.1203 -0.1074  0.2433
  447loPI   GL2 7142   3.130  10.294  11.118 -0.0844  0.3916  0.2787
  447loPI   C1A 7143   2.629  10.200  10.758  0.0053 -0.1647 -0.1091
  447loPI   C2A 7144   2.630  10.231  10.383 -0.2437 -0.1656 -0.2096
  447loPI   C3A 7145   2.599  10.292   9.876 -0.0863  0.1333 -0.1092
  447loPI   C4A 7146   2.774  10.311   9.494  0.0012 -0.3359 -0.2774
  447loPI   C5A 7147   2.920  10.271   9.037  0.1136  0.0061 -0.0051
  447loPI   C6A 7148   3.091  10.347   8.650  0.0900  0.3849  0.3434
  447loPI   C1B 7149   3.309  10.254  10.869 -0.1488 -0.1017  0.0652
  447loPI   C2B 7150   3.166  10.239  10.422  0.0766 -0.1565 -0.0706
  447loPI   C3B 7151   3.095  10.186  10.012  0.0623 -0.1912 -0.0514
  447loPI   C4B 7152   3.290  10.223   9.633  0.1770 -0.1648  0.0187
  448loPI    C1 7153  13.044   3.000  11.089 -0.0176 -0.1915 -0.1928
  448loPI    C2 7154  12.648   3.052  11.117 -0.0070 -0.0403 -0.3117
  448loPI    C3 7155  12.846   2.859  11.407 -0.1090  0.2321 -0.0549
  448loPI   PO4 7156  13.073   2.900  10.900 -0.1754  0.0551 -0.1550
  448loPI   GL1 7157  13.073   2.693  10.489  0.1299 -0.0555 -0.0051
  448loPI   GL2 7158  13.028   2.384  10.660 -0.1700  0.0770  0.1492
  448loPI   C1A 7159  12.849   2.861  10.073 -0.2727  0.1724  0.1215
  448loPI   C2A 7160  12.754   2.996   9.629 -0.0233 -0.2087 -0.1713
  448loPI   C3A 7161  12.585   3.092   9.188 -0.4836 -0.1818  0.1100
  448loPI   C4A 7162  12.257   2.910   8.915  0.1019  0.1624  0.1207
  448loPI   C5A 7163  11.896   2.793   8.906  0.0200  0.0335  0.1360
  448loPI   C6A 7164  11.592   3.001   8.764 -0.1962 -0.3029 -0.1506
  448loPI   C1B 7165  12.786   2.220  10.336  0.1355  0.3714  0.1690
  448loPI   C2B 7166  12.745   2.171   9.964  0.0855 -0.1070 -0.2797
  448loPI   C3B 7167  12.811   2.018   9.600 -0.0008 -0.1587 -0.0011
  448loPI   C4B 7168  12.939   2.038   9.271 -0.0006  0.2242 -0.2879
  449loPI    C1 7169   7.671   7.744  11.498  0.1741  0.1222 -0.2284
  449loPI    C2 7170   7.372   7.971  11.636  0.2778  0.0788  0.0753
  449loPI    C3 7171   7.688   8.142  11.460  0.1712  0.1394 -0.0586
  449loPI   PO4 7172   7.472   7.449  11.405 -0.2149  0.0065  0.0434
  449loPI   GL1 7173   7.239   7.493  10.948 -0.2416 -0.1872  0.1815
  449loPI   GL2 7174   7.524   7.338  10.936 -0.3986  0.3878  0.1729
  449loPI   C1A 7175   6.943   7.517  10.573 -0.0321 -0.4509  0.1353
  449loPI   C2A 7176   6.850   7.619  10.145 -0.2990 -0.2611  0.0713
  449loPI   C3A 7177   6.846   7.683   9.700  0.1212  0.3013  0.0430
  449loPI   C4A 7178   6.938   7.513   9.362  0.0533  0.1859 -0.1589
  449loPI   C5A 7179   6.885   7.595   9.037 -0.2940 -0.0910  0.2052
  449loPI   C6A 7180   6.819   7.356   8.572  0.2573  0.0259  0.1116
  449loPI   C1B 7181   7.478   7.542  10.519  0.3511  0.2348 -0.0804
  449loPI   C2B 7182   7.583   7.526  10.030 -0.1065  0.0199 -0.0156
  449loPI   C3B 7183   7.417   7.507   9.581  0.0669 -0.1195  0.1141
  449loPI   C4B 7184   7.401   7.576   9.158  0.0752 -0.3622 -0.1027
  450loPI    C1 7185   6.059   1.100  11.532  0.4063 -0.2248 -0.0912
  450loPI    C2 7186   6.335   1.275  11.764  0.1588  0.0628 -0.0068
  450loPI    C3 7187   6.036   1.067  11.930  0.0098  0.2260 -0.0672
  450loPI   PO4 7188   6.199   1.015  11.280 -0.3234  0.0179  0.0764
  450loPI   GL1 7189   6.184   1.219  10.951  0.1138 -0.0342  0.2420
  450loPI   GL2 7190   6.391   1.211  10.818 -0.2947  0.0785  0.2626
  450loPI   C1A 7191   5.845   1.236  10.589 -0.0843 -0.3590 -0.3124
  450loPI   C2A 7192   5.796   1.250  10.152  0.1580  0.1039  0.3240
  450loPI   C3A 7193   5.889   1.293   9.756  0.5349 -0.1037  0.1570
  450loPI   C4A 7194   5.899   1.239   9.400 -0.1017 -0.2073 -0.0141
  450loPI   C5A 7195   5.761   1.414   8.967  0.4920 -0.2652  0.0555
  450loPI   C6A 7196   5.950   1.569   8.648 -0.1256  0.1106  0.0024
  450loPI   C1B 7197   6.326   1.223  10.404 -0.2870 -0.2607  0.0096
  450loPI   C2B 7198   6.476   1.230   9.979  0.1110  0.1013  0.0394
  450loPI   C3B 7199   6.408   1.230   9.486  0.1692  0.2776  0.1377
  450loPI   C4B 7200   6.307   1.270   9.136 -0.1231 -0.2755  0.0810
  451loPI    C1 7201  15.210   2.326  11.413 -0.1464  0.1266 -0.0831
  451loPI    C2 7202  15.237   2.299  11.811  0.0983 -0.0812 -0.1110
  451loPI    C3 7203  14.966   2.081  11.614 -0.0207  0.0192 -0.0597
  451loPI   PO4 7204  15.304   2.554  11.322  0.3122 -0.0398  0.0475
  451loPI   GL1 7205  15.300   2.726  10.941  0.2306  0.2774  0.0050
  451loPI   GL2 7206  15.470   3.009  10.842  0.1648 -0.0129 -0.1656
  451loPI   C1A 7207  15.325   2.505  10.527 -0.1042  0.4787  0.1841
  451loPI   C2A 7208  15.298   2.582  10.125 -0.2822  0.0767 -0.1694
  451loPI   C3A 7209  15.347   2.546   9.749  0.0821  0.1722 -0.0647
  451loPI   C4A 7210  15.460   2.533   9.406  0.2738  0.2060 -0.0975
  451loPI   C5A 7211  15.631   2.674   8.983  0.1484  0.1552  0.0724
  451loPI   C6A 7212  15.632   2.691   8.519 -0.1840  0.0505  0.0671
  451loPI   C1B 7213  15.671   2.919  10.411 -0.0765  0.1987 -0.0634
  451loPI   C2B 7214  15.630   2.989   9.977  0.2209 -0.3407 -0.0985
  451loPI   C3B 7215  15.601   2.957   9.572  0.2557 -0.1507  0.0191
  451loPI   C4B 7216  15.876   3.119   9.280 -0.0103 -0.0563  0.3292
  452loPI    C1 7217   7.009   6.741  11.570  0.1823 -0.1018  0.0711
  452loPI    C2 7218   7.055   6.506  11.890  0.1505 -0.1669  0.0282
  452loPI    C3 7219   6.920   6.881  11.934 -0.1809 -0.2859  0.0573
  452loPI   PO4 7220   7.241   6.561  11.392  0.1059  0.0714 -0.1378
  452loPI   GL1 7221   7.221   6.311  10.988  0.1581  0.0062 -0.1116
  452loPI   GL2 7222   7.486   6.141  11.148  0.0913 -0.0663  0.1880
  452loPI   C1A 7223   7.039   6.183  10.564 -0.0067  0.0260  0.0485
  452loPI   C2A 7224   7.099   6.204  10.088 -0.2082 -0.0262 -0.1170
  452loPI   C3A 7225   7.138   6.152   9.671  0.1224 -0.2215 -0.1022
  452loPI   C4A 7226   7.160   6.170   9.308 -0.0872 -0.2079 -0.1008
  452loPI   C5A 7227   7.241   6.124   8.893 -0.4741  0.1148 -0.0208
  452loPI   C6A 7228   7.026   6.125   8.502 -0.1492 -0.2195  0.0015
  452loPI   C1B 7229   7.590   6.134  10.651  0.0684 -0.0981 -0.0826
  452loPI   C2B 7230   7.622   6.153  10.202  0.0217 -0.1801 -0.1335
  452loPI   C3B 7231   7.654   6.082   9.716  0.1249 -0.0897 -0.1166
  452loPI   C4B 7232   7.703   6.181   9.233  0.0545 -0.3712 -0.1084
  453loPI    C1 7233   1.559   3.464  11.318  0.0792  0.2445 -0.1237
  453loPI    C2 7234   1.673   3.723  11.601  0.0111  0.1561 -0.0143
  453loPI    C3 7235   1.547   3.358  11.704 -0.0568  0.1387 -0.1562
  453loPI   PO4 7236   1.767   3.417  11.173 -0.1886  0.3641  0.0699
  453loPI   GL1 7237   1.941   3.384  10.841 -0.3163 -0.0353  0.1435
  453loPI   GL2 7238   2.046   3.206  10.864 -0.1136  0.1137 -0.0753
  453loPI   C1A 7239   2.125   3.438  10.378 -0.1387 -0.2588  0.0198
  453loPI   C2A 7240   2.227   3.497   9.880 -0.0286  0.2236  0.1610
  453loPI   C3A 7241   2.364   3.481   9.499  0.0691 -0.2019  0.1302
  453loPI   C4A 7242   2.222   3.431   9.074  0.1801 -0.1905  0.0254
  453loPI   C5A 7243   1.896   3.530   8.866 -0.1381 -0.1157 -0.2508
  453loPI   C6A 7244   1.822   3.852   8.538 -0.2413 -0.3389  0.2095
  453loPI   C1B 7245   2.330   2.997  10.539 -0.3158 -0.0437  0.1556
  453loPI   C2B 7246   2.319   3.024  10.119 -0.0260  0.2711  0.0862
  453loPI   C3B 7247   2.480   2.996   9.594  0.1165 -0.0817 -0.0249
  453loPI   C4B 7248   2.608   2.958   9.209 -0.1161 -0.2398 -0.0671
  454loPI    C1 7249  12.345  13.036  11.602 -0.1327 -0.1144 -0.0095
  454loPI    C2 7250  12.672  13.072  11.831 -0.0493 -0.2055 -0.1137
  454loPI    C3 7251  12.309  13.132  11.989  0.0211 -0.0393 -0.0130
  454loPI   PO4 7252  12.478  12.980  11.373 -0.0385 -0.0484  0.0157
  454loPI   GL1 7253  12.742  12.656  11.042 -0.2191  0.1784 -0.0103
  454loPI   GL2 7254  13.026  12.428  10.949  0.2480  0.1086  0.1062
  454loPI   C1A 7255  12.630  12.517  10.693 -0.1075  0.3989  0.1386
  454loPI   C2A 7256  12.622  12.480  10.220 -0.0369 -0.1764 -0.2738
  454loPI   C3A 7257  12.595  12.481   9.793  0.0245 -0.0505 -0.2233
  454loPI   C4A 7258  12.744  12.563   9.274 -0.0307  0.1813 -0.2094
  454loPI   C5A 7259  12.973  12.356   8.927  0.0930 -0.1173 -0.1352
  454loPI   C6A 7260  12.831  12.104   8.500 -0.0203  0.1624 -0.2216
  454loPI   C1B 7261  13.202  12.456  10.560 -0.1527 -0.0017  0.0340
  454loPI   C2B 7262  13.144  12.455  10.106 -0.0897  0.1141 -0.3323
  454loPI   C3B 7263  13.253  12.532   9.611  0.0528  0.2920 -0.0605
  454loPI   C4B 7264  13.409  12.593   9.127 -0.3056 -0.1249  0.0094
  455loPI    C1 7265  16.507   4.549  11.440 -0.3364  0.1649  0.0301
  455loPI    C2 7266  16.224   4.304  11.299 -0.1015 -0.1077  0.0233
  455loPI    C3 7267  16.408   4.219  11.643  0.2956 -0.1839 -0.2017
  455loPI   PO4 7268  16.619   4.624  11.279 -0.0612 -0.1760  0.4108
  455loPI   GL1 7269  16.781   4.614  10.971  0.0535  0.0621 -0.1609
  455loPI   GL2 7270  17.160   4.646  11.002  0.0761 -0.0864  0.0838
  455loPI   C1A 7271  16.750   4.445  10.503  0.1309 -0.2191 -0.2747
  455loPI   C2A 7272  16.789   4.485  10.106 -0.1880 -0.1320 -0.1342
  455loPI   C3A 7273  16.897   4.365   9.661 -0.1226 -0.1644  0.1346
  455loPI   C4A 7274  16.784   4.348   9.252  0.0477 -0.1062 -0.2539
  455loPI   C5A 7275  16.849   4.193   8.852  0.1699 -0.1080 -0.2019
  455loPI   C6A 7276  16.835   4.063   8.364 -0.0974 -0.1315 -0.1047
  455loPI   C1B 7277  17.129   4.674  10.514  0.0572 -0.1476  0.0258
  455loPI   C2B 7278  17.229   4.725  10.152 -0.2077 -0.0752  0.2363
  455loPI   C3B 7279  17.108   4.792   9.791  0.4567 -0.1050 -0.1557
  455loPI   C4B 7280  17.183   4.735   9.374 -0.0553 -0.0436 -0.2376
  456loPI    C1 7281   0.376   7.805  11.489  0.1308 -0.1778  0.0312
  456loPI    C2 7282   0.140   7.598  11.736 -0.0962 -0.2209 -0.2173
  456loPI    C3 7283   0.191   7.991  11.791 -0.0681 -0.2475 -0.0464
  456loPI   PO4 7284   0.315   7.741  11.254 -0.1081  0.1703  0.1272
  456loPI   GL1 7285   0.186   7.947  10.995  0.1620 -0.0114 -0.0795
  456loPI   GL2 7286   0.371   8.212  11.050  0.0670 -0.0475 -0.0794
  456loPI   C1A 7287   0.403   7.798  10.648  0.0180  0.0960  0.1970
  456loPI   C2A 7288   0.369   7.789  10.248  0.2550  0.0743 -0.1561
  456loPI   C3A 7289   0.338   7.808   9.915  0.3229  0.1521  0.2783
  456loPI   C4A 7290   0.168   7.812   9.528  0.0352 -0.0881 -0.3837
  456loPI   C5A 7291   0.157   7.976   9.137 -0.0392 -0.0798  0.2037
  456loPI   C6A 7292   0.280   7.932   8.637 -0.0830 -0.0016  0.1578
  456loPI   C1B 7293   0.184   8.277  10.634  0.0071 -0.0590  0.3626
  456loPI   C2B 7294   0.065   8.238  10.191  0.1513 -0.2360  0.0722
  456loPI   C3B 7295   0.076   8.303   9.765 -0.5379  0.1258  0.1364
  456loPI   C4B 7296  -0.092   8.304   9.352 -0.2472 -0.0323 -0.1297
  457loPI    C1 7297   3.125   6.113  11.564  0.1616 -0.0956  0.1088
  457loPI    C2 7298   3.176   6.491  11.682  0.0570 -0.0565  0.0298
  457loPI    C3 7299   3.351   6.194  11.884  0.0304  0.0235  0.1722
  457loPI   PO4 7300   3.008   6.083  11.341  0.1467  0.2156  0.0899
  457loPI   GL1 7301   2.905   6.070  10.971  0.0519 -0.2148  0.3382
  457loPI   GL2 7302   2.768   6.363  10.976 -0.0795 -0.1975  0.1370
  457loPI   C1A 7303   2.727   5.769  10.613 -0.3731  0.0510  0.0249
  457loPI   C2A 7304   2.624   5.802  10.203 -0.0277 -0.2037  0.0364
  457loPI   C3A 7305   2.663   5.792   9.833  0.4585  0.3241 -0.0559
  457loPI   C4A 7306   2.833   5.583   9.479  0.2160  0.0064  0.1307
  457loPI   C5A 7307   2.808   5.478   8.999 -0.0310 -0.2343 -0.0129
  457loPI   C6A 7308   3.157   5.766   8.815  0.4117  0.1581 -0.1260
  457loPI   C1B 7309   2.887   6.225  10.485 -0.0578 -0.2106  0.3277
  457loPI   C2B 7310   2.942   6.186  10.082  0.2408 -0.3164 -0.0395
  457loPI   C3B 7311   2.974   6.187   9.617  0.0567 -0.3231  0.1404
  457loPI   C4B 7312   2.853   5.984   9.180 -0.1095  0.2377 -0.2543
  458loPI    C1 7313  12.651   4.603  11.487 -0.0022  0.1993  0.2354
  458loPI    C2 7314  12.695   4.231  11.627  0.1060  0.0176 -0.2607
  458loPI    C3 7315  12.892   4.534  11.798 -0.0801 -0.1274  0.2263
  458loPI   PO4 7316  12.672   4.561  11.225  0.0695 -0.3806  0.3596
  458loPI   GL1 7317  12.656   4.881  10.897 -0.3037  0.0977 -0.2102
  458loPI   GL2 7318  12.832   5.181  10.795 -0.2864  0.2402  0.1167
  458loPI   C1A 7319  12.503   4.910  10.559  0.0979  0.3248  0.1566
  458loPI   C2A 7320  12.441   4.917  10.205 -0.3271  0.0520  0.2017
  458loPI   C3A 7321  12.355   4.892   9.869 -0.0351 -0.0869  0.2988
  458loPI   C4A 7322  12.262   4.951   9.442  0.2402 -0.0649  0.0769
  458loPI   C5A 7323  12.084   4.991   9.076 -0.0214  0.0317  0.2680
  458loPI   C6A 7324  11.585   5.062   8.882  0.0484  0.1296  0.3013
  458loPI   C1B 7325  12.795   5.332  10.364  0.0682 -0.5481  0.0944
  458loPI   C2B 7326  12.614   5.356   9.914 -0.2021 -0.2813 -0.0823
  458loPI   C3B 7327  12.486   5.710   9.739 -0.1881  0.1545  0.1259
  458loPI   C4B 7328  12.194   5.863   9.481  0.0149  0.0526 -0.1765
  459loPI    C1 7329  14.717  15.529  12.047 -0.1500 -0.2431  0.0016
  459loPI    C2 7330  15.104  15.442  12.097 -0.0931  0.2159  0.4399
  459loPI    C3 7331  14.824  15.224  12.282 -0.0645 -0.2324 -0.0232
  459loPI   PO4 7332  14.680  15.606  11.807 -0.1461 -0.2615  0.0455
  459loPI   GL1 7333  14.800  15.492  11.333 -0.0814  0.1121  0.0420
  459loPI   GL2 7334  15.064  15.612  11.196  0.1135  0.2571 -0.0859
  459loPI   C1A 7335  14.733  15.391  10.882  0.0881 -0.0169  0.0866
  459loPI   C2A 7336  14.777  15.355  10.520 -0.1543  0.0630  0.2981
  459loPI   C3A 7337  14.835  15.381  10.169  0.2274  0.0476  0.0505
  459loPI   C4A 7338  14.800  15.402   9.676 -0.2277 -0.1272  0.4915
  459loPI   C5A 7339  14.724  15.440   9.247  0.0574  0.1329  0.0298
  459loPI   C6A 7340  14.512  15.328   8.720 -0.0027 -0.3226 -0.0650
  459loPI   C1B 7341  15.090  15.750  10.789 -0.0035 -0.0633  0.1885
  459loPI   C2B 7342  15.094  15.812  10.288  0.1013  0.2382  0.1330
  459loPI   C3B 7343  15.066  15.785   9.837 -0.2517  0.1621 -0.1967
  459loPI   C4B 7344  15.105  15.715   9.399 -0.1671 -0.0032  0.1833
  460loPI    C1 7345  15.776   7.706  11.677 -0.2521  0.0121  0.2418
  460loPI    C2 7346  15.672   7.895  12.013 -0.0382  0.1103  0.2545
  460loPI    C3 7347  16.043   7.754  11.970 -0.0818  0.0447  0.0834
  460loPI   PO4 7348  15.742   7.819  11.522 -0.3199 -0.1453 -0.0180
  460loPI   GL1 7349  15.417   7.813  11.281  0.2466  0.3377  0.1054
  460loPI   GL2 7350  15.081   7.618  11.150 -0.2090  0.0913  0.0150
  460loPI   C1A 7351  15.533   8.021  10.868 -0.1702  0.4137 -0.3499
  460loPI   C2A 7352  15.545   8.064  10.460 -0.3073 -0.0456  0.0323
  460loPI   C3A 7353  15.576   8.117  10.046 -0.2297  0.3103  0.1054
  460loPI   C4A 7354  15.525   8.041   9.657  0.1537  0.1743  0.2214
  460loPI   C5A 7355  15.549   7.917   9.232  0.3571 -0.0992 -0.2170
  460loPI   C6A 7356  15.564   7.974   8.831  0.2452 -0.0792  0.1160
  460loPI   C1B 7357  15.141   7.521  10.863  0.0519  0.1278  0.1144
  460loPI   C2B 7358  15.168   7.636  10.425  0.1237 -0.1190 -0.4639
  460loPI   C3B 7359  15.227   7.631   9.961  0.0226  0.0197  0.0297
  460loPI   C4B 7360  15.182   7.602   9.524 -0.2420  0.2365 -0.1082
  461loPI    C1 7361   1.830   5.455  11.366  0.0011 -0.0394  0.0006
  461loPI    C2 7362   1.882   5.132  11.135 -0.0353 -0.0561  0.0155
  461loPI    C3 7363   2.024   5.136  11.509  0.0290 -0.0267 -0.0089
  461loPI   PO4 7364   1.633   5.568  11.208  0.0017 -0.0849 -0.1742
  461loPI   GL1 7365   1.659   5.476  10.811 -0.1263 -0.1693 -0.0742
  461loPI   GL2 7366   1.649   5.798  10.779 -0.3092 -0.1912  0.1424
  461loPI   C1A 7367   1.831   5.345  10.454  0.1279  0.3227  0.3204
  461loPI   C2A 7368   1.846   5.394  10.038  0.1366 -0.1032 -0.3631
  461loPI   C3A 7369   1.988   5.374   9.621  0.1297 -0.1234  0.0326
  461loPI   C4A 7370   2.020   5.247   9.195 -0.0862  0.2557 -0.1480
  461loPI   C5A 7371   2.145   5.068   8.819 -0.2106 -0.0909  0.1940
  461loPI   C6A 7372   2.250   5.045   8.378 -0.0583  0.0248  0.0156
  461loPI   C1B 7373   1.589   5.761  10.386 -0.0918  0.5274 -0.0721
  461loPI   C2B 7374   1.583   5.853   9.966 -0.1056 -0.2941  0.0815
  461loPI   C3B 7375   1.694   5.900   9.549 -0.4510 -0.1670 -0.1446
  461loPI   C4B 7376   1.916   5.784   9.123  0.2121  0.0796 -0.0898
  462loPI    C1 7377  12.319  17.238  12.172  0.1104 -0.2069 -0.1932
  462loPI    C2 7378  11.977  17.173  12.369  0.0694 -0.0251 -0.2018
  462loPI    C3 7379  12.289  16.930  12.425 -0.0336 -0.1423 -0.1297
  462loPI   PO4 7380  12.235  17.240  11.882  0.0010 -0.1142  0.0895
  462loPI   GL1 7381  12.128  17.290  11.389  0.2993 -0.0055 -0.0422
  462loPI   GL2 7382  12.471  17.291  11.330  0.0230  0.2398 -0.1224
  462loPI   C1A 7383  12.008  17.298  10.999  0.1486 -0.1486 -0.0293
  462loPI   C2A 7384  12.107  17.275  10.592  0.1629  0.0237 -0.1516
  462loPI   C3A 7385  12.015  17.207  10.201  0.1212 -0.2105 -0.1220
  462loPI   C4A 7386  12.106  17.143   9.866 -0.2359  0.2634 -0.0482
  462loPI   C5A 7387  12.200  17.203   9.411  0.0331  0.0453 -0.0513
  462loPI   C6A 7388  12.435  17.298   9.047 -0.1230  0.0887 -0.0230
  462loPI   C1B 7389  12.577  17.273  10.915 -0.2422 -0.1021 -0.1729
  462loPI   C2B 7390  12.633  17.078  10.560 -0.2250  0.3207 -0.4429
  462loPI   C3B 7391  12.575  17.107  10.061  0.0188  0.1161  0.1940
  462loPI   C4B 7392  12.628  17.021   9.682 -0.1496  0.3352 -0.1685
  463loPI    C1 7393  15.982  16.261  11.852  0.0655 -0.2158 -0.1915
  463loPI    C2 7394  16.302  16.499  11.880 -0.2419  0.1946 -0.0546
  463loPI    C3 7395  16.177  16.294  12.200 -0.0939 -0.0027 -0.1205
  463loPI   PO4 7396  15.793  16.424  11.623 -0.0289  0.1798 -0.1752
  463loPI   GL1 7397  15.774  16.313  11.232 -0.0260 -0.1433 -0.2454
  463loPI   GL2 7398  15.689  16.613  11.189  0.1075  0.3611  0.1541
  463loPI   C1A 7399  15.894  16.138  10.799 -0.1229  0.1396  0.0090
  463loPI   C2A 7400  15.922  16.105  10.345  0.0982 -0.6118  0.1755
  463loPI   C3A 7401  15.868  16.089  10.008 -0.0752  0.0775 -0.2296
  463loPI   C4A 7402  16.017  16.137   9.527  0.0270 -0.0593 -0.3936
  463loPI   C5A 7403  16.079  16.432   9.199 -0.1441  0.0386  0.0826
  463loPI   C6A 7404  16.273  16.661   8.933 -0.0322 -0.0879 -0.1397
  463loPI   C1B 7405  15.718  16.638  10.726  0.1452  0.1230 -0.2791
  463loPI   C2B 7406  15.741  16.683  10.304 -0.0446 -0.2206  0.6554
  463loPI   C3B 7407  15.816  16.598   9.860  0.1738 -0.0084 -0.3373
  463loPI   C4B 7408  15.652  16.529   9.448 -0.0110 -0.1097 -0.2772
  464loPI    C1 7409   9.801   3.478  11.851 -0.1290 -0.1826 -0.1057
  464loPI    C2 7410   9.514   3.747  11.779 -0.0318 -0.0441  0.0156
  464loPI    C3 7411   9.831   3.849  12.000 -0.0799 -0.3113  0.2123
  464loPI   PO4 7412   9.887   3.353  11.596 -0.1987 -0.3322  0.0449
  464loPI   GL1 7413   9.720   3.059  11.344  0.3069  0.2243 -0.0307
  464loPI   GL2 7414   9.411   2.955  11.294  0.3988 -0.1236 -0.1356
  464loPI   C1A 7415   9.770   2.898  10.959 -0.0633  0.1122 -0.0101
  464loPI   C2A 7416   9.774   2.899  10.629  0.0491 -0.0641 -0.0168
  464loPI   C3A 7417   9.713   2.857  10.192  0.1763 -0.2397  0.0194
  464loPI   C4A 7418   9.757   2.808   9.803  0.0057  0.0220 -0.2234
  464loPI   C5A 7419   9.721   2.851   9.387 -0.0315  0.0435  0.0846
  464loPI   C6A 7420   9.731   2.686   9.073 -0.1447  0.0896  0.0684
  464loPI   C1B 7421   9.294   2.796  10.950 -0.0165  0.1613 -0.1431
  464loPI   C2B 7422   9.158   2.851  10.523 -0.1207  0.0445 -0.0948
  464loPI   C3B 7423   9.150   2.896  10.074 -0.2608 -0.0360  0.1475
  464loPI   C4B 7424   9.291   2.798   9.674  0.1847  0.3441  0.2310
  465loPI    C1 7425  16.469   6.892  11.697 -0.1856 -0.0587 -0.1628
  465loPI    C2 7426  16.307   6.549  11.824 -0.0194 -0.1678 -0.2423
  465loPI    C3 7427  16.214   6.893  12.006  0.0416 -0.2929  0.0304
  465loPI   PO4 7428  16.445   6.851  11.386  0.2163 -0.2936  0.2391
  465loPI   GL1 7429  16.342   7.164  11.159  0.0767  0.0870 -0.0519
  465loPI   GL2 7430  16.052   7.184  11.152 -0.0768 -0.1563  0.1605
  465loPI   C1A 7431  16.447   7.039  10.775  0.1098 -0.1765 -0.0614
  465loPI   C2A 7432  16.355   7.088  10.379  0.0150  0.0072 -0.1387
  465loPI   C3A 7433  16.431   6.999   9.913  0.1544  0.0536  0.0344
  465loPI   C4A 7434  16.484   7.059   9.550  0.2789 -0.2992  0.1208
  465loPI   C5A 7435  16.380   7.187   9.138 -0.1594  0.1081  0.2738
  465loPI   C6A 7436  16.272   7.357   8.685 -0.1403 -0.0382 -0.3232
  465loPI   C1B 7437  15.940   7.117  10.673  0.0128 -0.1778 -0.0556
  465loPI   C2B 7438  15.896   7.096  10.230  0.0162  0.2376 -0.0426
  465loPI   C3B 7439  15.916   7.032   9.790  0.1884  0.0394  0.1238
  465loPI   C4B 7440  15.905   7.158   9.456 -0.3208  0.0613  0.1861
  466loPI    C1 7441   0.841   2.080  11.881  0.0527 -0.1838 -0.2254
  466loPI    C2 7442   1.132   2.349  11.832 -0.0460 -0.0738 -0.2137
  466loPI    C3 7443   0.989   2.274  12.198 -0.0223 -0.1383 -0.2176
  466loPI   PO4 7444   0.701   2.151  11.631  0.2124 -0.4378 -0.0421
  466loPI   GL1 7445   0.769   2.139  11.113 -0.1174 -0.2003  0.0514
  466loPI   GL2 7446   0.564   1.954  11.213  0.2125 -0.0428  0.1233
  466loPI   C1A 7447   0.950   2.205  10.698  0.2170  0.2524 -0.1130
  466loPI   C2A 7448   1.245   2.271  10.341 -0.1161 -0.0913 -0.2057
  466loPI   C3A 7449   1.363   2.215   9.976 -0.0039 -0.2235 -0.1189
  466loPI   C4A 7450   1.452   2.102   9.596 -0.0271 -0.0062 -0.0370
  466loPI   C5A 7451   1.292   2.109   9.209 -0.3170  0.0131 -0.0775
  466loPI   C6A 7452   0.946   2.352   9.130  0.1978  0.1851 -0.1945
  466loPI   C1B 7453   0.495   1.940  10.797 -0.2596  0.3869 -0.1614
  466loPI   C2B 7454   0.186   1.842  10.537  0.0718 -0.1746  0.0320
  466loPI   C3B 7455   0.127   1.857  10.090  0.1572  0.1736  0.1795
  466loPI   C4B 7456   0.170   1.775   9.646  0.1505  0.2820 -0.3286
  467loPI    C1 7457  15.136  16.456  12.140  0.4727  0.0356  0.0102
  467loPI    C2 7458  15.379  16.496  12.455 -0.1242 -0.3085  0.5367
  467loPI    C3 7459  15.049  16.720  12.427  0.0703 -0.0741 -0.0050
  467loPI   PO4 7460  15.335  16.372  11.876 -0.0139 -0.0793 -0.0921
  467loPI   GL1 7461  15.284  16.109  11.403 -0.2701 -0.1050  0.0973
  467loPI   GL2 7462  14.983  15.983  11.596 -0.0229  0.2397  0.1518
  467loPI   C1A 7463  15.343  16.168  10.988  0.0965 -0.0994  0.0071
  467loPI   C2A 7464  15.406  16.288  10.600 -0.0181  0.1410 -0.2277
  467loPI   C3A 7465  15.406  16.155  10.159 -0.1930  0.0043 -0.0953
  467loPI   C4A 7466  15.461  16.179   9.744  0.2056 -0.1591 -0.0987
  467loPI   C5A 7467  15.422  16.110   9.314  0.4154  0.0932 -0.0026
  467loPI   C6A 7468  15.710  16.189   8.919  0.1172 -0.1569 -0.0081
  467loPI   C1B 7469  14.714  15.938  11.171 -0.1480  0.0296  0.0108
  467loPI   C2B 7470  14.486  15.864  10.804  0.1541 -0.0540 -0.0647
  467loPI   C3B 7471  14.587  15.846  10.436  0.1224 -0.1655 -0.1525
  467loPI   C4B 7472  14.605  15.850  10.022  0.0102 -0.0493  0.0358
  468loPI    C1 7473   4.600   1.025  11.667 -0.0943  0.3345 -0.0382
  468loPI    C2 7474   4.998   1.061  11.686 -0.0436 -0.0814 -0.1956
  468loPI    C3 7475   4.774   1.137  12.009  0.1597  0.1680 -0.1097
  468loPI   PO4 7476   4.539   0.946  11.295  0.2958  0.1551 -0.2327
  468loPI   GL1 7477   4.488   0.784  10.899 -0.1349 -0.1503  0.1636
  468loPI   GL2 7478   4.353   0.948  10.706 -0.1862 -0.1529  0.1870
  468loPI   C1A 7479   4.176   0.507  10.847  0.1563  0.1460  0.1064
  468loPI   C2A 7480   4.076   0.545  10.326  0.2560  0.1152 -0.1382
  468loPI   C3A 7481   4.225   0.530   9.893  0.0697 -0.0430  0.0042
  468loPI   C4A 7482   4.226   0.498   9.478  0.2667 -0.0673  0.0843
  468loPI   C5A 7483   4.026   0.422   9.192  0.3001 -0.1090  0.0092
  468loPI   C6A 7484   3.579   0.390   9.055  0.1189  0.1865 -0.2043
  468loPI   C1B 7485   4.405   0.864  10.288  0.1835  0.0136  0.3220
  468loPI   C2B 7486   4.518   0.936   9.846  0.0278 -0.0295 -0.0538
  468loPI   C3B 7487   4.498   1.000   9.415 -0.3401  0.0815 -0.1075
  468loPI   C4B 7488   4.264   0.938   9.011  0.0221 -0.0672 -0.2210
  469loPI    C1 7489   4.145  16.959  11.697 -0.2666 -0.0029  0.0801
  469loPI    C2 7490   4.146  17.354  11.762  0.2343  0.0436 -0.1587
  469loPI    C3 7491   3.870  17.191  11.522  0.0011  0.2394 -0.0277
  469loPI   PO4 7492   4.353  16.852  11.558 -0.0504  0.1000 -0.0799
  469loPI   GL1 7493   4.602  16.921  11.120  0.0207  0.4888  0.0202
  469loPI   GL2 7494   4.440  16.671  11.030  0.1032 -0.0775  0.1909
  469loPI   C1A 7495   4.682  16.936  10.626  0.0414  0.1673 -0.1196
  469loPI   C2A 7496   4.574  16.876  10.134 -0.4237  0.2466 -0.2258
  469loPI   C3A 7497   4.666  16.919   9.812  0.2591 -0.2552 -0.1599
  469loPI   C4A 7498   4.623  17.055   9.343  0.2079  0.2391 -0.1693
  469loPI   C5A 7499   4.420  17.497   9.093 -0.0995  0.0758 -0.0918
  469loPI   C6A 7500   4.341  17.525   8.760  0.3905 -0.2776 -0.0513
  469loPI   C1B 7501   4.336  16.505  10.628 -0.2749  0.0229 -0.2492
  469loPI   C2B 7502   4.294  16.450  10.156 -0.0376 -0.1408  0.0005
  469loPI   C3B 7503   4.373  16.524   9.688 -0.2084 -0.4272 -0.1074
  469loPI   C4B 7504   4.371  16.518   9.231  0.2849  0.0521  0.1086
  470loPI    C1 7505   4.989   0.223  11.780  0.0719  0.1070  0.0587
  470loPI    C2 7506   4.821   0.579  11.849  0.0336  0.1022 -0.0091
  470loPI    C3 7507   4.621   0.244  11.936  0.0833  0.0970  0.0871
  470loPI   PO4 7508   5.023   0.196  11.575 -0.1655  0.1677  0.2742
  470loPI   GL1 7509   5.304   0.246  11.207  0.0874 -0.3337  0.1197
  470loPI   GL2 7510   5.360   0.470  11.086  0.1508 -0.0987 -0.2171
  470loPI   C1A 7511   5.520   0.015  10.793  0.0074  0.0277  0.2350
  470loPI   C2A 7512   5.397  -0.067  10.371 -0.3357  0.0815 -0.0863
  470loPI   C3A 7513   5.403  -0.055   9.941  0.0739 -0.0235 -0.1616
  470loPI   C4A 7514   5.444   0.030   9.539  0.0907 -0.1931  0.1976
  470loPI   C5A 7515   5.457  -0.008   9.122  0.1622 -0.0176  0.0330
  470loPI   C6A 7516   5.659  -0.315   8.790 -0.0005  0.3154  0.0390
  470loPI   C1B 7517   5.268   0.403  10.663  0.1305 -0.0314  0.0464
  470loPI   C2B 7518   5.208   0.396  10.230 -0.0990 -0.2854  0.0695
  470loPI   C3B 7519   5.238   0.442   9.777 -0.0645  0.0437  0.0067
  470loPI   C4B 7520   5.266   0.540   9.408  0.1438 -0.2178  0.3140
  471loPI    C1 7521  15.161   4.821  11.479  0.1887  0.0027  0.0467
  471loPI    C2 7522  14.914   5.078  11.661 -0.0113 -0.1441 -0.0138
  471loPI    C3 7523  15.230   4.932  11.857 -0.0773 -0.0987  0.1277
  471loPI   PO4 7524  15.091   4.749  11.259  0.0482 -0.1387  0.0726
  471loPI   GL1 7525  15.186   4.897  10.932  0.1762  0.0088 -0.1700
  471loPI   GL2 7526  14.914   4.971  10.726  0.1548 -0.0015  0.0146
  471loPI   C1A 7527  15.370   4.937  10.498  0.1884  0.1089  0.1642
  471loPI   C2A 7528  15.384   4.943  10.001 -0.1159 -0.1906  0.2590
  471loPI   C3A 7529  15.447   4.926   9.607 -0.3111  0.1371  0.0250
  471loPI   C4A 7530  15.673   4.766   9.249  0.0627  0.1227  0.2698
  471loPI   C5A 7531  15.766   4.510   8.910  0.1139  0.0944 -0.1465
  471loPI   C6A 7532  15.457   4.195   8.703  0.0601 -0.0901  0.1054
  471loPI   C1B 7533  14.878   4.916  10.305 -0.1376  0.3056  0.0644
  471loPI   C2B 7534  14.876   5.003   9.890 -0.0551 -0.0412  0.0133
  471loPI   C3B 7535  14.976   5.016   9.410 -0.0327  0.3347 -0.2258
  471loPI   C4B 7536  15.206   5.033   9.036  0.0010  0.0019 -0.1899
  472loPI    C1 7537  14.275   5.355  11.257  0.1089 -0.1667 -0.0064
  472loPI    C2 7538  14.603   5.539  11.393 -0.0669  0.0794  0.0908
  472loPI    C3 7539  14.450   5.229  11.594  0.1712 -0.1124 -0.0183
  472loPI   PO4 7540  14.315   5.346  11.028  0.0615 -0.1113 -0.2909
  472loPI   GL1 7541  14.291   5.403  10.636  0.0699  0.1170  0.0252
  472loPI   GL2 7542  14.646   5.386  10.638 -0.3833 -0.5284  0.0869
  472loPI   C1A 7543  14.144   5.534  10.302  0.2926  0.3185  0.0926
  472loPI   C2A 7544  14.028   5.563   9.943  0.0421  0.0387 -0.1002
  472loPI   C3A 7545  14.176   5.521   9.588 -0.1097  0.0578  0.0722
  472loPI   C4A 7546  14.282   5.460   9.192  0.1005  0.1372  0.0445
  472loPI   C5A 7547  14.461   5.625   8.848 -0.2295  0.2641  0.0965
  472loPI   C6A 7548  14.616   6.016   8.813  0.0224  0.1834  0.1353
  472loPI   C1B 7549  14.626   5.441  10.176 -0.0387 -0.3052  0.1012
  472loPI   C2B 7550  14.768   5.484   9.738  0.3924 -0.3367 -0.1252
  472loPI   C3B 7551  14.842   5.474   9.271 -0.2293 -0.0125  0.1431
  472loPI   C4B 7552  14.690   5.191   8.904  0.2963 -0.3216 -0.1493
  473loPI    C1 7553   4.709   8.245  11.419  0.0718 -0.1618  0.0035
  473loPI    C2 7554   4.751   8.047  11.764  0.1351 -0.2090 -0.0314
  473loPI    C3 7555   4.626   8.427  11.765 -0.0109 -0.2570  0.0339
  473loPI   PO4 7556   4.863   8.233  11.269  0.0089 -0.1978 -0.2199
  473loPI   GL1 7557   4.941   8.390  10.917 -0.1575 -0.0131 -0.2524
  473loPI   GL2 7558   4.839   8.734  10.854  0.0901  0.0510  0.2695
  473loPI   C1A 7559   5.108   8.363  10.639  0.0860  0.0703  0.0281
  473loPI   C2A 7560   5.050   8.237  10.245  0.0354  0.3616 -0.3076
  473loPI   C3A 7561   5.092   8.176   9.866  0.1268  0.1573  0.3656
  473loPI   C4A 7562   5.089   8.309   9.485  0.1531  0.0971  0.0851
  473loPI   C5A 7563   5.140   8.160   9.099  0.2345 -0.1759  0.1214
  473loPI   C6A 7564   5.125   8.077   8.658 -0.2156  0.3558  0.1257
  473loPI   C1B 7565   4.927   8.785  10.392  0.0514 -0.1597 -0.0481
  473loPI   C2B 7566   4.857   8.604   9.951  0.1719  0.0466 -0.1820
  473loPI   C3B 7567   4.789   8.771   9.543  0.1555 -0.0753 -0.1594
  473loPI   C4B 7568   4.916   8.597   9.098 -0.0820  0.2743  0.0196
  474POPI    C1 7569   8.702   1.338  11.670  0.2689 -0.1023  0.2061
  474POPI    C2 7570   8.806   1.491  12.025 -0.2946 -0.0477  0.3569
  474POPI    C3 7571   8.574   1.166  12.008 -0.1461 -0.1406  0.0343
  474POPI   PO4 7572   8.595   1.585  11.471  0.2849  0.2811  0.3059
  474POPI   GL1 7573   8.394   1.494  11.089  0.2719  0.0194  0.1523
  474POPI   GL2 7574   8.253   1.824  10.988  0.2951  0.1774  0.2693
  474POPI   C1A 7575   8.481   1.164  10.765 -0.0262 -0.3253  0.2054
  474POPI   D2A 7576   8.548   1.167  10.437  0.1891 -0.2013 -0.0727
  474POPI   C3A 7577   8.520   1.128  10.049 -0.1855  0.1181 -0.0498
  474POPI   C4A 7578   8.475   1.014   9.598 -0.0513 -0.0667 -0.2701
  474POPI   C1B 7579   8.243   1.550  10.570 -0.0645 -0.0037  0.0125
  474POPI   C2B 7580   8.251   1.566  10.192 -0.2903  0.0617  0.2171
  474POPI   C3B 7581   8.266   1.455   9.768  0.3940  0.2735  0.0713
  474POPI   C4B 7582   8.343   1.497   9.327 -0.0952  0.0512 -0.1203
  475POPI    C1 7583  12.441  11.462  11.961 -0.1146 -0.1231 -0.0014
  475POPI    C2 7584  12.604  11.816  12.051  0.0790 -0.2258  0.0589
  475POPI    C3 7585  12.377  11.626  12.320  0.0569 -0.1943  0.0625
  475POPI   PO4 7586  12.377  11.475  11.745  0.4728  0.1794  0.0864
  475POPI   GL1 7587  12.158  11.313  11.360  0.1647 -0.1582 -0.0589
  475POPI   GL2 7588  12.433  11.559  11.234 -0.0426  0.0719 -0.1061
  475POPI   C1A 7589  12.159  11.249  10.941  0.0027 -0.0868  0.2071
  475POPI   D2A 7590  12.273  11.138  10.522 -0.0259  0.2229 -0.3019
  475POPI   C3A 7591  12.320  11.122  10.071  0.0405  0.1563 -0.0319
  475POPI   C4A 7592  12.354  11.208   9.575  0.1702  0.1970  0.2194
  475POPI   C1B 7593  12.489  11.633  10.839  0.0483 -0.1542 -0.1117
  475POPI   C2B 7594  12.548  11.522  10.372  0.0340  0.3072 -0.2236
  475POPI   C3B 7595  12.573  11.616   9.949  0.0393  0.0858 -0.2832
  475POPI   C4B 7596  12.653  11.645   9.577  0.1457 -0.2947  0.0373
  476POPI    C1 7597  15.886   9.392  11.722  0.0932 -0.0967 -0.0816
  476POPI    C2 7598  16.262   9.353  11.853  0.1152 -0.0237 -0.1228
  476POPI    C3 7599  15.961   9.184  12.056  0.1773 -0.1431 -0.1291
  476POPI   PO4 7600  15.860   9.376  11.518  0.0039  0.2009 -0.3906
  476POPI   GL1 7601  15.781   9.530  11.222 -0.2376  0.0137 -0.0269
  476POPI   GL2 7602  15.991   9.395  10.976  0.0606  0.2620  0.2259
  476POPI   C1A 7603  15.793   9.810  10.863  0.1265 -0.1485  0.2391
  476POPI   D2A 7604  15.831   9.960  10.465  0.1190 -0.2654  0.1534
  476POPI   C3A 7605  15.869   9.880   9.932 -0.1117  0.1661 -0.0216
  476POPI   C4A 7606  15.859   9.968   9.539 -0.3142 -0.2628 -0.1633
  476POPI   C1B 7607  16.036   9.436  10.573 -0.1394  0.0265 -0.0107
  476POPI   C2B 7608  16.057   9.449  10.181 -0.2668  0.3140  0.1044
  476POPI   C3B 7609  16.053   9.438   9.763 -0.2201  0.0658 -0.0488
  476POPI   C4B 7610  16.131   9.423   9.427 -0.1855 -0.2866  0.3026
  477POPI    C1 7611   0.010   8.338  11.486  0.1080 -0.2768 -0.0483
  477POPI    C2 7612  -0.316   8.181  11.656  0.0637 -0.1409 -0.0073
  477POPI    C3 7613  -0.085   8.434  11.862 -0.1064  0.1909 -0.2153
  477POPI   PO4 7614  -0.089   8.307  11.215  0.1358 -0.2109  0.0033
  477POPI   GL1 7615  -0.456   8.320  10.949 -0.6472  0.1881  0.2046
  477POPI   GL2 7616  -0.375   7.968  10.894 -0.0632 -0.1874  0.3320
  477POPI   C1A 7617  -0.334   8.373  10.532  0.1303 -0.3390  0.0908
  477POPI   D2A 7618  -0.481   8.195  10.177  0.0544  0.3134  0.2124
  477POPI   C3A 7619  -0.522   8.357   9.822  0.0574 -0.0037 -0.2009
  477POPI   C4A 7620  -0.635   8.304   9.432  0.2106 -0.1000  0.1010
  477POPI   C1B 7621  -0.181   7.861  10.508  0.4757  0.1033  0.0805
  477POPI   C2B 7622  -0.185   7.842   9.971  0.0450  0.0291  0.0710
  477POPI   C3B 7623  -0.333   7.921   9.562  0.3158  0.4154 -0.1079
  477POPI   C4B 7624  -0.375   7.849   9.050  0.0395  0.1779  0.0039
  478POPI    C1 7625   3.984  10.864  11.645  0.1502  0.0192  0.0003
  478POPI    C2 7626   3.951  10.657  11.986  0.0405 -0.0671 -0.0621
  478POPI    C3 7627   3.909  11.055  11.988  0.0880 -0.0624  0.0324
  478POPI   PO4 7628   3.789  10.790  11.489  0.4065  0.1373 -0.4353
  478POPI   GL1 7629   3.553  10.744  11.057 -0.4150  0.0950 -0.0213
  478POPI   GL2 7630   3.154  10.783  10.988  0.0834  0.0897 -0.1868
  478POPI   C1A 7631   3.548  10.642  10.565  0.2299 -0.2258  0.1608
  478POPI   D2A 7632   3.381  10.550  10.114 -0.0828 -0.0411  0.0900
  478POPI   C3A 7633   3.526  10.678   9.700 -0.0412  0.5467 -0.0460
  478POPI   C4A 7634   3.378  10.528   9.244 -0.1831  0.4987 -0.0537
  478POPI   C1B 7635   2.929  10.628  10.680 -0.0592 -0.1510 -0.3953
  478POPI   C2B 7636   2.907  10.662  10.273  0.0063 -0.2386  0.1060
  478POPI   C3B 7637   3.048  10.711   9.791  0.1117 -0.0597  0.1418
  478POPI   C4B 7638   2.985  10.754   9.373 -0.0651 -0.0634 -0.0949
  479POPI    C1 7639   2.394  12.425  11.848  0.0165 -0.0332  0.1017
  479POPI    C2 7640   2.685  12.208  12.016 -0.0786 -0.2678 -0.0321
  479POPI    C3 7641   2.318  12.210  12.176 -0.0783 -0.2070 -0.0323
  479POPI   PO4 7642   2.418  12.370  11.549  0.0506 -0.1370 -0.1805
  479POPI   GL1 7643   2.392  12.621  11.176 -0.0421  0.0354 -0.0768
  479POPI   GL2 7644   2.661  12.513  11.004  0.2535  0.1899 -0.0561
  479POPI   C1A 7645   2.299  12.701  10.752 -0.1375  0.0077  0.2299
  479POPI   D2A 7646   2.245  12.577  10.370  0.0795 -0.3179 -0.1228
  479POPI   C3A 7647   2.201  12.679   9.953 -0.0440  0.0573  0.3992
  479POPI   C4A 7648   2.046  12.617   9.563 -0.0553 -0.2167 -0.0520
  479POPI   C1B 7649   2.770  12.498  10.578  0.0920 -0.0345 -0.0489
  479POPI   C2B 7650   2.706  12.519  10.167 -0.1067  0.1193 -0.0262
  479POPI   C3B 7651   2.567  12.490   9.692 -0.1017 -0.1890  0.2442
  479POPI   C4B 7652   2.474  12.567   9.218 -0.0816  0.0974  0.0623
  480POPI    C1 7653  14.884  13.049  11.811 -0.0636 -0.0405  0.1758
  480POPI    C2 7654  14.725  13.108  12.173  0.0897 -0.0403  0.2436
  480POPI    C3 7655  15.107  12.993  12.138  0.1187  0.1021  0.0779
  480POPI   PO4 7656  14.732  13.283  11.623  0.0734 -0.5415  0.0518
  480POPI   GL1 7657  14.660  13.692  11.308  0.0600 -0.0730 -0.1472
  480POPI   GL2 7658  14.543  13.995  11.261  0.3340 -0.0639  0.0046
  480POPI   C1A 7659  14.681  13.572  10.922 -0.1864 -0.0569 -0.0981
  480POPI   D2A 7660  14.673  13.594  10.467 -0.0087 -0.1302  0.1086
  480POPI   C3A 7661  14.634  13.627  10.038 -0.3301 -0.1938 -0.1136
  480POPI   C4A 7662  14.645  13.598   9.559 -0.0123  0.1819 -0.2217
  480POPI   C1B 7663  14.444  14.071  10.848 -0.1137 -0.0852  0.0856
  480POPI   C2B 7664  14.407  14.105  10.436  0.2615  0.0467  0.0264
  480POPI   C3B 7665  14.388  14.065  10.100  0.1398 -0.2593 -0.0468
  480POPI   C4B 7666  14.412  14.149   9.688 -0.2998  0.1671  0.0218
  481POPI    C1 7667  16.518   0.600  11.693  0.0511 -0.1363 -0.1173
  481POPI    C2 7668  16.883   0.503  11.825  0.0874 -0.1726 -0.2424
  481POPI    C3 7669  16.689   0.816  11.983  0.1322 -0.2118 -0.1084
  481POPI   PO4 7670  16.531   0.467  11.427  0.0846 -0.1427 -0.0130
  481POPI   GL1 7671  16.454   0.206  11.143  0.0643  0.2085  0.0187
  481POPI   GL2 7672  16.136   0.365  11.075  0.1478  0.0300  0.1207
  481POPI   C1A 7673  16.738  -0.167  10.874 -0.1063 -0.1400 -0.1129
  481POPI   D2A 7674  16.988  -0.517  10.846  0.2173  0.2112  0.1414
  481POPI   C3A 7675  17.059  -0.522  10.409 -0.0397 -0.3843  0.0242
  481POPI   C4A 7676  17.087  -0.506   9.989  0.0626 -0.1192  0.2994
  481POPI   C1B 7677  16.107   0.619  10.713 -0.2836 -0.0611  0.0108
  481POPI   C2B 7678  16.131   0.527  10.245 -0.2267  0.0421 -0.3358
  481POPI   C3B 7679  16.175   0.579   9.877  0.1927  0.2036 -0.0637
  481POPI   C4B 7680  16.106   0.677   9.459 -0.2415  0.0721  0.1827
  482POPI    C1 7681   6.753  16.568  11.896 -0.2382  0.1138  0.2310
  482POPI    C2 7682   6.909  16.909  12.036 -0.1846  0.1239  0.1474
  482POPI    C3 7683   7.089  16.560  12.113  0.1472  0.1778 -0.3429
  482POPI   PO4 7684   6.702  16.636  11.674  0.0587 -0.0250 -0.1745
  482POPI   GL1 7685   6.762  16.719  11.229 -0.1649  0.0432 -0.1361
  482POPI   GL2 7686   6.800  16.512  11.054  0.3333  0.1443  0.0489
  482POPI   C1A 7687   6.978  16.990  10.924  0.1393  0.0531 -0.0886
  482POPI   D2A 7688   7.154  17.145  10.500 -0.3729 -0.0779  0.2114
  482POPI   C3A 7689   7.066  17.149  10.045 -0.0288  0.1306 -0.0236
  482POPI   C4A 7690   7.066  17.177   9.555 -0.0780  0.1045  0.0014
  482POPI   C1B 7691   6.754  16.675  10.607  0.0101  0.1284  0.1447
  482POPI   C2B 7692   6.712  16.771  10.153  0.4834 -0.0386 -0.1843
  482POPI   C3B 7693   6.683  16.746   9.776 -0.2083 -0.1959 -0.1241
  482POPI   C4B 7694   6.816  16.766   9.414  0.0118 -0.3326 -0.3221
  483POPI    C1 7695   6.022  16.918  11.853 -0.0324  0.1025  0.2027
  483POPI    C2 7696   6.196  16.561  11.808 -0.0800  0.0759  0.2282
  483POPI    C3 7697   6.379  16.848  12.018  0.0371  0.1238  0.0626
  483POPI   PO4 7698   5.830  16.969  11.604 -0.1713 -0.0086 -0.4814
  483POPI   GL1 7699   5.928  17.110  11.198  0.2873  0.0246  0.2038
  483POPI   GL2 7700   5.643  16.942  11.039  0.0733 -0.0966  0.0524
  483POPI   C1A 7701   6.050  17.167  10.762  0.1896 -0.0023  0.1085
  483POPI   D2A 7702   5.946  17.189  10.311 -0.0024  0.0687 -0.0274
  483POPI   C3A 7703   5.924  17.250   9.846  0.2037 -0.0184 -0.0461
  483POPI   C4A 7704   5.900  17.276   9.447 -0.3103  0.0836  0.1870
  483POPI   C1B 7705   5.696  16.879  10.566 -0.1012  0.0825 -0.2424
  483POPI   C2B 7706   5.661  16.866  10.064 -0.0821 -0.3887 -0.1352
  483POPI   C3B 7707   5.670  16.876   9.580  0.1874  0.1287  0.0179
  483POPI   C4B 7708   5.875  16.813   9.208 -0.0066  0.0440  0.2824
  484POPI    C1 7709   5.694   6.066  11.575  0.0634  0.0126 -0.0060
  484POPI    C2 7710   5.844   5.985  11.937 -0.1282 -0.0727  0.0558
  484POPI    C3 7711   5.454   6.062  11.895 -0.1173 -0.1196 -0.1412
  484POPI   PO4 7712   5.802   5.930  11.376 -0.1249  0.2389  0.3897
  484POPI   GL1 7713   6.021   5.695  11.049  0.1143 -0.1327  0.3881
  484POPI   GL2 7714   5.692   5.745  10.877  0.0976  0.1705  0.2042
  484POPI   C1A 7715   6.208   5.770  10.602  0.0240 -0.1315  0.1039
  484POPI   D2A 7716   6.273   5.926  10.083 -0.2034  0.2311 -0.1659
  484POPI   C3A 7717   6.310   5.767   9.645  0.2202  0.3315  0.2988
  484POPI   C4A 7718   6.460   5.796   9.219 -0.3484 -0.2113  0.0862
  484POPI   C1B 7719   5.747   5.904  10.486  0.0362  0.2088 -0.3667
  484POPI   C2B 7720   5.721   6.011  10.034 -0.0596 -0.3081  0.0648
  484POPI   C3B 7721   5.728   5.843   9.533 -0.1351 -0.1930 -0.2412
  484POPI   C4B 7722   5.826   5.714   9.137 -0.1771 -0.2359 -0.0362
  485POPI    C1 7723   4.589  12.209  11.766  0.0443 -0.1780 -0.0206
  485POPI    C2 7724   4.919  12.209  11.992  0.0626  0.3875 -0.0339
  485POPI    C3 7725   4.559  12.198  12.164  0.0823  0.2409 -0.0014
  485POPI   PO4 7726   4.664  12.032  11.553  0.0284 -0.0252 -0.0239
  485POPI   GL1 7727   4.641  12.024  11.166  0.0526 -0.0012  0.0169
  485POPI   GL2 7728   4.384  11.814  11.111 -0.2030 -0.0383 -0.0926
  485POPI   C1A 7729   4.619  11.990  10.695 -0.1929 -0.0836 -0.0503
  485POPI   D2A 7730   4.474  11.908  10.365  0.4586 -0.1669  0.1448
  485POPI   C3A 7731   4.471  11.966   9.940  0.3301 -0.1625 -0.1550
  485POPI   C4A 7732   4.434  12.040   9.501 -0.2000 -0.0818  0.0597
  485POPI   C1B 7733   4.091  11.892  10.677 -0.0369 -0.1010 -0.0552
  485POPI   C2B 7734   3.936  12.042  10.273 -0.2397  0.2667  0.1697
  485POPI   C3B 7735   3.931  12.019   9.816 -0.0291 -0.2127  0.1330
  485POPI   C4B 7736   3.839  12.108   9.335  0.0515 -0.0824  0.4284
  486POPI    C1 7737  11.511   6.553  11.392  0.1162 -0.1174 -0.1640
  486POPI    C2 7738  11.526   6.661  11.777 -0.2597 -0.0360 -0.1676
  486POPI    C3 7739  11.548   6.274  11.677 -0.1536 -0.0568 -0.0666
  486POPI   PO4 7740  11.635   6.738  11.289 -0.0128 -0.1989 -0.0935
  486POPI   GL1 7741  11.433   7.094  11.016  0.1132 -0.1905 -0.0309
  486POPI   GL2 7742  11.524   7.403  11.120 -0.2542 -0.0645  0.0456
  486POPI   C1A 7743  11.462   7.007  10.659  0.0040  0.1190  0.2053
  486POPI   D2A 7744  11.499   7.144  10.361  0.2048 -0.0590  0.0680
  486POPI   C3A 7745  11.506   7.075  10.035 -0.1586 -0.0461 -0.1344
  486POPI   C4A 7746  11.534   7.180   9.668 -0.1305  0.2528  0.1376
  486POPI   C1B 7747  11.749   7.529  10.708 -0.1101 -0.1097  0.2378
  486POPI   C2B 7748  11.811   7.531  10.251  0.1365  0.1355 -0.4621
  486POPI   C3B 7749  11.795   7.628   9.791 -0.2247 -0.2427  0.1001
  486POPI   C4B 7750  11.840   7.496   9.351  0.3082  0.1477 -0.0533
  487POPI    C1 7751  11.517   0.396  11.886  0.0599  0.1094  0.1130
  487POPI    C2 7752  11.838   0.214  11.732 -0.0387 -0.1014  0.1535
  487POPI    C3 7753  11.857   0.378  12.096  0.0611  0.0016  0.1024
  487POPI   PO4 7754  11.394   0.514  11.644 -0.1640  0.3819  0.0464
  487POPI   GL1 7755  11.480   0.529  11.252  0.0941 -0.0745  0.0613
  487POPI   GL2 7756  11.678   0.207  11.292  0.1307 -0.1986  0.2576
  487POPI   C1A 7757  11.277   0.378  10.899  0.2004 -0.1621  0.1736
  487POPI   D2A 7758  11.333   0.488  10.518  0.0793  0.3761  0.3770
  487POPI   C3A 7759  11.340   0.399  10.056  0.1543  0.0496  0.1512
  487POPI   C4A 7760  11.352   0.451   9.613 -0.0678 -0.2629 -0.2293
  487POPI   C1B 7761  11.535  -0.059  10.927 -0.0383 -0.0938  0.0588
  487POPI   C2B 7762  11.564  -0.046  10.416  0.1155 -0.2599  0.2337
  487POPI   C3B 7763  11.565  -0.052   9.947 -0.2008 -0.0781 -0.0915
  487POPI   C4B 7764  11.546  -0.034   9.617 -0.0037  0.2072  0.3391
  488POPI    C1 7765   4.385   7.466  11.397  0.0052  0.1556 -0.0071
  488POPI    C2 7766   4.075   7.214  11.389 -0.0057  0.1739 -0.2658
  488POPI    C3 7767   4.127   7.458  11.702 -0.0433 -0.0865 -0.0527
  488POPI   PO4 7768   4.567   7.412  11.086 -0.1551  0.2853  0.0745
  488POPI   GL1 7769   4.361   7.138  10.935 -0.1868  0.2627  0.0915
  488POPI   GL2 7770   4.549   6.853  10.739  0.2667 -0.0146  0.0374
  488POPI   C1A 7771   4.443   7.365  10.503  0.0788  0.2074  0.0072
  488POPI   D2A 7772   4.494   7.278  10.106 -0.0793  0.0003  0.1048
  488POPI   C3A 7773   4.495   7.409   9.652 -0.1786 -0.4833 -0.1679
  488POPI   C4A 7774   4.399   7.475   9.182 -0.0731 -0.5540  0.2427
  488POPI   C1B 7775   4.705   6.874  10.323 -0.0334  0.0509 -0.1426
  488POPI   C2B 7776   4.699   6.817   9.901 -0.0451 -0.0730 -0.2179
  488POPI   C3B 7777   4.729   6.973   9.496 -0.0145  0.2365 -0.3395
  488POPI   C4B 7778   4.815   7.009   9.075 -0.1767 -0.0484  0.0036
  489POPI    C1 7779   2.184  11.386  11.916 -0.0703 -0.1356 -0.2399
  489POPI    C2 7780   2.062  11.267  12.278  0.0077 -0.0278 -0.1777
  489POPI    C3 7781   2.038  11.653  12.176 -0.3409 -0.1078 -0.4160
  489POPI   PO4 7782   2.049  11.306  11.802 -0.2829  0.2171  0.1285
  489POPI   GL1 7783   1.953  11.526  11.429  0.1584 -0.0482 -0.0997
  489POPI   GL2 7784   2.225  11.676  11.305  0.0696 -0.3405 -0.4768
  489POPI   C1A 7785   1.876  11.193  11.121  0.3295  0.3409 -0.3412
  489POPI   D2A 7786   1.752  11.257  10.774  0.0402 -0.3355 -0.1287
  489POPI   C3A 7787   1.670  11.278  10.324 -0.0791 -0.2125  0.2233
  489POPI   C4A 7788   1.672  11.304   9.910 -0.2934 -0.2231  0.1858
  489POPI   C1B 7789   2.200  11.535  10.877  0.0257 -0.1507  0.2674
  489POPI   C2B 7790   2.151  11.646  10.438  0.2054  0.0165 -0.2121
  489POPI   C3B 7791   2.051  11.743   9.996  0.0414 -0.0526 -0.0632
  489POPI   C4B 7792   2.004  11.640   9.558  0.0170 -0.1425 -0.2991
  490POPI    C1 7793  17.083  15.039  11.679  0.0363  0.0564  0.0879
  490POPI    C2 7794  16.810  15.301  11.807  0.0028  0.1666 -0.2004
  490POPI    C3 7795  17.079  15.151  12.062 -0.3318  0.0472  0.0902
  490POPI   PO4 7796  16.997  14.943  11.532 -0.0591  0.1439 -0.1043
  490POPI   GL1 7797  16.989  14.823  11.217 -0.0516  0.1966  0.2433
  490POPI   GL2 7798  17.076  14.560  11.095 -0.0776 -0.0320  0.0095
  490POPI   C1A 7799  16.967  15.056  10.846  0.2056  0.0024  0.2430
  490POPI   D2A 7800  16.761  15.116  10.464  0.0288 -0.3197  0.2959
  490POPI   C3A 7801  16.908  15.123  10.068  0.0769  0.2529  0.1249
  490POPI   C4A 7802  16.868  15.150   9.670  0.1726  0.1005  0.1498
  490POPI   C1B 7803  17.147  14.561  10.728  0.1175 -0.0129 -0.0690
  490POPI   C2B 7804  17.099  14.721  10.333 -0.1784 -0.3579 -0.3179
  490POPI   C3B 7805  17.074  14.708   9.866  0.0611  0.1513  0.3654
  490POPI   C4B 7806  17.184  14.651   9.392 -0.2363 -0.1584 -0.1100
  491POPI    C1 7807   0.043   2.789  11.511  0.1174  0.1551  0.0241
  491POPI    C2 7808   0.155   3.170  11.557 -0.0832  0.2036  0.1204
  491POPI    C3 7809  -0.034   2.979  11.854 -0.1602  0.0908 -0.0001
  491POPI   PO4 7810  -0.010   2.791  11.208  0.0490 -0.1408 -0.0894
  491POPI   GL1 7811   0.087   2.585  10.895  0.2679  0.2020  0.1693
  491POPI   GL2 7812   0.112   2.280  10.824 -0.0621 -0.0616  0.3854
  491POPI   C1A 7813   0.235   2.760  10.569  0.1113  0.2323  0.1833
  491POPI   D2A 7814   0.462   2.851  10.218 -0.2365  0.4179  0.1483
  491POPI   C3A 7815   0.719   2.506  10.032  0.0535  0.1145 -0.0388
  491POPI   C4A 7816   0.931   2.288   9.679  0.5388  0.3236  0.0073
  491POPI   C1B 7817   0.080   2.336  10.381 -0.3780 -0.2099  0.0411
  491POPI   C2B 7818   0.218   2.338   9.999  0.0344  0.0963  0.0092
  491POPI   C3B 7819   0.378   2.428   9.550  0.4213 -0.1157 -0.1630
  491POPI   C4B 7820   0.483   2.177   9.206 -0.1634  0.0896 -0.0535
  492POPI    C1 7821   7.776   6.597  11.549 -0.1561  0.0288  0.0180
  492POPI    C2 7822   7.678   6.979  11.486  0.0698  0.1005  0.0921
  492POPI    C3 7823   7.473   6.762  11.752 -0.0629  0.1673  0.0456
  492POPI   PO4 7824   7.802   6.523  11.318  0.1098  0.0278  0.0342
  492POPI   GL1 7825   7.802   6.510  10.809  0.3203 -0.3155 -0.0357
  492POPI   GL2 7826   7.535   6.684  10.940 -0.0408  0.1232  0.0356
  492POPI   C1A 7827   7.827   6.565  10.386  0.1694 -0.0550 -0.2556
  492POPI   D2A 7828   7.892   6.594   9.966  0.0636  0.2596 -0.0946
  492POPI   C3A 7829   7.926   6.505   9.499 -0.5647  0.2129  0.2226
  492POPI   C4A 7830   7.939   6.671   9.060  0.0549 -0.3997 -0.1068
  492POPI   C1B 7831   7.380   6.633  10.500 -0.1132  0.0028  0.0944
  492POPI   C2B 7832   7.423   6.593  10.047  0.0552  0.1237  0.1160
  492POPI   C3B 7833   7.376   6.603   9.618 -0.1649 -0.0915 -0.0531
  492POPI   C4B 7834   7.427   6.613   9.164 -0.2594 -0.0612 -0.0088
  493POPI    C1 7835   8.447   4.565  11.780  0.0507 -0.3068 -0.0073
  493POPI    C2 7836   8.841   4.581  11.850  0.0009 -0.0350  0.2289
  493POPI    C3 7837   8.623   4.280  11.999  0.1099 -0.1596  0.1388
  493POPI   PO4 7838   8.432   4.648  11.506 -0.0937  0.0390  0.0003
  493POPI   GL1 7839   8.377   4.581  11.088 -0.2431  0.0734 -0.0792
  493POPI   GL2 7840   8.447   4.925  11.058 -0.0720  0.0885 -0.0548
  493POPI   C1A 7841   8.188   4.665  10.710  0.0212  0.1778 -0.1306
  493POPI   D2A 7842   8.192   4.709  10.421  0.1581 -0.1935 -0.3338
  493POPI   C3A 7843   8.238   4.696  10.015 -0.0959  0.2718 -0.1025
  493POPI   C4A 7844   8.214   4.799   9.517 -0.3442  0.2692 -0.1377
  493POPI   C1B 7845   8.484   5.079  10.713 -0.0455 -0.0575  0.1158
  493POPI   C2B 7846   8.511   5.113  10.253  0.0396 -0.1385 -0.0534
  493POPI   C3B 7847   8.531   5.128   9.838 -0.0857  0.1490  0.0791
  493POPI   C4B 7848   8.598   5.083   9.320  0.2389 -0.2396  0.4411
  494POPI    C1 7849   5.439   3.909  11.659 -0.0127 -0.0215  0.0878
  494POPI    C2 7850   5.785   3.945  11.856 -0.0523  0.0673  0.1417
  494POPI    C3 7851   5.471   3.772  12.033 -0.0473  0.0224  0.1070
  494POPI   PO4 7852   5.585   3.915  11.351 -0.1450 -0.1180 -0.4782
  494POPI   GL1 7853   5.760   3.627  11.094 -0.3807 -0.4147 -0.2351
  494POPI   GL2 7854   6.015   3.717  10.966 -0.0803 -0.1035 -0.2626
  494POPI   C1A 7855   5.665   3.434  10.758 -0.0801 -0.1406 -0.1417
  494POPI   D2A 7856   5.610   3.488  10.344  0.0465 -0.1592 -0.1789
  494POPI   C3A 7857   5.709   3.536   9.944 -0.2574 -0.2770 -0.0821
  494POPI   C4A 7858   5.747   3.631   9.507  0.1549 -0.0999  0.3160
  494POPI   C1B 7859   5.830   3.940  10.672 -0.1414 -0.1534  0.1060
  494POPI   C2B 7860   5.852   3.870  10.281 -0.2104 -0.2189  0.1018
  494POPI   C3B 7861   5.959   3.972   9.804  0.0149  0.2367  0.2027
  494POPI   C4B 7862   5.989   4.082   9.367 -0.0600  0.0822 -0.3348
  495POPI    C1 7863   1.479   8.684  11.920  0.0315  0.0338 -0.0810
  495POPI    C2 7864   1.434   8.306  12.041  0.0905  0.0247 -0.0869
  495POPI    C3 7865   1.776   8.499  12.114  0.1430  0.0051 -0.2757
  495POPI   PO4 7866   1.312   8.760  11.746  0.1136  0.1650  0.1538
  495POPI   GL1 7867   1.328   8.607  11.348 -0.5118  0.0522  0.1418
  495POPI   GL2 7868   1.175   8.834  11.263  0.2430  0.1683 -0.1234
  495POPI   C1A 7869   1.483   8.677  10.930  0.0726 -0.3815 -0.1300
  495POPI   D2A 7870   1.558   8.599  10.513  0.2833  0.0491 -0.1060
  495POPI   C3A 7871   1.449   8.764  10.125  0.0769 -0.0578 -0.0642
  495POPI   C4A 7872   1.356   8.635   9.678  0.1416  0.2760 -0.0586
  495POPI   C1B 7873   1.222   9.095  10.802 -0.2700  0.2967 -0.1358
  495POPI   C2B 7874   1.280   9.153  10.391 -0.0644 -0.2367  0.3345
  495POPI   C3B 7875   1.117   9.091  10.001  0.1176 -0.0380  0.2780
  495POPI   C4B 7876   1.189   9.104   9.504  0.1285 -0.1527  0.1727
  496POPI    C1 7877   4.216   1.696  11.669 -0.0783  0.0539  0.0546
  496POPI    C2 7878   4.373   2.022  11.838  0.1562 -0.0213 -0.0142
  496POPI    C3 7879   4.446   1.661  11.994 -0.0539 -0.0474  0.0270
  496POPI   PO4 7880   4.199   1.816  11.420 -0.0137  0.1434 -0.0028
  496POPI   GL1 7881   4.104   1.624  11.083 -0.0016 -0.4344 -0.1730
  496POPI   GL2 7882   4.213   1.345  11.015 -0.1819 -0.0135 -0.0828
  496POPI   C1A 7883   3.678   1.676  10.789 -0.1019  0.1456 -0.1521
  496POPI   D2A 7884   3.653   1.547  10.319 -0.4816 -0.1296 -0.0492
  496POPI   C3A 7885   3.832   1.549   9.961  0.1027  0.0687 -0.1935
  496POPI   C4A 7886   3.738   1.442   9.482  0.3060  0.0669 -0.1552
  496POPI   C1B 7887   4.100   1.456  10.584 -0.0560 -0.0876 -0.0556
  496POPI   C2B 7888   4.277   1.425  10.195 -0.0072 -0.2121  0.1478
  496POPI   C3B 7889   4.245   1.420   9.780 -0.1086 -0.1526 -0.2191
  496POPI   C4B 7890   4.219   1.499   9.332  0.1534 -0.0031  0.1212
  497POPI    C1 7891   9.051   3.775  11.606 -0.0449  0.0192 -0.1516
  497POPI    C2 7892   9.072   4.077  11.867 -0.0182  0.1062 -0.2541
  497POPI    C3 7893   8.821   3.773  11.934  0.0018  0.1191 -0.1181
  497POPI   PO4 7894   9.207   3.955  11.395  0.0551 -0.2293  0.0827
  497POPI   GL1 7895   9.407   3.802  10.996  0.0813  0.2219 -0.1945
  497POPI   GL2 7896   9.479   4.052  10.735 -0.1116  0.2383  0.1201
  497POPI   C1A 7897   9.144   3.649  10.559 -0.0114 -0.0711 -0.2716
  497POPI   D2A 7898   9.310   3.734  10.208 -0.0939  0.1319 -0.2522
  497POPI   C3A 7899   9.245   3.740   9.776 -0.4224  0.1706  0.3698
  497POPI   C4A 7900   9.157   3.708   9.305 -0.2070  0.3422 -0.3189
  497POPI   C1B 7901   9.559   4.124  10.350 -0.3722 -0.0945  0.2054
  497POPI   C2B 7902   9.480   4.213  10.004 -0.0790 -0.1079 -0.1611
  497POPI   C3B 7903   9.518   4.146   9.598 -0.1514 -0.3796  0.1535
  497POPI   C4B 7904   9.602   4.029   9.169 -0.2529  0.3281 -0.1040
  498POPI    C1 7905  11.854   7.032  11.632 -0.0105 -0.0865  0.0274
  498POPI    C2 7906  11.990   7.248  11.940 -0.0939  0.0451 -0.0274
  498POPI    C3 7907  11.921   6.857  11.985  0.1309  0.0132  0.0509
  498POPI   PO4 7908  11.897   7.245  11.404  0.1355  0.0467  0.4244
  498POPI   GL1 7909  11.962   7.132  10.972 -0.0039  0.0879 -0.1012
  498POPI   GL2 7910  11.920   6.817  10.874  0.0608  0.1207  0.1410
  498POPI   C1A 7911  12.049   7.152  10.503 -0.2757 -0.0735 -0.4020
  498POPI   D2A 7912  12.001   7.150   9.975  0.0941 -0.0271 -0.1289
  498POPI   C3A 7913  12.015   7.133   9.593  0.1882 -0.0123  0.1392
  498POPI   C4A 7914  11.991   7.060   9.109 -0.1413  0.0949 -0.1541
  498POPI   C1B 7915  11.764   6.735  10.365  0.1874 -0.3008 -0.0371
  498POPI   C2B 7916  11.704   6.630   9.887  0.0350  0.3191  0.0185
  498POPI   C3B 7917  11.723   6.737   9.446 -0.0222  0.0032 -0.1214
  498POPI   C4B 7918  11.619   6.427   9.137 -0.0980 -0.0175 -0.1358
  499POPI    C1 7919  10.850   3.533  11.769 -0.1041  0.1261 -0.0845
  499POPI    C2 7920  10.741   3.782  12.063  0.1047 -0.0059  0.1080
  499POPI    C3 7921  10.651   3.393  12.086 -0.0757  0.0204 -0.1131
  499POPI   PO4 7922  10.721   3.700  11.512  0.0281  0.2037  0.1608
  499POPI   GL1 7923  10.877   3.686  11.085  0.1875  0.3702  0.2326
  499POPI   GL2 7924  10.604   3.574  10.863  0.0306  0.1943 -0.4266
  499POPI   C1A 7925  10.991   3.664  10.587  0.1858  0.1393 -0.0667
  499POPI   D2A 7926  10.829   3.632  10.237 -0.2023 -0.0694 -0.1053
  499POPI   C3A 7927  10.868   3.686   9.805  0.0379 -0.0801 -0.0346
  499POPI   C4A 7928  10.791   3.582   9.404 -0.2472 -0.0062  0.0487
  499POPI   C1B 7929  10.324   3.610  10.573 -0.0718  0.1709  0.2094
  499POPI   C2B 7930  10.289   3.647  10.123 -0.2391  0.0806  0.1302
  499POPI   C3B 7931  10.247   3.715   9.771 -0.0477 -0.4321  0.1385
  499POPI   C4B 7932  10.261   3.699   9.369 -0.3984  0.2276 -0.0208
  500POPI    C1 7933  10.375   9.500  11.940  0.0550 -0.0731  0.0427
  500POPI    C2 7934  10.689   9.721  12.051  0.0250 -0.0257  0.0338
  500POPI    C3 7935  10.338   9.764  12.239  0.0111 -0.0438  0.0116
  500POPI   PO4 7936  10.389   9.531  11.644 -0.2717 -0.0471  0.0286
  500POPI   GL1 7937  10.329   9.755  11.264 -0.1292 -0.0162 -0.2098
  500POPI   GL2 7938  10.206  10.018  11.131 -0.0869  0.3847 -0.4821
  500POPI   C1A 7939  10.551   9.576  10.848  0.1452  0.3365 -0.0078
  500POPI   D2A 7940  10.544   9.544  10.406  0.0232  0.0157 -0.1196
  500POPI   C3A 7941  10.497   9.467  10.037  0.0542  0.0787 -0.3308
  500POPI   C4A 7942  10.450   9.541   9.676  0.1067  0.1805 -0.0664
  500POPI   C1B 7943  10.292  10.035  10.784 -0.2965 -0.6327 -0.2243
  500POPI   C2B 7944  10.397   9.987  10.380 -0.2812 -0.0548 -0.0214
  500POPI   C3B 7945  10.371   9.976  10.032  0.0150  0.0966  0.3155
  500POPI   C4B 7946  10.214   9.996   9.593 -0.2903  0.2117 -0.1758
  501POPI    C1 7947  13.718  12.205  11.500 -0.1090  0.2698 -0.1530
  501POPI    C2 7948  13.556  12.035  11.824 -0.1480 -0.0719 -0.3471
  501POPI    C3 7949  13.678  12.416  11.837 -0.2976 -0.0331  0.0184
  501POPI   PO4 7950  13.913  11.985  11.412  0.0252 -0.2053  0.2589
  501POPI   GL1 7951  14.125  11.944  11.028  0.0262 -0.1663 -0.2007
  501POPI   GL2 7952  14.267  11.612  10.983  0.2254 -0.0534  0.2497
  501POPI   C1A 7953  13.929  11.823  10.651  0.2777 -0.0975 -0.2169
  501POPI   D2A 7954  13.894  11.691  10.301 -0.0459  0.1494 -0.1657
  501POPI   C3A 7955  13.953  11.912   9.839  0.0335  0.2080  0.3422
  501POPI   C4A 7956  14.086  11.917   9.402  0.2076 -0.0357  0.1113
  501POPI   C1B 7957  14.396  11.764  10.586 -0.0311 -0.0144 -0.1193
  501POPI   C2B 7958  14.421  11.866  10.148 -0.0697 -0.2416 -0.1614
  501POPI   C3B 7959  14.486  11.892   9.725  0.2426  0.1896 -0.1899
  501POPI   C4B 7960  14.607  11.867   9.312 -0.0383  0.5057 -0.0479
  502POPI    C1 7961  14.884  16.712  11.789 -0.0562 -0.1444 -0.0106
  502POPI    C2 7962  14.876  17.089  11.653 -0.0373 -0.1505 -0.0286
  502POPI    C3 7963  15.003  17.013  12.025 -0.1846 -0.1233  0.0281
  502POPI   PO4 7964  14.954  16.544  11.571 -0.0013  0.1081  0.2082
  502POPI   GL1 7965  15.172  16.579  11.205  0.2039  0.0875  0.0541
  502POPI   GL2 7966  14.874  16.414  11.094 -0.0256 -0.1658  0.0019
  502POPI   C1A 7967  15.192  16.657  10.813 -0.1896 -0.0855 -0.0461
  502POPI   D2A 7968  15.243  16.747  10.392  0.2549 -0.1500  0.1005
  502POPI   C3A 7969  15.302  16.605   9.994 -0.1395 -0.2131 -0.0812
  502POPI   C4A 7970  15.220  16.637   9.604 -0.0223  0.2038 -0.0090
  502POPI   C1B 7971  14.857  16.201  10.720 -0.3666 -0.2093  0.0939
  502POPI   C2B 7972  14.960  16.307  10.275  0.0883  0.0746  0.0547
  502POPI   C3B 7973  14.930  16.216   9.966  0.0600 -0.0361 -0.1746
  502POPI   C4B 7974  14.933  16.203   9.486  0.2127  0.1655 -0.2973
  503POPI    C1 7975   5.410  15.128  11.858  0.1005 -0.1732 -0.3437
  503POPI    C2 7976   5.660  14.844  11.986 -0.1899 -0.1338  0.3632
  503POPI    C3 7977   5.267  14.806  12.048 -0.3045  0.1055 -0.1603
  503POPI   PO4 7978   5.503  15.201  11.557 -0.3101 -0.1356  0.4333
  503POPI   GL1 7979   5.598  15.192  11.164 -0.2022 -0.1022  0.4107
  503POPI   GL2 7980   5.730  15.451  11.077 -0.1281  0.0542 -0.1762
  503POPI   C1A 7981   5.488  15.119  10.756 -0.0804  0.1645  0.0030
  503POPI   D2A 7982   5.558  14.974  10.399  0.1272  0.1011 -0.2129
  503POPI   C3A 7983   5.517  15.096   9.991  0.1049 -0.0649  0.2281
  503POPI   C4A 7984   5.498  15.136   9.668 -0.0518  0.0151  0.1999
  503POPI   C1B 7985   5.787  15.466  10.680  0.0273  0.1395 -0.1356
  503POPI   C2B 7986   5.931  15.480  10.242 -0.2757 -0.1335  0.0423
  503POPI   C3B 7987   5.822  15.478   9.764 -0.1771 -0.5014 -0.1382
  503POPI   C4B 7988   5.803  15.563   9.293 -0.0998  0.0831 -0.1776
  504POPI    C1 7989  11.460   2.370  11.714  0.0351  0.0202  0.1229
  504POPI    C2 7990  11.713   2.596  11.502  0.1440 -0.1653  0.0521
  504POPI    C3 7991  11.656   2.670  11.891  0.1855 -0.0229  0.0315
  504POPI   PO4 7992  11.229   2.349  11.541 -0.4010  0.1282  0.1726
  504POPI   GL1 7993  11.139   2.233  11.144 -0.0506 -0.1164 -0.0156
  504POPI   GL2 7994  11.336   2.526  11.103  0.2423  0.1434  0.0033
  504POPI   C1A 7995  11.130   2.196  10.741 -0.3096  0.0507 -0.1375
  504POPI   D2A 7996  10.965   2.209  10.418 -0.2001 -0.2550 -0.0426
  504POPI   C3A 7997  11.042   2.314  10.011  0.2964 -0.1877 -0.2150
  504POPI   C4A 7998  10.982   2.288   9.536 -0.1268  0.2118  0.0017
  504POPI   C1B 7999  10.979   2.618  10.909  0.2128 -0.0858  0.0181
  504POPI   C2B 8000  10.836   2.745  10.583 -0.0554 -0.0523 -0.0657
  504POPI   C3B 8001  10.786   2.790  10.235 -0.0831  0.0407  0.0167
  504POPI   C4B 8002  10.772   2.723   9.764  0.0525  0.2765 -0.0600
  505POPI    C1 8003   0.532  17.231  11.786 -0.0173  0.2335 -0.0166
  505POPI    C2 8004   0.314  16.903  11.852 -0.0175  0.1584 -0.3696
  505POPI    C3 8005   0.259  17.228  12.078  0.0218 -0.0990  0.0205
  505POPI   PO4 8006   0.602  17.040  11.481  0.2426 -0.2782 -0.1939
  505POPI   GL1 8007   0.658  17.163  10.964  0.2218  0.2897 -0.2692
  505POPI   GL2 8008   0.656  16.771  11.097  0.3362  0.0042 -0.2371
  505POPI   C1A 8009   0.535  17.155  10.465  0.3056  0.0883 -0.1513
  505POPI   D2A 8010   0.644  17.242  10.066  0.2312 -0.2991  0.1049
  505POPI   C3A 8011   0.433  17.272   9.590  0.0237 -0.1523 -0.2982
  505POPI   C4A 8012   0.305  17.217   9.211  0.0603  0.0007 -0.1876
  505POPI   C1B 8013   0.788  16.770  10.651  0.3147  0.0161 -0.1083
  505POPI   C2B 8014   0.786  16.784  10.209 -0.3068 -0.1897  0.0659
  505POPI   C3B 8015   0.803  16.831   9.791 -0.0272 -0.0621  0.0562
  505POPI   C4B 8016   0.748  16.908   9.351  0.3702 -0.1544 -0.1830
  506POPI    C1 8017  15.065   2.812  11.699 -0.1113  0.1354 -0.0209
  506POPI    C2 8018  14.811   2.583  11.907 -0.1324  0.3305  0.1715
  506POPI    C3 8019  15.157   2.698  12.072  0.0298  0.1635 -0.0464
  506POPI   PO4 8020  14.819   2.950  11.552 -0.2031 -0.1709  0.0402
  506POPI   GL1 8021  14.855   2.954  11.109  0.1873  0.0549 -0.0023
  506POPI   GL2 8022  15.042   3.200  10.774 -0.1762 -0.0463  0.0073
  506POPI   C1A 8023  14.819   2.791  10.625 -0.0901  0.1234  0.0097
  506POPI   D2A 8024  14.866   2.747  10.292 -0.2626  0.2267  0.1210
  506POPI   C3A 8025  14.779   2.625   9.909  0.0860 -0.0962  0.0943
  506POPI   C4A 8026  14.911   2.504   9.503  0.1770 -0.0478  0.0348
  506POPI   C1B 8027  15.170   3.075  10.373 -0.3633  0.1904 -0.0251
  506POPI   C2B 8028  15.121   3.007   9.962 -0.1743  0.1159  0.0839
  506POPI   C3B 8029  15.111   2.953   9.578  0.1121 -0.0292 -0.0305
  506POPI   C4B 8030  15.167   2.975   9.112 -0.6523  0.1865 -0.0685
  507POPI    C1 8031  17.130  17.016  11.247  0.0732 -0.2201 -0.0117
  507POPI    C2 8032  17.357  17.216  11.508 -0.0735  0.0156 -0.0612
  507POPI    C3 8033  17.503  17.119  11.148 -0.0615  0.1981 -0.1066
  507POPI   PO4 8034  17.056  16.726  11.302  0.3352  0.3969 -0.1809
  507POPI   GL1 8035  16.886  16.396  11.147 -0.1410  0.0998 -0.1502
  507POPI   GL2 8036  16.640  16.142  11.087 -0.2029 -0.0124 -0.0954
  507POPI   C1A 8037  16.829  16.362  10.655 -0.3998 -0.5169  0.1113
  507POPI   D2A 8038  16.747  16.434  10.224  0.0171  0.0643 -0.0493
  507POPI   C3A 8039  16.864  16.413   9.795 -0.1162  0.0958  0.0863
  507POPI   C4A 8040  16.997  16.772   9.476 -0.1335 -0.0062 -0.2296
  507POPI   C1B 8041  16.446  16.053  10.682  0.1127 -0.0346  0.2858
  507POPI   C2B 8042  16.450  15.992  10.211  0.2429 -0.0146 -0.1477
  507POPI   C3B 8043  16.496  16.082   9.893 -0.0486  0.0037 -0.0550
  507POPI   C4B 8044  16.606  16.045   9.368 -0.0942  0.0171  0.2605
  508POPI    C1 8045   4.322  13.205  11.783  0.2521 -0.1487  0.0241
  508POPI    C2 8046   4.124  13.273  12.124  0.0559 -0.1979 -0.0788
  508POPI    C3 8047   4.380  12.967  12.099  0.2010 -0.0911  0.0773
  508POPI   PO4 8048   4.143  13.173  11.574 -0.0646  0.0001  0.0190
  508POPI   GL1 8049   4.140  13.135  11.205  0.0216  0.1972  0.1649
  508POPI   GL2 8050   3.928  13.029  11.041  0.1630  0.0813  0.1064
  508POPI   C1A 8051   4.308  13.343  10.896  0.2115 -0.1745  0.1512
  508POPI   D2A 8052   4.587  13.321  10.536  0.3299  0.0983  0.1204
  508POPI   C3A 8053   4.400  13.357  10.217 -0.0386 -0.3361 -0.0498
  508POPI   C4A 8054   4.238  13.378   9.818  0.0752  0.2924 -0.1441
  508POPI   C1B 8055   4.038  13.092  10.593  0.3321  0.0192 -0.1250
  508POPI   C2B 8056   3.948  13.058  10.180 -0.1648  0.0075 -0.1541
  508POPI   C3B 8057   3.955  12.932   9.752  0.0562  0.4408 -0.1524
  508POPI   C4B 8058   3.917  12.834   9.315 -0.2579 -0.2217 -0.0345
  509POPI    C1 8059  17.019  15.817  11.933  0.0078  0.1842  0.1771
  509POPI    C2 8060  16.755  15.672  12.196 -0.0296 -0.2406 -0.0856
  509POPI    C3 8061  17.084  15.860  12.325 -0.1784 -0.2074  0.2555
  509POPI   PO4 8062  17.093  15.694  11.698  0.1051 -0.2288 -0.2542
  509POPI   GL1 8063  17.045  15.856  11.268  0.1582 -0.0646  0.0945
  509POPI   GL2 8064  17.315  15.740  11.272  0.2036  0.1111 -0.2548
  509POPI   C1A 8065  17.054  15.934  10.819  0.1091 -0.1547  0.0730
  509POPI   D2A 8066  16.971  15.946  10.426 -0.0950 -0.0025 -0.3413
  509POPI   C3A 8067  16.976  15.988  10.009  0.2202 -0.0860 -0.1482
  509POPI   C4A 8068  17.000  15.927   9.599  0.2138 -0.2062  0.1544
  509POPI   C1B 8069  17.580  15.861  10.974  0.1006 -0.0410  0.3424
  509POPI   C2B 8070  17.514  15.847  10.533  0.0883 -0.3074  0.0634
  509POPI   C3B 8071  17.458  15.923  10.123 -0.0739  0.0459 -0.0025
  509POPI   C4B 8072  17.487  15.924   9.676 -0.1059  0.0334  0.0685
  510POPI    C1 8073  12.884  15.281  12.013 -0.4112  0.1294 -0.0520
  510POPI    C2 8074  12.741  15.024  12.284 -0.0962  0.1313  0.1210
  510POPI    C3 8075  12.863  15.387  12.398  0.0800  0.1162 -0.0148
  510POPI   PO4 8076  12.760  15.099  11.740 -0.0358 -0.1152  0.2816
  510POPI   GL1 8077  13.055  14.997  11.219 -0.0184 -0.1799  0.3740
  510POPI   GL2 8078  13.171  14.658  11.211  0.4247 -0.3473  0.3891
  510POPI   C1A 8079  12.956  15.171  10.846  0.0655 -0.0748 -0.1745
  510POPI   D2A 8080  12.854  15.306  10.581 -0.4983  0.1388  0.0831
  510POPI   C3A 8081  13.068  15.193  10.232  0.0143 -0.0576  0.0561
  510POPI   C4A 8082  12.885  15.281   9.857  0.2432  0.0368 -0.1323
  510POPI   C1B 8083  13.213  14.751  10.735 -0.1368  0.1504  0.2123
  510POPI   C2B 8084  13.249  14.716  10.223 -0.2057 -0.0398  0.2594
  510POPI   C3B 8085  13.147  14.874   9.744 -0.0609 -0.0829  0.2401
  510POPI   C4B 8086  13.134  14.797   9.266  0.0799 -0.0967 -0.2488
  511POPI    C1 8087  13.229   5.950  11.366 -0.4135  0.2685 -0.0002
  511POPI    C2 8088  13.159   6.233  11.641 -0.1899 -0.0814  0.4286
  511POPI    C3 8089  13.501   6.024  11.651 -0.1074  0.0040 -0.2166
  511POPI   PO4 8090  13.122   6.063  11.148  0.1291 -0.3237 -0.0759
  511POPI   GL1 8091  13.146   6.386  10.774  0.0884  0.1454 -0.1420
  511POPI   GL2 8092  13.266   6.065  10.649  0.1898 -0.1642 -0.4624
  511POPI   C1A 8093  13.133   6.675  10.385  0.0412 -0.0885 -0.1628
  511POPI   D2A 8094  12.964   6.931  10.025 -0.0964  0.1504  0.0594
  511POPI   C3A 8095  13.013   6.966   9.553  0.2757  0.0497  0.5210
  511POPI   C4A 8096  13.021   7.124   9.185  0.0945 -0.4002 -0.0747
  511POPI   C1B 8097  13.061   6.165  10.296 -0.2359 -0.1157 -0.1636
  511POPI   C2B 8098  13.077   6.397   9.943  0.2418  0.2140 -0.2905
  511POPI   C3B 8099  13.180   6.512   9.512 -0.0026  0.1427 -0.0134
  511POPI   C4B 8100  13.349   6.530   9.069  0.3577  0.0476  0.0630
  512POPI    C1 8101   9.761   1.397  11.674 -0.1762 -0.2482  0.2745
  512POPI    C2 8102   9.558   1.738  11.626 -0.0753 -0.1926  0.2393
  512POPI    C3 8103   9.903   1.738  11.829  0.1142 -0.2038 -0.0775
  512POPI   PO4 8104   9.760   1.296  11.429 -0.1358  0.0320  0.1875
  512POPI   GL1 8105   9.850   1.487  11.083 -0.1249  0.0014 -0.0985
  512POPI   GL2 8106  10.128   1.169  11.126 -0.2550  0.0533 -0.0982
  512POPI   C1A 8107   9.930   1.517  10.662 -0.0704 -0.0053  0.0774
  512POPI   D2A 8108   9.975   1.502  10.205 -0.2762  0.1719 -0.2884
  512POPI   C3A 8109   9.852   1.367   9.805  0.0655  0.3391  0.2473
  512POPI   C4A 8110   9.798   1.428   9.332 -0.0410  0.1134  0.0101
  512POPI   C1B 8111  10.059   1.010  10.780 -0.1036 -0.2639  0.0364
  512POPI   C2B 8112  10.096   0.981  10.404 -0.0951  0.0538 -0.3470
  512POPI   C3B 8113  10.110   0.950   9.986 -0.2454  0.3552  0.1853
  512POPI   C4B 8114  10.180   1.099   9.509  0.1067  0.2249  0.2533
  513POPI    C1 8115  15.994   5.934  11.401  0.1566  0.1188  0.0739
  513POPI    C2 8116  15.666   5.863  11.619  0.0830 -0.0917 -0.1021
  513POPI    C3 8117  15.902   6.173  11.708 -0.1363  0.0322  0.0568
  513POPI   PO4 8118  15.894   5.960  11.164 -0.2220  0.2023  0.0274
  513POPI   GL1 8119  15.875   5.808  10.883  0.0421 -0.0888 -0.2129
  513POPI   GL2 8120  16.052   5.634  10.789  0.3413  0.2050  0.0187
  513POPI   C1A 8121  15.571   5.873  10.548  0.1418 -0.0984 -0.2414
  513POPI   D2A 8122  15.363   5.883  10.200  0.0336 -0.1115  0.2095
  513POPI   C3A 8123  15.533   5.838   9.775  0.0131  0.2453 -0.0793
  513POPI   C4A 8124  15.557   5.859   9.407 -0.0718  0.1550  0.1254
  513POPI   C1B 8125  16.075   5.838  10.358  0.1629  0.0783 -0.1398
  513POPI   C2B 8126  16.036   5.769   9.880 -0.2693  0.0670  0.2696
  513POPI   C3B 8127  16.081   5.748   9.468 -0.2542  0.0225 -0.0899
  513POPI   C4B 8128  16.068   5.805   9.041 -0.2870 -0.1338  0.0163
  514POPI    C1 8129  14.523   6.045  11.396  0.1417  0.2823 -0.0345
  514POPI    C2 8130  14.803   5.948  11.665  0.2116  0.0316 -0.1937
  514POPI    C3 8131  14.437   6.058  11.786  0.3570  0.3003  0.0135
  514POPI   PO4 8132  14.623   6.247  11.320  0.3342 -0.2392 -0.0250
  514POPI   GL1 8133  14.689   6.302  10.944 -0.0756 -0.2168  0.2558
  514POPI   GL2 8134  14.599   6.581  10.810 -0.2440  0.0300  0.2963
  514POPI   C1A 8135  14.802   6.319  10.439 -0.3805 -0.2122  0.0135
  514POPI   D2A 8136  14.733   6.271  10.049 -0.3963  0.1810 -0.1876
  514POPI   C3A 8137  14.741   6.354   9.578  0.1213 -0.1267 -0.1592
  514POPI   C4A 8138  14.858   6.377   9.148 -0.1915 -0.0093  0.0523
  514POPI   C1B 8139  14.562   6.796  10.416 -0.3078 -0.1144  0.2058
  514POPI   C2B 8140  14.586   6.881  10.053 -0.0677  0.1959  0.0235
  514POPI   C3B 8141  14.539   6.865   9.602  0.1183 -0.0870 -0.1335
  514POPI   C4B 8142  14.565   6.822   9.156 -0.1696  0.1373  0.0063
  515POPI    C1 8143  11.828   0.726  11.618 -0.0390 -0.3278 -0.0050
  515POPI    C2 8144  12.094   0.818  11.902  0.1355  0.1325 -0.3046
  515POPI    C3 8145  11.707   0.909  11.952  0.1158 -0.0572 -0.0941
  515POPI   PO4 8146  11.883   0.667  11.468  0.1714 -0.0182 -0.1502
  515POPI   GL1 8147  12.103   0.454  11.262 -0.0648  0.4362 -0.1572
  515POPI   GL2 8148  12.357   0.390  11.173 -0.1092  0.2241  0.1582
  515POPI   C1A 8149  11.827   0.420  10.842 -0.2884  0.2857 -0.0090
  515POPI   D2A 8150  11.770   0.424  10.388 -0.1539 -0.0328  0.2852
  515POPI   C3A 8151  11.832   0.329   9.975 -0.0742 -0.1960  0.6492
  515POPI   C4A 8152  11.951   0.252   9.600  0.0094  0.3267 -0.0285
  515POPI   C1B 8153  12.356   0.286  10.761  0.0002 -0.3371 -0.0495
  515POPI   C2B 8154  12.405   0.185  10.335  0.3890  0.1795 -0.3316
  515POPI   C3B 8155  12.346   0.298   9.962  0.0140 -0.0572 -0.3249
  515POPI   C4B 8156  12.414   0.296   9.519 -0.1904  0.0024 -0.1885
  516POPI    C1 8157   6.057  15.175  11.554  0.1061 -0.0579 -0.0401
  516POPI    C2 8158   6.062  15.564  11.648  0.0970 -0.0756  0.0344
  516POPI    C3 8159   5.876  15.303  11.887 -0.2631 -0.0700 -0.2303
  516POPI   PO4 8160   6.010  15.170  11.407 -0.0076 -0.1206  0.2235
  516POPI   GL1 8161   6.057  15.014  11.030  0.2940 -0.0304 -0.1510
  516POPI   GL2 8162   6.254  14.787  11.264  0.0298  0.0316  0.1476
  516POPI   C1A 8163   6.036  15.050  10.616  0.1105  0.3578 -0.2016
  516POPI   D2A 8164   6.060  14.989  10.219 -0.0481 -0.1406  0.0604
  516POPI   C3A 8165   6.044  14.993   9.757  0.3047 -0.2772 -0.1838
  516POPI   C4A 8166   5.785  15.015   9.311 -0.0184  0.0431  0.2298
  516POPI   C1B 8167   6.317  14.672  10.859 -0.1584 -0.0801  0.2615
  516POPI   C2B 8168   6.349  14.515  10.421  0.2444 -0.1609  0.0566
  516POPI   C3B 8169   6.279  14.571   9.905 -0.0111 -0.0963 -0.1825
  516POPI   C4B 8170   6.212  14.548   9.474  0.1556  0.0130  0.1538
  517POPI    C1 8171   9.319  15.797  11.618  0.2986 -0.0100 -0.2117
  517POPI    C2 8172   9.559  15.490  11.710 -0.0428 -0.2586 -0.1318
  517POPI    C3 8173   9.454  15.753  11.992  0.1245 -0.1556 -0.1644
  517POPI   PO4 8174   9.352  15.689  11.308  0.2475 -0.4810  0.0225
  517POPI   GL1 8175   9.443  15.628  10.920 -0.0576  0.2208  0.0938
  517POPI   GL2 8176   9.763  15.639  10.903  0.1044  0.2497  0.0901
  517POPI   C1A 8177   9.278  15.652  10.465 -0.1654 -0.0452  0.2975
  517POPI   D2A 8178   9.300  15.623  10.099 -0.2226  0.0149  0.0728
  517POPI   C3A 8179   9.271  15.567   9.699  0.0068 -0.0665  0.1568
  517POPI   C4A 8180   9.364  15.608   9.276  0.2460 -0.0759 -0.4893
  517POPI   C1B 8181   9.913  15.553  10.561  0.0158  0.3855  0.0524
  517POPI   C2B 8182   9.824  15.531  10.135  0.1259 -0.0269  0.0448
  517POPI   C3B 8183   9.804  15.636   9.711 -0.2445  0.0919  0.1694
  517POPI   C4B 8184   9.842  15.698   9.325  0.3228 -0.3190  0.1779
  518POPI    C1 8185   0.872   6.077  11.433  0.0659  0.2389 -0.1208
  518POPI    C2 8186   0.498   6.164  11.544  0.0184 -0.2017  0.0856
  518POPI    C3 8187   0.773   6.078  11.821  0.2927  0.1776 -0.0611
  518POPI   PO4 8188   0.787   6.156  11.120 -0.5234  0.0329 -0.1484
  518POPI   GL1 8189   0.520   6.242  10.811 -0.0900  0.2160  0.0613
  518POPI   GL2 8190   0.337   6.391  10.740 -0.2883 -0.0941 -0.1412
  518POPI   C1A 8191   0.556   5.929  10.457  0.1518 -0.0197 -0.1288
  518POPI   D2A 8192   0.650   6.005  10.031 -0.0929  0.2116 -0.1678
  518POPI   C3A 8193   0.686   5.897   9.616 -0.1304 -0.0926 -0.3349
  518POPI   C4A 8194   0.733   5.889   9.195 -0.0499 -0.0658 -0.0756
  518POPI   C1B 8195   0.444   6.445  10.300 -0.3361 -0.0250 -0.1244
  518POPI   C2B 8196   0.406   6.518   9.807  0.0266  0.0487  0.2299
  518POPI   C3B 8197   0.302   6.472   9.343 -0.1462  0.0806 -0.0756
  518POPI   C4B 8198   0.378   6.670   8.983  0.0721  0.0193  0.0726
  519POPI    C1 8199   9.343  12.712  11.304 -0.1269  0.2810 -0.0231
  519POPI    C2 8200   9.190  12.658  11.669 -0.0202  0.0656 -0.0081
  519POPI    C3 8201   9.570  12.557  11.595 -0.0706  0.0157 -0.2040
  519POPI   PO4 8202   9.157  12.822  11.180  0.1659 -0.1645 -0.0771
  519POPI   GL1 8203   9.240  13.043  10.761 -0.0138  0.2163  0.1744
  519POPI   GL2 8204   9.582  13.007  10.860 -0.1050  0.0934 -0.0720
  519POPI   C1A 8205   9.234  13.072  10.331  0.2564 -0.1567 -0.1031
  519POPI   D2A 8206   9.254  13.289   9.959  0.0918  0.2124  0.4330
  519POPI   C3A 8207   9.042  12.967   9.721 -0.4662  0.0911 -0.1024
  519POPI   C4A 8208   8.942  12.867   9.360 -0.1141 -0.0581  0.1277
  519POPI   C1B 8209   9.635  12.776  10.537 -0.0519  0.2047 -0.0638
  519POPI   C2B 8210   9.557  12.875  10.023  0.0303 -0.0117 -0.1498
  519POPI   C3B 8211   9.543  12.861   9.580 -0.0223  0.0872  0.2234
  519POPI   C4B 8212   9.485  12.770   9.236  0.2704  0.0231  0.0232
  520POPI    C1 8213   9.562  14.356  11.695  0.2522  0.2081 -0.2264
  520POPI    C2 8214   9.261  14.581  11.832  0.1523 -0.1125  0.0993
  520POPI    C3 8215   9.609  14.573  12.028  0.2248 -0.0855 -0.0269
  520POPI   PO4 8216   9.644  14.428  11.430  0.1458  0.3087  0.0392
  520POPI   GL1 8217   9.723  14.332  10.898 -0.1906 -0.1165 -0.5026
  520POPI   GL2 8218   9.450  14.246  11.013  0.0609 -0.0400 -0.5060
  520POPI   C1A 8219  10.022  14.272  10.546  0.2145 -0.1965  0.1521
  520POPI   D2A 8220   9.928  14.249  10.051  0.1064 -0.1753  0.0269
  520POPI   C3A 8221   9.962  14.047   9.693  0.2346 -0.0852  0.0288
  520POPI   C4A 8222   9.803  14.101   9.316  0.2190 -0.0968 -0.3449
  520POPI   C1B 8223   9.339  14.130  10.663 -0.0334  0.1599  0.2035
  520POPI   C2B 8224   9.413  14.192  10.242 -0.1044  0.1837 -0.4888
  520POPI   C3B 8225   9.388  14.142   9.846  0.1783  0.1289  0.3146
  520POPI   C4B 8226   9.339  14.166   9.432  0.1386 -0.2606  0.0847
  521POPI    C1 8227   0.665   3.563  11.802  0.0501  0.1212  0.0065
  521POPI    C2 8228   0.760   3.951  11.829  0.0559  0.1150  0.0781
  521POPI    C3 8229   0.483   3.796  12.072  0.0802  0.0660  0.0746
  521POPI   PO4 8230   0.580   3.512  11.509  0.1561 -0.1547 -0.0472
  521POPI   GL1 8231   0.680   3.280  11.124 -0.0230 -0.2598  0.0241
  521POPI   GL2 8232   0.711   3.566  11.047 -0.4252 -0.1688  0.1337
  521POPI   C1A 8233   0.682   3.099  10.713  0.2641  0.1065 -0.1406
  521POPI   D2A 8234   0.643   3.269  10.290  0.2180 -0.1599  0.2061
  521POPI   C3A 8235   0.862   3.115   9.944 -0.1705  0.2276  0.2570
  521POPI   C4A 8236   0.674   2.888   9.672 -0.0638 -0.1001  0.2440
  521POPI   C1B 8237   0.948   3.531  10.600  0.0987  0.0795  0.1082
  521POPI   C2B 8238   1.092   3.550  10.219 -0.0149  0.0963 -0.1797
  521POPI   C3B 8239   1.214   3.550   9.817  0.0580 -0.4718  0.4539
  521POPI   C4B 8240   1.289   3.612   9.361 -0.1260  0.0222 -0.1579
  522POPI    C1 8241   7.143   0.255  11.698  0.1032  0.1157 -0.2927
  522POPI    C2 8242   7.491   0.213  11.890 -0.0404  0.1845 -0.0120
  522POPI    C3 8243   7.264  -0.108  11.815  0.0064  0.1600 -0.0490
  522POPI   PO4 8244   7.230   0.367  11.476  0.0538 -0.0339 -0.0237
  522POPI   GL1 8245   7.323   0.218  11.090 -0.2692 -0.0745  0.1185
  522POPI   GL2 8246   7.061   0.109  11.133 -0.1681 -0.0546 -0.0154
  522POPI   C1A 8247   7.439   0.248  10.685  0.2154 -0.3415 -0.0035
  522POPI   D2A 8248   7.481   0.266  10.309 -0.0742  0.0389 -0.0786
  522POPI   C3A 8249   7.255   0.283   9.882 -0.0661  0.1194  0.2422
  522POPI   C4A 8250   7.311   0.330   9.404 -0.2218 -0.0763 -0.2020
  522POPI   C1B 8251   6.861   0.243  10.753 -0.3430 -0.1989  0.3607
  522POPI   C2B 8252   6.851   0.235  10.271  0.2309 -0.1696  0.0762
  522POPI   C3B 8253   6.744   0.260   9.801  0.1859  0.1851  0.0315
  522POPI   C4B 8254   6.838   0.269   9.323 -0.0914 -0.2437  0.1132
  523POPI    C1 8255  17.084   3.457  11.367  0.3292  0.0434 -0.0569
  523POPI    C2 8256  16.912   3.326  11.704 -0.2979  0.1438 -0.3236
  523POPI    C3 8257  17.230   3.568  11.723 -0.3425  0.1725  0.1927
  523POPI   PO4 8258  17.164   3.290  11.198 -0.1743  0.0325  0.0097
  523POPI   GL1 8259  17.010   3.250  10.707 -0.1254  0.0568  0.0451
  523POPI   GL2 8260  17.142   3.017  10.732  0.1397 -0.3441  0.0152
  523POPI   C1A 8261  16.992   3.315  10.256  0.2412  0.2429 -0.1208
  523POPI   D2A 8262  17.136   3.391   9.767  0.1603  0.0524 -0.1098
  523POPI   C3A 8263  17.440   3.691   9.618 -0.0785  0.0866 -0.3966
  523POPI   C4A 8264  17.755   3.724   9.293 -0.1921 -0.2692  0.0065
  523POPI   C1B 8265  17.472   3.256  10.465  0.3337  0.2431  0.0173
  523POPI   C2B 8266  17.626   3.268   9.945 -0.1147 -0.0828 -0.1473
  523POPI   C3B 8267  17.812   3.302   9.604  0.0492  0.1213  0.3665
  523POPI   C4B 8268  17.722   3.251   9.142 -0.1766  0.0982 -0.0174
  524DPPI    C1 8269   6.529  15.683  11.978 -0.0218  0.0917 -0.1343
  524DPPI    C2 8270   6.322  15.381  12.141  0.2232 -0.0658 -0.1100
  524DPPI    C3 8271   6.226  15.760  12.228  0.2137 -0.1441  0.2332
  524DPPI   PO4 8272   6.573  15.610  11.692 -0.0385 -0.2377 -0.0648
  524DPPI   GL1 8273   6.592  15.885  11.194 -0.1413  0.2692 -0.0933
  524DPPI   GL2 8274   6.709  15.716  11.025  0.2606  0.1638 -0.0889
  524DPPI   C1A 8275   6.466  16.242  10.887  0.1047  0.0455 -0.0646
  524DPPI   C2A 8276   6.438  16.288  10.430  0.0330  0.0478  0.0915
  524DPPI   C3A 8277   6.455  16.384  10.012 -0.0677  0.2585  0.0569
  524DPPI   C4A 8278   6.430  16.321   9.661  0.0780  0.0992 -0.1616
  524DPPI   C1B 8279   6.654  15.874  10.618  0.2808 -0.0888  0.2223
  524DPPI   C2B 8280   6.617  15.847  10.215 -0.1121  0.2475  0.1380
  524DPPI   C3B 8281   6.612  15.775   9.838  0.1132 -0.0103 -0.2823
  524DPPI   C4B 8282   6.676  15.860   9.505  0.2579 -0.4508  0.1873
  525DPPI    C1 8283  13.962   1.278  11.386  0.0086  0.0452  0.1120
  525DPPI    C2 8284  14.281   1.490  11.503  0.0998 -0.1537  0.2292
  525DPPI    C3 8285  14.331   1.131  11.332 -0.0436  0.0145 -0.1783
  525DPPI   PO4 8286  13.813   1.393  11.233  0.2610 -0.1855 -0.0074
  525DPPI   GL1 8287  13.747   1.476  10.738 -0.1236  0.4670  0.1514
  525DPPI   GL2 8288  13.773   1.833  10.777 -0.1361  0.0421  0.0515
  525DPPI   C1A 8289  13.850   1.373  10.348  0.1041  0.0261 -0.1215
  525DPPI   C2A 8290  13.955   1.326   9.909 -0.2484  0.1136  0.1701
  525DPPI   C3A 8291  14.050   1.399   9.578 -0.1380 -0.1777  0.1943
  525DPPI   C4A 8292  13.905   1.335   9.135 -0.0924  0.3091 -0.2058
  525DPPI   C1B 8293  13.729   1.931  10.312  0.1135 -0.0830  0.3749
  525DPPI   C2B 8294  13.694   1.820   9.883  0.2011  0.1092 -0.5052
  525DPPI   C3B 8295  13.802   1.805   9.393 -0.0288 -0.1196  0.2842
  525DPPI   C4B 8296  13.981   1.810   8.924 -0.0976  0.0711  0.1519
  526DPPI    C1 8297   5.539  13.568  11.496 -0.1163  0.0928  0.3046
  526DPPI    C2 8298   5.191  13.416  11.623 -0.0354 -0.1028  0.2964
  526DPPI    C3 8299   5.528  13.205  11.665  0.0617  0.0265  0.1768
  526DPPI   PO4 8300   5.445  13.683  11.225  0.0705  0.0604 -0.1053
  526DPPI   GL1 8301   5.444  14.057  10.951  0.0294 -0.1148  0.2121
  526DPPI   GL2 8302   5.144  14.220  10.932  0.2978  0.1075 -0.3630
  526DPPI   C1A 8303   5.469  14.119  10.579  0.1778 -0.0290 -0.2413
  526DPPI   C2A 8304   5.526  14.182  10.115 -0.0375 -0.2494  0.2031
  526DPPI   C3A 8305   5.430  14.172   9.635  0.2772  0.4183  0.0795
  526DPPI   C4A 8306   5.233  14.222   9.249 -0.0499 -0.3533 -0.2811
  526DPPI   C1B 8307   4.943  14.187  10.515  0.2133 -0.0622  0.0486
  526DPPI   C2B 8308   4.985  14.253  10.094  0.0669  0.0909  0.0531
  526DPPI   C3B 8309   4.908  14.180   9.645 -0.1950  0.0907 -0.1630
  526DPPI   C4B 8310   4.606  14.134   9.192 -0.2274  0.1422  0.3222
  527DPPI    C1 8311   7.964  16.302  11.723 -0.1994  0.0819  0.0676
  527DPPI    C2 8312   8.195  16.087  11.970 -0.2873  0.0457  0.1185
  527DPPI    C3 8313   8.265  16.478  11.921  0.0592 -0.0503 -0.2000
  527DPPI   PO4 8314   7.982  16.231  11.484 -0.2484  0.1506 -0.1373
  527DPPI   GL1 8315   8.057  16.434  11.088  0.1082 -0.3049  0.1709
  527DPPI   GL2 8316   8.157  16.174  11.010  0.1968  0.0636  0.1033
  527DPPI   C1A 8317   7.887  16.669  10.767 -0.0637 -0.0183 -0.0328
  527DPPI   C2A 8318   7.822  16.633  10.406  0.0356 -0.1015  0.1911
  527DPPI   C3A 8319   7.806  16.735  10.025 -0.1869 -0.1244  0.1870
  527DPPI   C4A 8320   7.800  16.626   9.584  0.1030  0.1787  0.1873
  527DPPI   C1B 8321   8.017  16.204  10.600 -0.1500  0.1845 -0.1718
  527DPPI   C2B 8322   7.939  16.242  10.135  0.0757  0.1337  0.1363
  527DPPI   C3B 8323   8.010  16.187   9.726 -0.1477 -0.3692  0.1371
  527DPPI   C4B 8324   8.088  16.148   9.327  0.0322 -0.3629 -0.0170
  528DPPI    C1 8325  12.345  13.711  11.756 -0.0284 -0.1431 -0.2875
  528DPPI    C2 8326  12.149  13.594  12.085  0.1504 -0.1749 -0.1911
  528DPPI    C3 8327  12.022  13.913  11.880  0.2924  0.1147  0.1607
  528DPPI   PO4 8328  12.375  13.506  11.645  0.0886 -0.3553  0.4442
  528DPPI   GL1 8329  12.451  13.547  11.150  0.0859 -0.1467  0.2430
  528DPPI   GL2 8330  12.732  13.552  10.928 -0.0137 -0.1904  0.0456
  528DPPI   C1A 8331  12.311  13.505  10.710  0.3296  0.2121 -0.0414
  528DPPI   C2A 8332  12.226  13.524  10.295  0.1035 -0.1605 -0.0134
  528DPPI   C3A 8333  12.205  13.422   9.932  0.3262  0.1681  0.2314
  528DPPI   C4A 8334  12.297  13.511   9.609  0.0719  0.0498  0.0075
  528DPPI   C1B 8335  12.729  13.541  10.482 -0.2281  0.0606  0.0023
  528DPPI   C2B 8336  12.766  13.420   9.965  0.1360  0.1042 -0.1385
  528DPPI   C3B 8337  12.837  13.449   9.537  0.1834  0.1050  0.2123
  528DPPI   C4B 8338  12.585  13.430   9.139  0.2313 -0.0441 -0.2513
  529DPPI    C1 8339   3.325   5.571  11.670  0.0725 -0.0762 -0.0240
  529DPPI    C2 8340   3.024   5.308  11.654 -0.1175  0.1363  0.0110
  529DPPI    C3 8341   3.128   5.471  12.004 -0.0105  0.1200 -0.0131
  529DPPI   PO4 8342   3.310   5.662  11.431 -0.0678 -0.1727  0.2329
  529DPPI   GL1 8343   3.311   5.797  10.984  0.1212 -0.0570  0.3423
  529DPPI   GL2 8344   3.458   5.994  11.028  0.2276  0.2211 -0.1714
  529DPPI   C1A 8345   3.201   5.725  10.549  0.0069  0.1654 -0.2430
  529DPPI   C2A 8346   3.215   5.699  10.114  0.2618  0.3300 -0.1598
  529DPPI   C3A 8347   3.235   5.737   9.657 -0.1269 -0.2716  0.0956
  529DPPI   C4A 8348   3.279   5.509   9.215  0.2418  0.0916 -0.1750
  529DPPI   C1B 8349   3.452   6.207  10.575 -0.3373 -0.2151  0.0885
  529DPPI   C2B 8350   3.436   6.196  10.195  0.1136  0.2620 -0.0360
  529DPPI   C3B 8351   3.468   6.168   9.684 -0.0707  0.0243  0.0825
  529DPPI   C4B 8352   3.375   6.101   9.274 -0.1374 -0.0613  0.1807
  530DPPI    C1 8353  12.573   1.964  11.546  0.1437  0.1227  0.2402
  530DPPI    C2 8354  12.250   1.837  11.745  0.0464  0.0152  0.0178
  530DPPI    C3 8355  12.543   2.028  11.940 -0.0875 -0.0078  0.2457
  530DPPI   PO4 8356  12.520   1.821  11.262  0.1251 -0.1349  0.1253
  530DPPI   GL1 8357  12.265   1.506  10.989 -0.2124 -0.1612  0.0891
  530DPPI   GL2 8358  12.158   1.865  10.923 -0.0255 -0.0558 -0.0164
  530DPPI   C1A 8359  12.241   1.579  10.565  0.2382 -0.2828  0.1168
  530DPPI   C2A 8360  12.283   1.574  10.121  0.1124  0.2974  0.0451
  530DPPI   C3A 8361  12.379   1.580   9.703  0.0972 -0.0194  0.1452
  530DPPI   C4A 8362  12.414   1.488   9.312  0.1055 -0.0571 -0.0807
  530DPPI   C1B 8363  12.274   2.059  10.543  0.0827  0.0084 -0.0263
  530DPPI   C2B 8364  12.280   2.061  10.210 -0.1980  0.0028  0.1105
  530DPPI   C3B 8365  12.272   2.024   9.801  0.1178 -0.0692  0.0125
  530DPPI   C4B 8366  12.389   2.003   9.404  0.2040 -0.5049 -0.2738
  531DPPI    C1 8367  13.674   6.516  11.607 -0.1106 -0.1971 -0.1828
  531DPPI    C2 8368  14.008   6.736  11.613 -0.2916  0.0851 -0.2509
  531DPPI    C3 8369  14.032   6.337  11.590  0.0412  0.0928 -0.1031
  531DPPI   PO4 8370  13.501   6.711  11.457  0.1567 -0.0707  0.0413
  531DPPI   GL1 8371  13.332   6.962  11.134 -0.0539 -0.0551  0.0498
  531DPPI   GL2 8372  13.049   6.878  10.887  0.1638  0.1442 -0.0614
  531DPPI   C1A 8373  13.571   6.875  10.745  0.0592 -0.1797  0.3714
  531DPPI   C2A 8374  13.519   6.915  10.223  0.0722 -0.1214 -0.0741
  531DPPI   C3A 8375  13.443   6.910   9.748  0.0597  0.1330 -0.1427
  531DPPI   C4A 8376  13.524   6.883   9.333 -0.0692 -0.0439  0.0191
  531DPPI   C1B 8377  13.181   7.147  10.571 -0.0264 -0.0570  0.0399
  531DPPI   C2B 8378  13.318   7.344  10.111 -0.0263  0.1319 -0.0354
  531DPPI   C3B 8379  13.357   7.414   9.706  0.0213  0.1728  0.1077
  531DPPI   C4B 8380  13.432   7.416   9.224  0.1233  0.0743 -0.2427
  532DPPI    C1 8381   4.241  12.578  11.826 -0.0645  0.2511 -0.0241
  532DPPI    C2 8382   3.876  12.415  11.831  0.0121  0.0769 -0.0470
  532DPPI    C3 8383   4.094  12.427  12.166  0.0345  0.0674 -0.0612
  532DPPI   PO4 8384   4.247  12.665  11.641 -0.1024  0.1989  0.2374
  532DPPI   GL1 8385   4.248  12.649  11.134 -0.0521 -0.0816  0.1686
  532DPPI   GL2 8386   4.286  12.279  10.926 -0.0699 -0.1438  0.3007
  532DPPI   C1A 8387   4.393  12.796  10.749 -0.1857 -0.2564 -0.1744
  532DPPI   C2A 8388   4.478  12.873  10.394 -0.1603  0.1319 -0.0105
  532DPPI   C3A 8389   4.447  12.935   9.958 -0.1693 -0.0205  0.2728
  532DPPI   C4A 8390   4.419  12.895   9.529  0.1219 -0.1069 -0.1308
  532DPPI   C1B 8391   4.306  12.354  10.472  0.0648  0.0063 -0.2507
  532DPPI   C2B 8392   4.264  12.505  10.061  0.2894  0.0528 -0.1164
  532DPPI   C3B 8393   4.133  12.463   9.651  0.0763 -0.0559 -0.3465
  532DPPI   C4B 8394   4.190  12.463   9.222  0.3003 -0.2046  0.0288
  533DPPI    C1 8395  10.847   9.299  11.856 -0.1255  0.3233  0.0453
  533DPPI    C2 8396  11.049   9.128  12.156 -0.0947  0.1417 -0.0772
  533DPPI    C3 8397  10.649   9.126  12.157 -0.0946  0.0068 -0.1121
  533DPPI   PO4 8398  10.895   9.281  11.671 -0.3797  0.4325 -0.0652
  533DPPI   GL1 8399  11.063   9.231  11.315  0.1147  0.1123  0.0751
  533DPPI   GL2 8400  10.942   9.478  11.057  0.1722 -0.0111  0.1355
  533DPPI   C1A 8401  11.290   9.056  10.900  0.1226 -0.2298 -0.1385
  533DPPI   C2A 8402  11.226   8.957  10.436 -0.0572 -0.0563  0.2526
  533DPPI   C3A 8403  11.158   8.953   9.991  0.1199  0.5270 -0.2753
  533DPPI   C4A 8404  11.144   8.969   9.575 -0.0826  0.1637  0.4121
  533DPPI   C1B 8405  11.018   9.410  10.586  0.0058 -0.2429 -0.0130
  533DPPI   C2B 8406  11.032   9.372  10.176  0.3906 -0.1032  0.2598
  533DPPI   C3B 8407  10.966   9.427   9.758  0.0885  0.2135  0.0259
  533DPPI   C4B 8408  11.062   9.634   9.389  0.1004 -0.0562 -0.2438
  534DPPI    C1 8409  16.199  14.606  11.855 -0.1944 -0.0242 -0.0703
  534DPPI    C2 8410  16.260  14.265  12.055 -0.1178 -0.0580 -0.1504
  534DPPI    C3 8411  16.048  14.560  12.222  0.0500 -0.0376  0.0307
  534DPPI   PO4 8412  16.214  14.542  11.573  0.0247  0.2053 -0.0570
  534DPPI   GL1 8413  16.223  14.780  11.182 -0.3796 -0.1165  0.2206
  534DPPI   GL2 8414  16.191  15.096  11.094 -0.0040  0.2339  0.0652
  534DPPI   C1A 8415  16.128  14.812  10.685 -0.1292  0.0717 -0.1377
  534DPPI   C2A 8416  16.155  14.800  10.238 -0.1582  0.1840  0.2677
  534DPPI   C3A 8417  16.106  14.760   9.865 -0.0656  0.1183 -0.1975
  534DPPI   C4A 8418  16.072  14.744   9.378 -0.0086  0.1223  0.0213
  534DPPI   C1B 8419  16.398  15.202  10.733  0.0374 -0.1641 -0.0627
  534DPPI   C2B 8420  16.281  15.246  10.311 -0.0363  0.0717 -0.2212
  534DPPI   C3B 8421  16.337  15.178   9.863 -0.1612 -0.0073 -0.1252
  534DPPI   C4B 8422  16.344  15.165   9.453 -0.1404  0.1889  0.1473
  535DPPI    C1 8423   8.771  15.473  11.597  0.0023  0.0971 -0.1155
  535DPPI    C2 8424   9.046  15.429  11.884 -0.1690 -0.0531  0.0280
  535DPPI    C3 8425   8.837  15.769  11.858  0.0344  0.0652 -0.0873
  535DPPI   PO4 8426   8.934  15.481  11.342  0.2515 -0.1392 -0.3696
  535DPPI   GL1 8427   8.895  15.681  10.974 -0.2330 -0.2076  0.2096
  535DPPI   GL2 8428   8.598  15.836  11.040  0.1425 -0.0985  0.3232
  535DPPI   C1A 8429   8.784  15.691  10.575 -0.0005  0.0812  0.1639
  535DPPI   C2A 8430   8.764  15.731  10.125 -0.0303 -0.0589  0.1779
  535DPPI   C3A 8431   8.763  15.687   9.730  0.0358  0.0610 -0.0332
  535DPPI   C4A 8432   8.885  15.628   9.342 -0.3144 -0.0018 -0.0244
  535DPPI   C1B 8433   8.277  15.776  10.774 -0.0163  0.1724  0.0568
  535DPPI   C2B 8434   8.237  15.680  10.397  0.0249  0.2880 -0.0899
  535DPPI   C3B 8435   8.187  15.768   9.945  0.1522 -0.3457  0.1660
  535DPPI   C4B 8436   8.208  15.712   9.524 -0.2661  0.1873  0.0624
  536DPPI    C1 8437   3.074  10.447  11.710  0.1270  0.1195 -0.0826
  536DPPI    C2 8438   2.984  10.585  12.074 -0.1647  0.0306 -0.1185
  536DPPI    C3 8439   2.940  10.196  11.991 -0.0009  0.0326 -0.2193
  536DPPI   PO4 8440   2.955  10.596  11.583  0.2397  0.0780  0.2792
  536DPPI   GL1 8441   2.634  10.940  11.357 -0.0087 -0.0379 -0.2058
  536DPPI   GL2 8442   2.295  11.052  11.329 -0.1819  0.0147  0.1873
  536DPPI   C1A 8443   2.608  10.656  11.039  0.1278 -0.0907 -0.1672
  536DPPI   C2A 8444   2.478  10.703  10.567  0.1454 -0.2802 -0.2521
  536DPPI   C3A 8445   2.426  10.761  10.150 -0.0314  0.1900 -0.1577
  536DPPI   C4A 8446   2.524  10.746   9.701 -0.0535  0.0818 -0.0926
  536DPPI   C1B 8447   2.336  11.065  10.937 -0.0024 -0.2633  0.0454
  536DPPI   C2B 8448   2.178  11.113  10.527  0.0634  0.0139 -0.2615
  536DPPI   C3B 8449   2.116  11.198  10.122 -0.2687 -0.2793  0.0866
  536DPPI   C4B 8450   2.150  11.180   9.626 -0.0499 -0.0155 -0.0742
  537DPPI    C1 8451   7.693   5.021  11.889  0.0591 -0.0561  0.2828
  537DPPI    C2 8452   8.063   4.870  11.867  0.0501 -0.0544  0.1014
  537DPPI    C3 8453   7.760   4.640  11.992  0.1293 -0.0244  0.3546
  537DPPI   PO4 8454   7.632   5.205  11.571 -0.0525  0.0583 -0.4419
  537DPPI   GL1 8455   7.534   5.031  11.130 -0.0700  0.1220 -0.1044
  537DPPI   GL2 8456   7.305   4.825  10.994 -0.1454 -0.1561  0.1286
  537DPPI   C1A 8457   7.500   5.240  10.712 -0.0970 -0.2736 -0.0948
  537DPPI   C2A 8458   7.505   5.323  10.255 -0.0559  0.1397 -0.1018
  537DPPI   C3A 8459   7.558   5.220   9.846 -0.1119  0.0656 -0.1094
  537DPPI   C4A 8460   7.517   5.246   9.470 -0.0663 -0.0240  0.2240
  537DPPI   C1B 8461   7.210   4.825  10.618  0.1277  0.1119 -0.0528
  537DPPI   C2B 8462   7.143   4.810  10.231 -0.0876  0.0703  0.2021
  537DPPI   C3B 8463   7.160   4.786   9.842 -0.1564 -0.0657  0.1062
  537DPPI   C4B 8464   7.150   4.844   9.363  0.2381  0.2157 -0.1129
  538DPPI    C1 8465   0.979  14.829  11.974 -0.0040  0.0817 -0.0286
  538DPPI    C2 8466   1.286  15.015  12.151 -0.0338 -0.0533  0.1676
  538DPPI    C3 8467   0.924  15.187  12.145  0.0500  0.1184 -0.0877
  538DPPI   PO4 8468   1.046  14.786  11.757 -0.1693 -0.0508  0.1411
  538DPPI   GL1 8469   1.209  14.664  11.406  0.0425  0.1669  0.1900
  538DPPI   GL2 8470   1.082  14.929  11.242  0.0657 -0.0618 -0.1852
  538DPPI   C1A 8471   1.334  14.433  10.984 -0.3364  0.2064  0.0499
  538DPPI   C2A 8472   1.338  14.418  10.582 -0.1467 -0.1552  0.0866
  538DPPI   C3A 8473   1.324  14.514  10.131 -0.1414  0.0366  0.1859
  538DPPI   C4A 8474   1.250  14.491   9.723  0.0654 -0.1001  0.1607
  538DPPI   C1B 8475   1.049  14.896  10.750  0.2848  0.2900 -0.1118
  538DPPI   C2B 8476   1.050  14.947  10.283  0.0254  0.1313  0.1992
  538DPPI   C3B 8477   1.086  14.973   9.824  0.1743  0.2824  0.0117
  538DPPI   C4B 8478   1.125  14.931   9.373 -0.1890  0.2604 -0.2139
  539DPPI    C1 8479   6.252   6.193  11.729 -0.1471 -0.0302  0.1351
  539DPPI    C2 8480   6.129   6.361  12.070 -0.0301 -0.0638  0.1943
  539DPPI    C3 8481   6.520   6.324  11.995 -0.0542  0.1051 -0.0234
  539DPPI   PO4 8482   6.158   6.336  11.539  0.0814 -0.1896  0.3049
  539DPPI   GL1 8483   6.208   6.423  11.167  0.2565 -0.0722 -0.2195
  539DPPI   GL2 8484   6.035   6.204  10.959  0.0046  0.0490 -0.0214
  539DPPI   C1A 8485   6.500   6.244  10.831  0.0221 -0.3330  0.0605
  539DPPI   C2A 8486   6.505   6.277  10.346 -0.0850 -0.1163  0.2400
  539DPPI   C3A 8487   6.504   6.318   9.869 -0.0559  0.3332 -0.1183
  539DPPI   C4A 8488   6.605   6.150   9.508  0.0685 -0.0396  0.1828
  539DPPI   C1B 8489   5.990   6.377  10.513 -0.1425  0.1478  0.0260
  539DPPI   C2B 8490   6.078   6.377  10.074  0.1388 -0.0783  0.0818
  539DPPI   C3B 8491   5.989   6.244   9.694 -0.0132  0.0493  0.0522
  539DPPI   C4B 8492   6.083   6.184   9.302  0.0710  0.3478  0.0970
  540DPPI    C1 8493   0.078  13.237  11.908 -0.2528  0.0879  0.1592
  540DPPI    C2 8494   0.334  13.213  12.214 -0.0750 -0.3272 -0.0154
  540DPPI    C3 8495  -0.043  13.085  12.258 -0.0530 -0.3755  0.0341
  540DPPI   PO4 8496   0.152  13.201  11.725  0.1289  0.0662  0.2070
  540DPPI   GL1 8497   0.172  12.876  11.421 -0.1410  0.0119 -0.1205
  540DPPI   GL2 8498   0.449  12.698  11.447  0.0449  0.2017  0.0946
  540DPPI   C1A 8499   0.112  12.822  11.052  0.1147  0.0330 -0.2050
  540DPPI   C2A 8500   0.125  12.789  10.637  0.4318 -0.0646 -0.4471
  540DPPI   C3A 8501   0.128  12.784  10.212  0.1653  0.3715  0.4350
  540DPPI   C4A 8502   0.130  12.807   9.789  0.0226 -0.3598 -0.1405
  540DPPI   C1B 8503   0.618  12.686  11.053  0.2001  0.1642 -0.1445
  540DPPI   C2B 8504   0.587  12.675  10.640  0.0060  0.0192  0.3917
  540DPPI   C3B 8505   0.608  12.746  10.221  0.1042  0.0809 -0.1921
  540DPPI   C4B 8506   0.584  12.774   9.765 -0.0413  0.0424 -0.0040
  541DPPI    C1 8507   0.737  12.447  11.930 -0.0608 -0.2699  0.0453
  541DPPI    C2 8508   0.922  12.517  12.278  0.0078 -0.2092 -0.0032
  541DPPI    C3 8509   0.576  12.317  12.272 -0.0748 -0.0716  0.1154
  541DPPI   PO4 8510   0.835  12.729  11.769 -0.1140 -0.1293 -0.2801
  541DPPI   GL1 8511   1.008  12.759  11.460 -0.0605 -0.3527  0.1220
  541DPPI   GL2 8512   0.989  13.036  11.343 -0.3318  0.0032 -0.0675
  541DPPI   C1A 8513   1.164  12.598  11.084  0.4806  0.3483 -0.2023
  541DPPI   C2A 8514   1.110  12.689  10.687 -0.2578  0.1084  0.0418
  541DPPI   C3A 8515   1.164  12.647  10.297 -0.3581 -0.0722  0.1044
  541DPPI   C4A 8516   1.099  12.755   9.918  0.2815  0.0702  0.0401
  541DPPI   C1B 8517   0.987  13.088  10.926  0.2845 -0.2720 -0.0188
  541DPPI   C2B 8518   0.950  13.144  10.550  0.0653 -0.0073  0.1317
  541DPPI   C3B 8519   0.942  13.210  10.085  0.0148 -0.0706 -0.1692
  541DPPI   C4B 8520   1.085  13.230   9.635  0.1812  0.0014  0.0096
  542DPPI    C1 8521   7.912  13.247  11.760 -0.0492 -0.0781 -0.0720
  542DPPI    C2 8522   7.645  13.467  11.961  0.2264  0.1351  0.0665
  542DPPI    C3 8523   7.584  13.075  11.912 -0.0339  0.1526  0.2307
  542DPPI   PO4 8524   7.941  13.269  11.517 -0.0290 -0.2066  0.0394
  542DPPI   GL1 8525   7.764  13.438  11.166  0.1267 -0.0674 -0.1105
  542DPPI   GL2 8526   8.112  13.502  11.078  0.0172  0.3313  0.1488
  542DPPI   C1A 8527   7.838  13.475  10.659 -0.1794  0.2275  0.0520
  542DPPI   C2A 8528   7.728  13.496  10.146 -0.0791  0.0049 -0.0767
  542DPPI   C3A 8529   7.765  13.362   9.716 -0.0375 -0.1281  0.0763
  542DPPI   C4A 8530   7.811  13.357   9.239 -0.0313 -0.2009  0.0860
  542DPPI   C1B 8531   8.359  13.640  10.719  0.0455  0.0898 -0.2472
  542DPPI   C2B 8532   8.505  13.823  10.378 -0.1485  0.0609  0.1309
  542DPPI   C3B 8533   8.492  13.856  10.017 -0.0562 -0.1753 -0.2728
  542DPPI   C4B 8534   8.539  13.821   9.558 -0.1407  0.4431  0.0152
  543DPPI    C1 8535   8.190  11.309  11.815  0.3316  0.0002 -0.0153
  543DPPI    C2 8536   8.416  11.598  11.975  0.0822  0.0853  0.1912
  543DPPI    C3 8537   8.092  11.467  12.170  0.0045 -0.1001 -0.0576
  543DPPI   PO4 8538   8.191  11.355  11.539  0.0984  0.0615 -0.0779
  543DPPI   GL1 8539   8.187  11.088  11.213 -0.0150  0.1304  0.1074
  543DPPI   GL2 8540   7.807  11.109  11.273 -0.1353  0.1426  0.0054
  543DPPI   C1A 8541   8.312  11.064  10.810  0.1066 -0.0035 -0.0866
  543DPPI   C2A 8542   8.276  11.148  10.401 -0.1567  0.3883 -0.3658
  543DPPI   C3A 8543   8.288  11.110   9.886 -0.1642  0.0080  0.0642
  543DPPI   C4A 8544   8.311  11.151   9.407 -0.0783  0.0725 -0.2094
  543DPPI   C1B 8545   7.758  11.160  10.929  0.0993 -0.3239  0.0079
  543DPPI   C2B 8546   7.823  11.301  10.489 -0.0829 -0.1041 -0.1491
  543DPPI   C3B 8547   7.892  11.149  10.064 -0.0336 -0.1123 -0.0254
  543DPPI   C4B 8548   7.650  11.177   9.735  0.1132  0.0602 -0.3884
  544DPPI    C1 8549  16.575   7.852  11.668 -0.1160 -0.1054  0.0831
  544DPPI    C2 8550  16.911   7.664  11.776 -0.2657 -0.2823  0.2493
  544DPPI    C3 8551  16.756   7.948  12.012 -0.0977 -0.0196  0.0499
  544DPPI   PO4 8552  16.626   7.807  11.294 -0.0210 -0.0355 -0.3054
  544DPPI   GL1 8553  16.450   8.004  10.945  0.1211 -0.0486 -0.0893
  544DPPI   GL2 8554  16.288   8.351  11.027 -0.0165  0.2456  0.0507
  544DPPI   C1A 8555  16.572   7.940  10.524 -0.1076  0.1265 -0.3519
  544DPPI   C2A 8556  16.480   7.880  10.076 -0.2683 -0.2826  0.0928
  544DPPI   C3A 8557  16.535   7.948   9.694  0.2178 -0.0744 -0.1409
  544DPPI   C4A 8558  16.447   7.926   9.248  0.0954  0.1121 -0.1525
  544DPPI   C1B 8559  16.502   8.381  10.616 -0.1121  0.0287  0.1172
  544DPPI   C2B 8560  16.389   8.429  10.189  0.1329  0.2352 -0.1095
  544DPPI   C3B 8561  16.295   8.455   9.734  0.3771 -0.0445  0.3078
  544DPPI   C4B 8562  16.217   8.508   9.428  0.1432  0.2436  0.1264
  545DPPI    C1 8563  17.080  12.219  12.054  0.0007 -0.1266  0.0010
  545DPPI    C2 8564  17.008  12.297  12.440 -0.0836  0.0849 -0.0559
  545DPPI    C3 8565  16.704  12.270  12.181 -0.0332 -0.1359 -0.0943
  545DPPI   PO4 8566  17.197  12.033  11.988  0.0699  0.3510 -0.1889
  545DPPI   GL1 8567  17.213  11.945  11.540  0.0751 -0.0522 -0.3140
  545DPPI   GL2 8568  17.409  11.952  11.352 -0.0489  0.0318 -0.0833
  545DPPI   C1A 8569  16.980  11.963  11.120  0.3096  0.0101 -0.0407
  545DPPI   C2A 8570  16.836  11.950  10.634 -0.1347 -0.2168  0.1517
  545DPPI   C3A 8571  16.699  11.998  10.172 -0.0154 -0.1819 -0.1896
  545DPPI   C4A 8572  16.776  12.001   9.686 -0.0267  0.0789  0.0505
  545DPPI   C1B 8573  17.346  11.942  10.820 -0.1253 -0.0595 -0.1293
  545DPPI   C2B 8574  17.267  11.882  10.314 -0.1470  0.1606  0.0647
  545DPPI   C3B 8575  17.334  11.897   9.908  0.0391 -0.0345  0.0904
  545DPPI   C4B 8576  17.424  11.927   9.489 -0.1668 -0.1274  0.0144
  546DPPI    C1 8577  16.388  10.598  11.904 -0.3132  0.1984  0.2903
  546DPPI    C2 8578  16.349  10.281  12.145 -0.3180 -0.0762 -0.0617
  546DPPI    C3 8579  16.619  10.564  12.228  0.0688 -0.4452 -0.0273
  546DPPI   PO4 8580  16.165  10.671  11.787 -0.1031 -0.0629  0.0029
  546DPPI   GL1 8581  16.056  10.799  11.376  0.0100  0.0931 -0.2157
  546DPPI   GL2 8582  16.291  10.599  11.225 -0.1216  0.0713 -0.3969
  546DPPI   C1A 8583  15.947  10.785  10.942 -0.0897 -0.1808 -0.0056
  546DPPI   C2A 8584  15.948  10.669  10.544 -0.0873  0.2203  0.0905
  546DPPI   C3A 8585  15.948  10.777  10.100 -0.0501  0.0083 -0.0660
  546DPPI   C4A 8586  15.869  10.808   9.690  0.0432 -0.2198 -0.1638
  546DPPI   C1B 8587  16.394  10.687  10.750 -0.0312  0.0116 -0.0637
  546DPPI   C2B 8588  16.371  10.663  10.282 -0.1327  0.2443  0.2524
  546DPPI   C3B 8589  16.477  10.714   9.919 -0.0052  0.0112  0.0664
  546DPPI   C4B 8590  16.368  10.727   9.526 -0.0363  0.0108 -0.2206
  547DPPI    C1 8591   4.481  13.702  11.316  0.2489  0.3852  0.2056
  547DPPI    C2 8592   4.371  13.700  11.700  0.1899  0.0249  0.1910
  547DPPI    C3 8593   4.666  13.460  11.576  0.0702 -0.0120 -0.0265
  547DPPI   PO4 8594   4.388  13.980  11.284 -0.2332  0.2170  0.0009
  547DPPI   GL1 8595   4.362  14.325  10.974 -0.2084  0.0239  0.1933
  547DPPI   GL2 8596   4.576  14.044  10.817  0.1976 -0.2441 -0.0399
  547DPPI   C1A 8597   4.247  14.733  10.886  0.0273 -0.0781  0.1372
  547DPPI   C2A 8598   4.283  14.828  10.435  0.0377  0.1917 -0.0354
  547DPPI   C3A 8599   4.181  14.787  10.072  0.0847 -0.1911 -0.0391
  547DPPI   C4A 8600   4.149  14.785   9.754  0.1549  0.0617  0.3007
  547DPPI   C1B 8601   4.456  14.301  10.424  0.0610  0.0907 -0.0482
  547DPPI   C2B 8602   4.422  14.274  10.053  0.1503  0.1072  0.0882
  547DPPI   C3B 8603   4.418  14.253   9.650 -0.1330 -0.0902  0.1593
  547DPPI   C4B 8604   4.145  14.317   9.318  0.4937  0.1456  0.2256
  548DPPI    C1 8605   5.303   8.082  11.699  0.0406 -0.0014 -0.0829
  548DPPI    C2 8606   5.420   7.877  12.022 -0.1618 -0.0127 -0.0160
  548DPPI    C3 8607   5.213   8.217  12.064 -0.3561 -0.1143 -0.1350
  548DPPI   PO4 8608   5.283   7.919  11.528 -0.1276 -0.2368 -0.1094
  548DPPI   GL1 8609   5.090   7.877  11.015  0.0724 -0.0258 -0.0622
  548DPPI   GL2 8610   4.777   7.765  10.841  0.0189  0.1761  0.0992
  548DPPI   C1A 8611   5.392   7.873  10.729 -0.2008 -0.2329  0.2290
  548DPPI   C2A 8612   5.393   7.735  10.318  0.1798 -0.0994 -0.2399
  548DPPI   C3A 8613   5.344   7.709   9.915 -0.0560  0.0995 -0.0043
  548DPPI   C4A 8614   5.317   7.784   9.441  0.0847 -0.2241  0.1085
  548DPPI   C1B 8615   4.868   7.838  10.431  0.3637 -0.0647  0.0081
  548DPPI   C2B 8616   4.828   7.723  10.012 -0.0406 -0.0138  0.1305
  548DPPI   C3B 8617   4.818   7.827   9.568  0.0523  0.1468  0.0301
  548DPPI   C4B 8618   4.703   7.825   9.114  0.0571  0.1526  0.2465
  549DPPI    C1 8619   4.287   0.507  11.673 -0.0421 -0.0319  0.0194
  549DPPI    C2 8620   3.909   0.447  11.555 -0.1458  0.1502  0.2506
  549DPPI    C3 8621   4.019   0.803  11.701  0.0635  0.0338  0.3804
  549DPPI   PO4 8622   4.472   0.440  11.479 -0.2704  0.0208  0.1596
  549DPPI   GL1 8623   4.650   0.306  11.136 -0.0483 -0.2421 -0.2126
  549DPPI   GL2 8624   4.871   0.469  10.908  0.1551 -0.1101 -0.0572
  549DPPI   C1A 8625   4.494   0.033  10.758 -0.1364  0.0143  0.2895
  549DPPI   C2A 8626   4.360   0.145  10.351  0.1683 -0.0501 -0.0276
  549DPPI   C3A 8627   4.407  -0.048   9.949  0.0589 -0.1480  0.0934
  549DPPI   C4A 8628   4.463   0.101   9.585 -0.0157 -0.0224 -0.1744
  549DPPI   C1B 8629   4.667   0.470  10.473  0.0284  0.3773  0.3372
  549DPPI   C2B 8630   4.662   0.371  10.047 -0.2108 -0.1138  0.1494
  549DPPI   C3B 8631   4.760   0.534   9.633 -0.0350 -0.4366 -0.0137
  549DPPI   C4B 8632   4.741   0.566   9.224 -0.1639  0.1377 -0.0573
  550DPPI    C1 8633  14.504  10.844  11.619 -0.0739 -0.0464 -0.2944
  550DPPI    C2 8634  14.650  10.574  11.875  0.1282  0.1039 -0.2485
  550DPPI    C3 8635  14.364  10.828  11.993  0.4330  0.3743 -0.0732
  550DPPI   PO4 8636  14.562  10.730  11.393  0.4756 -0.0821  0.2423
  550DPPI   GL1 8637  14.480  10.751  10.930 -0.0346  0.0187 -0.2593
  550DPPI   GL2 8638  14.626  10.412  10.996  0.0543 -0.4348 -0.1347
  550DPPI   C1A 8639  14.339  10.868  10.547 -0.0794 -0.1338 -0.0304
  550DPPI   C2A 8640  14.304  10.853  10.107 -0.2071  0.0553  0.0203
  550DPPI   C3A 8641  14.433  10.918   9.682 -0.1104  0.2389  0.2088
  550DPPI   C4A 8642  14.409  10.975   9.282 -0.0501 -0.0218 -0.0607
  550DPPI   C1B 8643  14.527  10.433  10.555  0.0655  0.0598 -0.0107
  550DPPI   C2B 8644  14.536  10.429  10.178 -0.0000 -0.0135 -0.1343
  550DPPI   C3B 8645  14.661  10.452   9.799  0.2301  0.1212 -0.2697
  550DPPI   C4B 8646  14.610  10.490   9.324  0.0314  0.1068  0.2690
  551DPPI    C1 8647   0.158  14.088  12.109  0.0483 -0.1574 -0.1713
  551DPPI    C2 8648   0.076  13.701  12.169  0.2883 -0.1847 -0.0048
  551DPPI    C3 8649   0.163  13.938  12.480  0.0337  0.0308 -0.0933
  551DPPI   PO4 8650   0.167  14.149  11.828 -0.2904  0.1901 -0.0684
  551DPPI   GL1 8651   0.146  14.057  11.352  0.3455 -0.1251  0.0634
  551DPPI   GL2 8652   0.256  14.317  11.264  0.3231  0.0135  0.1131
  551DPPI   C1A 8653   0.022  14.071  10.886  0.1961  0.2190 -0.3344
  551DPPI   C2A 8654  -0.005  14.167  10.509  0.1529  0.0496  0.1742
  551DPPI   C3A 8655  -0.023  14.139  10.096 -0.1382 -0.0308 -0.3577
  551DPPI   C4A 8656  -0.055  14.199   9.653  0.1068 -0.2555 -0.0152
  551DPPI   C1B 8657   0.311  14.488  10.886  0.0295  0.0428 -0.1097
  551DPPI   C2B 8658   0.401  14.535  10.553 -0.0812 -0.0370  0.2590
  551DPPI   C3B 8659   0.256  14.552  10.180  0.2390 -0.0793 -0.0066
  551DPPI   C4B 8660   0.216  14.626   9.718  0.0078 -0.1306 -0.3379
  552DPPI    C1 8661  16.310  12.136  11.912  0.0664  0.0920 -0.0417
  552DPPI    C2 8662  16.384  11.818  12.144 -0.2546  0.1339  0.1244
  552DPPI    C3 8663  16.165  12.121  12.285 -0.3138  0.2362 -0.1793
  552DPPI   PO4 8664  16.227  11.952  11.619  0.1341  0.1844  0.2293
  552DPPI   GL1 8665  16.046  12.010  11.258 -0.4902 -0.0873 -0.0890
  552DPPI   GL2 8666  16.371  11.982  11.097 -0.2421 -0.1868  0.1207
  552DPPI   C1A 8667  16.050  12.405  11.008  0.1439  0.1848 -0.0167
  552DPPI   C2A 8668  16.097  12.502  10.575  0.1042  0.1639 -0.0137
  552DPPI   C3A 8669  16.168  12.527  10.159  0.0354 -0.3024 -0.3221
  552DPPI   C4A 8670  16.068  12.569   9.729  0.1358  0.2335  0.2555
  552DPPI   C1B 8671  16.273  12.027  10.720  0.0675 -0.0006 -0.1013
  552DPPI   C2B 8672  16.284  12.113  10.368  0.1952  0.1440 -0.2169
  552DPPI   C3B 8673  16.220  12.097   9.895 -0.0769  0.0370 -0.1879
  552DPPI   C4B 8674  16.313  12.097   9.494 -0.0251  0.1356 -0.2089
  553DPPI    C1 8675   2.994   4.802  11.252 -0.1106  0.0320  0.0660
  553DPPI    C2 8676   2.986   4.758  11.650 -0.1474  0.1737  0.0816
  553DPPI    C3 8677   3.330   4.712  11.449 -0.1211  0.1407  0.1340
  553DPPI   PO4 8678   2.777   5.067  11.267  0.2001  0.2491  0.0049
  553DPPI   GL1 8679   2.696   5.224  10.856  0.0114  0.0048  0.0960
  553DPPI   GL2 8680   3.038   5.313  10.812 -0.0068 -0.0164  0.0410
  553DPPI   C1A 8681   2.406   5.334  10.423  0.1007  0.1061 -0.1167
  553DPPI   C2A 8682   2.385   5.319   9.922  0.0036 -0.1714 -0.2665
  553DPPI   C3A 8683   2.561   5.185   9.557 -0.3173  0.0573  0.0107
  553DPPI   C4A 8684   2.499   5.128   9.240  0.0894 -0.1221  0.1334
  553DPPI   C1B 8685   2.939   5.345  10.337  0.1600  0.0436 -0.1273
  553DPPI   C2B 8686   2.894   5.322   9.909 -0.1152  0.3565 -0.2645
  553DPPI   C3B 8687   3.035   5.160   9.596 -0.0663  0.2332 -0.1856
  553DPPI   C4B 8688   3.093   5.021   9.181  0.2687  0.2410 -0.1227
  554PYPI    C1 8689   0.830   6.585  11.502 -0.0232  0.1839 -0.0573
  554PYPI    C2 8690   0.589   6.610  11.820  0.0638  0.1899  0.0085
  554PYPI    C3 8691   0.986   6.620  11.869  0.0840 -0.1342 -0.0689
  554PYPI   PO4 8692   0.624   6.872  11.381 -0.2049  0.3151 -0.0622
  554PYPI   GL1 8693   0.597   6.895  10.983  0.1966 -0.0131  0.0499
  554PYPI   GL2 8694   0.751   6.650  10.949 -0.2363 -0.1480 -0.2055
  554PYPI   C1A 8695   0.720   6.884  10.506  0.5076 -0.1886  0.1324
  554PYPI   C2A 8696   0.742   6.917   9.988  0.2385  0.0360  0.1270
  554PYPI   D3A 8697   0.597   6.938   9.603 -0.1181  0.1859  0.2095
  554PYPI   C4A 8698   0.689   6.990   9.191 -0.0085 -0.2445 -0.2400
  554PYPI   C1B 8699   0.922   6.441  10.543  0.2060  0.0071  0.0529
  554PYPI   C2B 8700   0.930   6.450  10.037 -0.1203 -0.1104 -0.1131
  554PYPI   C3B 8701   0.947   6.418   9.612 -0.0870  0.0336  0.1458
  554PYPI   C4B 8702   0.788   6.353   9.182 -0.0320 -0.0364 -0.0149
  555PYPI    C1 8703  11.291  11.664  11.724 -0.3296 -0.0967 -0.0421
  555PYPI    C2 8704  11.216  11.865  12.062 -0.1217  0.0340 -0.0719
  555PYPI    C3 8705  11.592  11.765  11.968 -0.1671  0.0847 -0.3124
  555PYPI   PO4 8706  11.001  11.562  11.667 -0.0687 -0.2191  0.0997
  555PYPI   GL1 8707  10.802  11.592  11.285  0.2194 -0.0363 -0.1546
  555PYPI   GL2 8708  10.665  11.883  11.159  0.0459 -0.4294 -0.2132
  555PYPI   C1A 8709  10.829  11.372  10.832  0.4249  0.2895  0.0521
  555PYPI   C2A 8710  10.835  11.296  10.413  0.0507 -0.0557  0.2027
  555PYPI   D3A 8711  10.720  11.400  10.053 -0.1162 -0.0114  0.1684
  555PYPI   C4A 8712  10.646  11.409   9.577 -0.0574  0.2146  0.0058
  555PYPI   C1B 8713  10.577  11.828  10.783 -0.1083  0.1615  0.0357
  555PYPI   C2B 8714  10.679  11.801  10.448 -0.0558  0.1483  0.2611
  555PYPI   C3B 8715  10.478  11.878  10.056  0.0432  0.0215 -0.2278
  555PYPI   C4B 8716  10.386  11.866   9.547 -0.1932  0.0426 -0.0653
  556PYPI    C1 8717   5.819   5.190  11.930 -0.3500  0.1335  0.0994
  556PYPI    C2 8718   5.991   5.489  12.132  0.1982 -0.0194 -0.1235
  556PYPI    C3 8719   5.769   5.218  12.325  0.1267  0.2346  0.1582
  556PYPI   PO4 8720   5.983   5.214  11.725  0.2021 -0.2278 -0.0675
  556PYPI   GL1 8721   6.100   5.098  11.275  0.0900  0.3394  0.3092
  556PYPI   GL2 8722   6.198   4.864  11.046 -0.1548 -0.0656 -0.3354
  556PYPI   C1A 8723   5.918   5.244  10.871 -0.0653 -0.3936  0.1145
  556PYPI   C2A 8724   5.939   5.424  10.427  0.2575 -0.0715  0.1046
  556PYPI   D3A 8725   5.990   5.506   9.962 -0.0194  0.3946 -0.2319
  556PYPI   C4A 8726   5.905   5.342   9.475  0.1010 -0.1132  0.0599
  556PYPI   C1B 8727   6.101   4.878  10.647  0.2509 -0.0450 -0.0037
  556PYPI   C2B 8728   6.185   4.984  10.213 -0.0984 -0.0569 -0.2202
  556PYPI   C3B 8729   6.141   4.980   9.774 -0.2234 -0.0509  0.1261
  556PYPI   C4B 8730   6.219   4.856   9.236  0.0169 -0.2857  0.0612
  557PYPI    C1 8731  10.042   4.096  11.583  0.1169 -0.1946  0.0433
  557PYPI    C2 8732  10.145   4.355  11.296 -0.2016  0.0081  0.1064
  557PYPI    C3 8733  10.031   4.490  11.655 -0.1580 -0.2307  0.2116
  557PYPI   PO4 8734   9.897   3.823  11.397 -0.1964  0.1406  0.0112
  557PYPI   GL1 8735   9.903   3.685  10.994  0.1890  0.1275  0.0729
  557PYPI   GL2 8736  10.007   4.007  10.821  0.1186  0.3269  0.2808
  557PYPI   C1A 8737   9.697   3.580  10.670  0.0462  0.2647  0.2513
  557PYPI   C2A 8738   9.763   3.708  10.246 -0.3214 -0.1122  0.0876
  557PYPI   D3A 8739   9.736   3.700   9.853 -0.0695  0.1219 -0.0435
  557PYPI   C4A 8740   9.768   3.702   9.473 -0.0241 -0.0598 -0.1074
  557PYPI   C1B 8741  10.139   4.095  10.359 -0.1037  0.1960  0.2211
  557PYPI   C2B 8742  10.034   4.094   9.997  0.3217  0.0558  0.0057
  557PYPI   C3B 8743  10.122   4.121   9.502  0.1759 -0.2232 -0.2035
  557PYPI   C4B 8744  10.078   4.112   9.053 -0.1576 -0.2098 -0.2914
  558PYPI    C1 8745  13.058   3.983  11.426 -0.0339  0.1440 -0.1054
  558PYPI    C2 8746  13.118   3.726  11.726  0.2328  0.0249 -0.2579
  558PYPI    C3 8747  13.185   4.116  11.781  0.1379  0.0225 -0.1203
  558PYPI   PO4 8748  13.072   3.869  11.202  0.1485 -0.0188 -0.0145
  558PYPI   GL1 8749  13.064   3.899  10.729  0.3200  0.0694  0.0380
  558PYPI   GL2 8750  12.781   3.934  10.700 -0.2507  0.2045 -0.1001
  558PYPI   C1A 8751  13.082   3.930  10.319 -0.4853  0.0212  0.2465
  558PYPI   C2A 8752  12.952   3.947   9.877 -0.0832 -0.0942 -0.2148
  558PYPI   D3A 8753  12.997   3.961   9.448 -0.3752 -0.1624  0.0539
  558PYPI   C4A 8754  12.608   3.917   9.229  0.1600 -0.0862 -0.2134
  558PYPI   C1B 8755  12.658   3.694  10.425 -0.0856  0.1692  0.0505
  558PYPI   C2B 8756  12.593   3.569   9.971  0.3856  0.0398 -0.0619
  558PYPI   C3B 8757  12.470   3.484   9.542  0.2584  0.0092  0.1581
  558PYPI   C4B 8758  12.312   3.475   9.068 -0.1443  0.1698  0.2695
  559PYPI    C1 8759   6.798  12.385  11.902  0.0643 -0.2173 -0.0335
  559PYPI    C2 8760   6.882  12.195  12.244  0.1217 -0.0473  0.0480
  559PYPI    C3 8761   6.851  12.594  12.239 -0.1405 -0.0668 -0.0924
  559PYPI   PO4 8762   6.948  12.268  11.725  0.0386 -0.1533  0.0608
  559PYPI   GL1 8763   7.165  12.247  11.306  0.3533  0.0221  0.1772
  559PYPI   GL2 8764   6.872  12.347  11.238  0.1122  0.3738 -0.1256
  559PYPI   C1A 8765   7.339  12.089  10.868 -0.1581  0.0266  0.3914
  559PYPI   C2A 8766   7.361  12.208  10.520  0.2713 -0.1165  0.2769
  559PYPI   D3A 8767   7.390  12.101  10.058 -0.1980 -0.3495 -0.0019
  559PYPI   C4A 8768   7.325  12.108   9.598  0.2690  0.1006  0.1696
  559PYPI   C1B 8769   6.822  12.289  10.750  0.0782 -0.1380  0.0283
  559PYPI   C2B 8770   6.895  12.121  10.262  0.1567 -0.2067 -0.1438
  559PYPI   C3B 8771   6.821  12.238   9.944 -0.2269  0.0791  0.0126
  559PYPI   C4B 8772   6.748  12.253   9.524 -0.1879 -0.1493 -0.0207
  560PYPI    C1 8773  11.310  10.707  11.640 -0.0387 -0.1835  0.0757
  560PYPI    C2 8774  11.029  10.501  11.835 -0.0050 -0.2099  0.0967
  560PYPI    C3 8775  11.223  10.798  12.019 -0.2334  0.0110 -0.0135
  560PYPI   PO4 8776  11.284  10.770  11.438 -0.0920 -0.0544  0.2017
  560PYPI   GL1 8777  11.350  10.825  11.074 -0.1494 -0.3961  0.1353
  560PYPI   GL2 8778  11.222  10.462  11.042 -0.0366 -0.2548 -0.2722
  560PYPI   C1A 8779  11.461  10.820  10.607  0.0466  0.2868 -0.0357
  560PYPI   C2A 8780  11.456  10.807  10.177  0.2123  0.1059 -0.0402
  560PYPI   D3A 8781  11.423  10.850   9.742  0.1877  0.0152 -0.1230
  560PYPI   C4A 8782  11.522  11.001   9.467 -0.2862 -0.0471  0.0311
  560PYPI   C1B 8783  11.166  10.373  10.558 -0.1817 -0.1031 -0.1402
  560PYPI   C2B 8784  11.152  10.241  10.140 -0.0090 -0.1392  0.0671
  560PYPI   C3B 8785  11.170  10.406   9.789  0.0854 -0.0385  0.0219
  560PYPI   C4B 8786  11.039  10.252   9.387  0.0750  0.0996 -0.1412
  561PYPI    C1 8787  11.089   7.316  12.017 -0.0031  0.1453 -0.1425
  561PYPI    C2 8788  11.444   7.411  12.174 -0.0597 -0.0385  0.1028
  561PYPI    C3 8789  11.381   7.044  12.029 -0.0971  0.0457 -0.0986
  561PYPI   PO4 8790  11.072   7.432  11.819  0.1002 -0.2006 -0.1964
  561PYPI   GL1 8791  10.964   7.390  11.321 -0.0269 -0.2897 -0.1768
  561PYPI   GL2 8792  11.136   7.606  11.323  0.2422  0.1742  0.0751
  561PYPI   C1A 8793  10.953   7.192  10.948  0.5458  0.1081 -0.0562
  561PYPI   C2A 8794  11.030   7.214  10.519  0.1725 -0.0077 -0.0945
  561PYPI   D3A 8795  11.058   7.192  10.116  0.0570 -0.2540  0.0534
  561PYPI   C4A 8796  11.070   7.293   9.721  0.0606 -0.2006  0.1076
  561PYPI   C1B 8797  11.199   7.625  10.878  0.2018 -0.1183  0.0600
  561PYPI   C2B 8798  11.342   7.618  10.450  0.1726 -0.2057 -0.2361
  561PYPI   C3B 8799  11.294   7.632   9.982  0.0475  0.2246  0.0309
  561PYPI   C4B 8800  11.344   7.681   9.485  0.1554 -0.0196 -0.0478
  562PYPI    C1 8801   1.627   0.296  11.847  0.2858  0.3641  0.2113
  562PYPI    C2 8802   1.379   0.350  12.157  0.0151  0.1881  0.0297
  562PYPI    C3 8803   1.665   0.071  12.175  0.0171  0.1964  0.1309
  562PYPI   PO4 8804   1.393   0.292  11.627 -0.0817 -0.0409 -0.1800
  562PYPI   GL1 8805   1.434   0.234  11.177  0.2971 -0.3426  0.0337
  562PYPI   GL2 8806   1.292   0.567  11.019  0.0304  0.1976  0.0203
  562PYPI   C1A 8807   1.645   0.009  10.763  0.1479  0.1008 -0.0210
  562PYPI   C2A 8808   1.574  -0.024  10.258 -0.0019  0.2021  0.1348
  562PYPI   D3A 8809   1.521  -0.204   9.832 -0.0783  0.0363  0.1336
  562PYPI   C4A 8810   1.660  -0.146   9.436  0.1770  0.0787 -0.1152
  562PYPI   C1B 8811   1.326   0.367  10.650  0.1310 -0.3393  0.0667
  562PYPI   C2B 8812   1.342   0.382  10.193  0.0268 -0.0034  0.1294
  562PYPI   C3B 8813   1.370   0.316   9.776  0.0631  0.2658 -0.1689
  562PYPI   C4B 8814   1.368   0.301   9.388  0.3649 -0.0857 -0.2276
  563PYPI    C1 8815  14.241  14.147  11.791  0.0711  0.0426 -0.0945
  563PYPI    C2 8816  14.516  13.858  11.820 -0.1109 -0.1093  0.1593
  563PYPI    C3 8817  14.467  14.119  12.119 -0.0803  0.0664  0.0130
  563PYPI   PO4 8818  14.063  13.992  11.604  0.1739 -0.0472 -0.1552
  563PYPI   GL1 8819  14.049  13.927  11.132 -0.2622 -0.1894  0.3110
  563PYPI   GL2 8820  14.151  13.619  10.995  0.0583  0.1429  0.2542
  563PYPI   C1A 8821  13.970  14.175  10.721  0.2998  0.0374 -0.0842
  563PYPI   C2A 8822  13.847  14.190  10.327  0.0577 -0.0713 -0.0854
  563PYPI   D3A 8823  13.912  14.143   9.913 -0.0305 -0.0718  0.1426
  563PYPI   C4A 8824  13.878  14.229   9.465  0.3075  0.0630  0.2831
  563PYPI   C1B 8825  14.141  13.706  10.605  0.0459 -0.2935  0.2949
  563PYPI   C2B 8826  14.042  13.710  10.209  0.1115 -0.0762  0.0655
  563PYPI   C3B 8827  14.193  13.721   9.783 -0.0453 -0.0457  0.0188
  563PYPI   C4B 8828  14.213  13.797   9.366  0.2086 -0.0770  0.2311
  564PYPI    C1 8829   7.878   2.110  11.809 -0.2812 -0.0679 -0.1092
  564PYPI    C2 8830   7.581   2.312  11.984 -0.0484  0.2077 -0.0245
  564PYPI    C3 8831   7.959   2.377  12.096  0.0469 -0.1289 -0.1413
  564PYPI   PO4 8832   7.738   2.021  11.593  0.1436 -0.1923 -0.1849
  564PYPI   GL1 8833   7.575   2.038  11.102  0.0013 -0.0957 -0.1139
  564PYPI   GL2 8834   7.865   2.131  11.128 -0.1339  0.0324 -0.0348
  564PYPI   C1A 8835   7.502   2.048  10.672  0.0887 -0.1065 -0.1830
  564PYPI   C2A 8836   7.475   2.085  10.310  0.0500 -0.3125  0.0668
  564PYPI   D3A 8837   7.542   2.143   9.814  0.2497  0.2425 -0.0354
  564PYPI   C4A 8838   7.471   2.186   9.437  0.1968 -0.1112 -0.0606
  564PYPI   C1B 8839   7.987   2.091  10.669 -0.0472 -0.0552  0.0530
  564PYPI   C2B 8840   7.987   2.087  10.211 -0.0506 -0.2446 -0.0482
  564PYPI   C3B 8841   8.075   2.036   9.800 -0.2995  0.0504 -0.0732
  564PYPI   C4B 8842   8.104   2.046   9.383  0.0984 -0.1689  0.0537
  565PYPI    C1 8843  13.750   3.623  11.154  0.0511 -0.2439  0.0639
  565PYPI    C2 8844  13.440   3.483  11.365  0.2860 -0.2045  0.4457
  565PYPI    C3 8845  13.573   3.855  11.427  0.1406 -0.0660 -0.0275
  565PYPI   PO4 8846  13.722   3.615  10.922  0.2801 -0.0870  0.3962
  565PYPI   GL1 8847  13.523   3.401  10.537  0.1083 -0.2753 -0.0336
  565PYPI   GL2 8848  13.435   3.106  10.602 -0.1889 -0.1744 -0.1107
  565PYPI   C1A 8849  13.508   3.533  10.140 -0.1658 -0.0006 -0.1467
  565PYPI   C2A 8850  13.480   3.526   9.657 -0.1920  0.0143 -0.0850
  565PYPI   D3A 8851  13.446   3.323   9.261  0.0455  0.0725 -0.1379
  565PYPI   C4A 8852  13.508   2.915   8.962 -0.3256  0.2627 -0.0665
  565PYPI   C1B 8853  13.353   3.018  10.280 -0.2044  0.1009  0.0109
  565PYPI   C2B 8854  13.222   3.042   9.790  0.0412  0.3611 -0.0201
  565PYPI   C3B 8855  13.196   2.809   9.420 -0.0800 -0.1213  0.1078
  565PYPI   C4B 8856  13.051   3.085   9.011  0.3278 -0.1167 -0.0920
  566PYPI    C1 8857   0.263  16.315  11.703  0.1382 -0.1867 -0.1139
  566PYPI    C2 8858   0.064  16.119  11.990 -0.2410  0.2335 -0.0800
  566PYPI    C3 8859   0.285  16.440  12.082 -0.0237  0.1213 -0.2027
  566PYPI   PO4 8860   0.072  16.200  11.440  0.1965 -0.1136 -0.1593
  566PYPI   GL1 8861   0.041  16.304  10.982  0.1133 -0.2997  0.2037
  566PYPI   GL2 8862   0.084  16.609  10.906  0.0033 -0.0490 -0.0590
  566PYPI   C1A 8863  -0.036  16.315  10.549 -0.2589 -0.1170 -0.1203
  566PYPI   C2A 8864  -0.025  16.470  10.165 -0.0638  0.2176 -0.0013
  566PYPI   D3A 8865   0.022  16.371   9.804 -0.0380  0.2984  0.1450
  566PYPI   C4A 8866  -0.104  16.303   9.412 -0.2672  0.1821 -0.0188
  566PYPI   C1B 8867   0.194  16.828  10.584  0.0121 -0.1466  0.3098
  566PYPI   C2B 8868   0.281  16.902  10.172 -0.3105 -0.2237  0.0223
  566PYPI   C3B 8869   0.262  16.811   9.747  0.0592 -0.0316 -0.3216
  566PYPI   C4B 8870   0.205  16.765   9.334 -0.1434 -0.1027  0.4290
  567PYPI    C1 8871   9.011  10.314  11.292 -0.2572  0.1913 -0.1668
  567PYPI    C2 8872   8.712  10.498  11.483 -0.1306  0.1217  0.1043
  567PYPI    C3 8873   9.054  10.421  11.675  0.0901  0.2643 -0.2229
  567PYPI   PO4 8874   8.944  10.126  11.184 -0.0554 -0.1100 -0.0757
  567PYPI   GL1 8875   8.868  10.074  10.673 -0.0079  0.3284  0.0229
  567PYPI   GL2 8876   8.581  10.136  10.885  0.0706  0.1033 -0.4372
  567PYPI   C1A 8877   8.675  10.223  10.345  0.4661 -0.2281 -0.1740
  567PYPI   C2A 8878   8.653  10.190   9.871  0.1550  0.0262 -0.0413
  567PYPI   D3A 8879   8.739  10.163   9.395 -0.0429 -0.1227 -0.1709
  567PYPI   C4A 8880   8.574  10.454   9.250  0.2192 -0.1319 -0.1191
  567PYPI   C1B 8881   8.520  10.451  10.728  0.4104 -0.3517 -0.0609
  567PYPI   C2B 8882   8.467  10.694  10.500 -0.0746  0.0980  0.1184
  567PYPI   C3B 8883   8.382  10.703  10.139  0.1781 -0.0508 -0.2903
  567PYPI   C4B 8884   8.480  10.721   9.696 -0.0232 -0.2576  0.0901
  568PYPI    C1 8885  10.811  14.806  11.578  0.0317 -0.2770  0.1053
  568PYPI    C2 8886  10.870  14.933  11.952  0.1376  0.1373 -0.0471
  568PYPI    C3 8887  10.544  14.720  11.863 -0.0015  0.2262  0.2358
  568PYPI   PO4 8888  11.042  14.833  11.487 -0.0304 -0.1355 -0.0036
  568PYPI   GL1 8889  11.236  14.769  11.105 -0.0018  0.1066  0.1383
  568PYPI   GL2 8890  11.656  14.684  11.090  0.0752 -0.2013  0.0031
  568PYPI   C1A 8891  11.345  14.587  10.671 -0.1088 -0.1394 -0.1439
  568PYPI   C2A 8892  11.326  14.439  10.196  0.1115 -0.2600 -0.1143
  568PYPI   D3A 8893  11.238  14.469   9.677  0.1826  0.0147 -0.2318
  568PYPI   C4A 8894  11.114  14.364   9.209 -0.0026 -0.0379  0.3431
  568PYPI   C1B 8895  11.835  14.536  10.638 -0.1021 -0.1514  0.1506
  568PYPI   C2B 8896  11.861  14.495  10.216 -0.0235 -0.1442  0.0670
  568PYPI   C3B 8897  11.821  14.448   9.741  0.1373 -0.0715 -0.0759
  568PYPI   C4B 8898  12.000  14.425   9.345  0.0188 -0.0258 -0.2217
  569PYPI    C1 8899   0.017   4.103  11.432  0.0034  0.1080  0.1390
  569PYPI    C2 8900   0.263   3.875  11.649 -0.0973  0.0029  0.1439
  569PYPI    C3 8901   0.076   4.185  11.819 -0.1154 -0.0320  0.1878
  569PYPI   PO4 8902   0.128   4.191  11.217  0.0755 -0.1307  0.0461
  569PYPI   GL1 8903   0.365   4.002  10.890  0.0326 -0.0805  0.1980
  569PYPI   GL2 8904   0.148   4.211  10.741 -0.0928  0.1415 -0.0341
  569PYPI   C1A 8905   0.467   3.703  10.478  0.1683 -0.1872 -0.1976
  569PYPI   C2A 8906   0.649   3.609   9.978  0.1246  0.2791 -0.0451
  569PYPI   D3A 8907   0.773   3.677   9.620 -0.0232  0.3510 -0.0160
  569PYPI   C4A 8908   0.932   3.246   9.419  0.0241  0.0579  0.1010
  569PYPI   C1B 8909   0.373   4.207  10.445  0.0442  0.0982  0.0209
  569PYPI   C2B 8910   0.329   4.380  10.163 -0.0598 -0.1205  0.0916
  569PYPI   C3B 8911   0.252   4.537   9.845 -0.3641  0.2736  0.3927
  569PYPI   C4B 8912   0.373   4.637   9.346  0.0288 -0.2414 -0.1951
  570PYPI    C1 8913  16.380   3.805  11.324  0.2364 -0.0147 -0.1115
  570PYPI    C2 8914  16.279   3.537  11.602 -0.1204  0.1810 -0.0466
  570PYPI    C3 8915  16.636   3.715  11.617 -0.1096  0.1396  0.2471
  570PYPI   PO4 8916  16.208   3.672  11.031  0.1196 -0.1553  0.2911
  570PYPI   GL1 8917  16.240   3.603  10.636 -0.0293 -0.0501  0.0443
  570PYPI   GL2 8918  16.394   3.261  10.657 -0.1650 -0.1536  0.0138
  570PYPI   C1A 8919  16.265   3.695  10.204  0.1640  0.3247 -0.1033
  570PYPI   C2A 8920  16.368   3.742   9.812  0.0926  0.0105  0.1990
  570PYPI   D3A 8921  16.505   3.950   9.468  0.0417  0.2162  0.0714
  570PYPI   C4A 8922  16.410   3.904   9.107  0.0108  0.0188 -0.1932
  570PYPI   C1B 8923  16.488   3.281  10.211 -0.0764  0.0924  0.1955
  570PYPI   C2B 8924  16.602   3.280   9.789  0.0726  0.0928  0.2308
  570PYPI   C3B 8925  16.724   3.517   9.422  0.0432 -0.1698  0.0716
  570PYPI   C4B 8926  16.790   3.528   9.013  0.1027  0.0956  0.1204
  571PYPI    C1 8927  13.282  13.092  11.613 -0.2466  0.1131  0.2123
  571PYPI    C2 8928  13.395  12.772  11.825 -0.3706  0.0012  0.1116
  571PYPI    C3 8929  13.131  13.030  11.978 -0.5218 -0.1231  0.0626
  571PYPI   PO4 8930  13.460  13.227  11.504 -0.0107 -0.1931 -0.0065
  571PYPI   GL1 8931  13.678  13.477  11.240 -0.2941  0.2109 -0.0258
  571PYPI   GL2 8932  13.875  13.195  11.175  0.1046  0.0826 -0.3124
  571PYPI   C1A 8933  13.610  13.774  10.921  0.2702 -0.1547 -0.0752
  571PYPI   C2A 8934  13.599  13.774  10.496  0.0735  0.4728  0.1374
  571PYPI   D3A 8935  13.588  13.806  10.039 -0.1191  0.5334  0.1800
  571PYPI   C4A 8936  13.662  13.822   9.608  0.0823 -0.0305 -0.0815
  571PYPI   C1B 8937  13.823  13.206  10.783  0.1470 -0.0291 -0.2053
  571PYPI   C2B 8938  13.816  13.252  10.277 -0.3219 -0.3670 -0.0938
  571PYPI   C3B 8939  13.813  13.399   9.854  0.1795  0.0861  0.2484
  571PYPI   C4B 8940  14.009  13.368   9.466 -0.1454  0.3708 -0.0949
  572PYPI    C1 8941  13.932   4.189  11.203  0.0953 -0.0433 -0.1060
  572PYPI    C2 8942  14.058   3.945  11.494 -0.2537 -0.0411  0.0520
  572PYPI    C3 8943  14.182   4.325  11.484  0.1902 -0.1837 -0.1210
  572PYPI   PO4 8944  14.024   4.035  10.973  0.0282  0.0483  0.3116
  572PYPI   GL1 8945  13.775   3.922  10.553 -0.1548  0.3287 -0.1611
  572PYPI   GL2 8946  13.513   4.100  10.531  0.1133 -0.0153  0.1216
  572PYPI   C1A 8947  13.928   3.831  10.242  0.0190  0.4079 -0.3436
  572PYPI   C2A 8948  13.941   3.780   9.762  0.0070 -0.0616 -0.0457
  572PYPI   D3A 8949  13.883   3.535   9.337 -0.1787  0.0001 -0.2704
  572PYPI   C4A 8950  14.328   3.530   9.105  0.1867  0.0658  0.0481
  572PYPI   C1B 8951  13.532   4.125  10.125  0.0635  0.2311 -0.0010
  572PYPI   C2B 8952  13.458   4.159   9.741 -0.1534 -0.0188  0.0564
  572PYPI   C3B 8953  13.358   4.250   9.267  0.1186 -0.0260 -0.2267
  572PYPI   C4B 8954  13.222   4.723   9.126  0.1417  0.2321  0.2402
  573PYPI    C1 8955  14.825   3.810  11.212  0.1469  0.2985  0.0862
  573PYPI    C2 8956  14.530   4.059  11.107 -0.1279 -0.0606 -0.0130
  573PYPI    C3 8957  14.533   3.894  11.471  0.0788  0.1179  0.0690
  573PYPI   PO4 8958  14.817   3.638  10.984  0.1766  0.2741  0.0193
  573PYPI   GL1 8959  14.500   3.771  10.702  0.0160 -0.3436 -0.2462
  573PYPI   GL2 8960  14.394   4.079  10.567 -0.0357 -0.2387 -0.1093
  573PYPI   C1A 8961  14.391   3.625  10.383  0.0061 -0.4202 -0.0393
  573PYPI   C2A 8962  14.310   3.533   9.983 -0.1190  0.1236  0.0201
  573PYPI   D3A 8963  14.356   3.510   9.593  0.0108  0.1701 -0.0729
  573PYPI   C4A 8964  14.191   3.122   9.443  0.1275  0.0940 -0.2598
  573PYPI   C1B 8965  14.347   4.018  10.087  0.2712 -0.2058  0.3865
  573PYPI   C2B 8966  14.424   3.991   9.748 -0.3796  0.0243 -0.1768
  573PYPI   C3B 8967  14.172   4.050   9.430 -0.0794 -0.0354 -0.0819
  573PYPI   C4B 8968  13.859   4.130   9.096  0.0285 -0.2661  0.0307
  574ERGO   ROH 8969  14.868   9.811  11.034  0.0206  0.1815  0.0202
  574ERGO    R1 8970  14.792   9.778  10.764 -0.0238  0.1276  0.0381
  574ERGO    R2 8971  14.681   9.982  10.614 -0.0372  0.1044  0.0091
  574ERGO    R3 8972  14.885   9.924  10.443 -0.0643  0.0555 -0.0055
  574ERGO    R4 8973  14.657   9.985  10.269 -0.0652  0.0698  0.0114
  574ERGO    R5 8974  14.780   9.805  10.264 -0.0955  0.0540  0.0177
  574ERGO    C1 8975  14.834   9.932   9.908 -0.1070  0.0038 -0.0011
  574ERGO    C2 8976  14.893  10.035   9.578 -0.1768  0.2285  0.0147
  575ERGO   ROH 8977   4.100  13.816  10.921 -0.0334  0.1021 -0.0248
  575ERGO    R1 8978   4.205  13.782  10.660 -0.1114 -0.1359 -0.0295
  575ERGO    R2 8979   4.066  13.653  10.459 -0.3424  0.0214  0.0133
  575ERGO    R3 8980   4.114  13.884  10.323  0.0057 -0.0804 -0.0419
  575ERGO    R4 8981   4.077  13.681  10.115 -0.3728 -0.0475  0.0080
  575ERGO    R5 8982   4.247  13.816  10.136 -0.1500 -0.3246 -0.0591
  575ERGO    C1 8983   4.129  13.914   9.787 -0.0637 -0.1831 -0.0470
  575ERGO    C2 8984   4.016  13.869   9.470  0.3501 -0.0692 -0.0035
  576ERGO   ROH 8985  13.475   2.224  10.573  0.1353  0.3307 -0.0339
  576ERGO    R1 8986  13.419   2.388  10.349 -0.0176  0.2454 -0.0619
  576ERGO    R2 8987  13.413   2.290  10.091  0.1412  0.2057 -0.0615
  576ERGO    R3 8988  13.166   2.403  10.089  0.0059 -0.0840 -0.1046
  576ERGO    R4 8989  13.235   2.372   9.806  0.1062  0.0666 -0.0797
  576ERGO    R5 8990  13.171   2.556   9.905 -0.1354 -0.0366 -0.0608
  576ERGO    C1 8991  12.900   2.527   9.639 -0.0413 -0.2865 -0.1307
  576ERGO    C2 8992  12.746   2.641   9.298  0.0051 -0.0729  0.0595
  577ERGO   ROH 8993   2.157   7.518  11.161 -0.0940  0.2523  0.0059
  577ERGO    R1 8994   2.182   7.658  10.915  0.0741  0.2758  0.0339
  577ERGO    R2 8995   2.419   7.671  10.775  0.0957  0.0165  0.0326
  577ERGO    R3 8996   2.266   7.575  10.571 -0.0282  0.2401  0.0183
  577ERGO    R4 8997   2.490   7.710  10.439  0.1979 -0.1181  0.0386
  577ERGO    R5 8998   2.278   7.745  10.403  0.2568  0.2098  0.0082
  577ERGO    C1 8999   2.389   7.643  10.052  0.1412  0.0134  0.0286
  577ERGO    C2 9000   2.258   7.589   9.764  0.1137 -0.0193 -0.1658
  578ERGO   ROH 9001   8.459   2.284  11.082  0.3579  0.3192 -0.1589
  578ERGO    R1 9002   8.511   2.265  10.805  0.3939  0.0466 -0.1364
  578ERGO    R2 9003   8.685   2.080  10.698  0.0981 -0.3383  0.0240
  578ERGO    R3 9004   8.471   2.014  10.545  0.0116 -0.0608  0.0200
  578ERGO    R4 9005   8.686   2.066  10.353  0.0576 -0.2559  0.0202
  578ERGO    R5 9006   8.488   2.157  10.354  0.1587 -0.0331  0.0544
  578ERGO    C1 9007   8.486   1.996  10.008 -0.0473  0.0525  0.0144
  578ERGO    C2 9008   8.577   2.016   9.711 -0.2886 -0.1551  0.2320
  579ERGO   ROH 9009  14.580   4.489  10.399  0.0094  0.0178 -0.1684
  579ERGO    R1 9010  14.500   4.610  10.156 -0.0341 -0.0445 -0.1860
  579ERGO    R2 9011  14.644   4.583   9.922  0.0420  0.0735 -0.1565
  579ERGO    R3 9012  14.406   4.497   9.823  0.1325 -0.1200 -0.2079
  579ERGO    R4 9013  14.552   4.598   9.590 -0.0010  0.2494 -0.1366
  579ERGO    R5 9014  14.351   4.656   9.653 -0.0657 -0.0365 -0.0684
  579ERGO    C1 9015  14.274   4.526   9.303  0.0591  0.1702 -0.1731
  579ERGO    C2 9016  14.237   4.479   9.025  0.1874  0.1714  0.2371
  580ERGO   ROH 9017  16.757   3.664  10.737 -0.0180 -0.1197  0.0385
  580ERGO    R1 9018  16.731   3.669  10.455  0.0466  0.0662  0.0337
  580ERGO    R2 9019  16.728   3.904  10.310  0.1567  0.1618  0.1777
  580ERGO    R3 9020  16.929   3.784  10.173  0.1494  0.1803  0.1520
  580ERGO    R4 9021  16.786   3.944   9.972 -0.0916 -0.1011  0.1005
  580ERGO    R5 9022  16.832   3.731   9.960  0.0481 -0.0787  0.2619
  580ERGO    C1 9023  17.009   3.855   9.646 -0.2430 -0.2368  0.0314
  580ERGO    C2 9024  17.011   3.896   9.269 -0.1449 -0.1067  0.0412
  581ERGO   ROH 9025   4.706   2.327  11.044  0.0946  0.1830 -0.0887
  581ERGO    R1 9026   4.753   2.210  10.790  0.2057  0.1619 -0.0589
  581ERGO    R2 9027   4.577   2.238  10.579  0.1436 -0.1109 -0.0475
  581ERGO    R3 9028   4.799   2.327  10.449  0.0244  0.1180 -0.0999
  581ERGO    R4 9029   4.629   2.217  10.237  0.1622 -0.2301 -0.0379
  581ERGO    R5 9030   4.836   2.165  10.277  0.2378  0.0699 -0.0117
  581ERGO    C1 9031   4.867   2.288   9.917  0.0612 -0.0845 -0.0813
  581ERGO    C2 9032   4.959   2.269   9.525  0.0550 -0.1557  0.0080
  582ERGO   ROH 9033   8.951  15.179  10.969  0.0413 -0.0080  0.1338
  582ERGO    R1 9034   9.058  15.218  10.709  0.0912 -0.2422  0.1171
  582ERGO    R2 9035   9.057  15.020  10.516 -0.2904 -0.2753  0.1459
  582ERGO    R3 9036   8.933  15.211  10.368  0.0412 -0.0642  0.1308
  582ERGO    R4 9037   9.045  15.026  10.171 -0.2147 -0.2376  0.1439
  582ERGO    R5 9038   9.075  15.241  10.178  0.1297 -0.2816  0.1600
  582ERGO    C1 9039   8.922  15.209   9.831  0.1409 -0.0174  0.1284
  582ERGO    C2 9040   8.932  15.129   9.521 -0.1381 -0.0872 -0.1305
  583ERGO   ROH 9041   9.735   7.572  11.334  0.0843  0.2317 -0.1194
  583ERGO    R1 9042   9.639   7.413  11.120  0.1300  0.1048 -0.0462
  583ERGO    R2 9043   9.470   7.512  10.925  0.0112 -0.0645 -0.0286
  583ERGO    R3 9044   9.662   7.417  10.757  0.0265  0.0115 -0.0551
  583ERGO    R4 9045   9.419   7.428  10.594  0.0108 -0.0072 -0.0433
  583ERGO    R5 9046   9.548   7.255  10.622  0.0525  0.0125 -0.0827
  583ERGO    C1 9047   9.568   7.290  10.243  0.0251  0.0975 -0.0768
  583ERGO    C2 9048   9.499   7.317   9.871 -0.0017  0.0599  0.1825
  584ERGO   ROH 9049   2.113   2.183  10.990  0.0325  0.1459  0.0515
  584ERGO    R1 9050   2.216   2.263  10.738 -0.1305  0.1989  0.0001
  584ERGO    R2 9051   2.452   2.162  10.635  0.0139  0.5179  0.0055
  584ERGO    R3 9052   2.295   2.100  10.422  0.0684  0.1814  0.0580
  584ERGO    R4 9053   2.562   2.138  10.308  0.0356  0.3163  0.0271
  584ERGO    R5 9054   2.379   2.236  10.244 -0.0534  0.0949 -0.0664
  584ERGO    C1 9055   2.478   2.065   9.918  0.0993 -0.1171  0.0891
  584ERGO    C2 9056   2.419   1.946   9.537  0.1035  0.0861  0.1717
  585ERGO   ROH 9057   9.579   0.957  10.957  0.1469 -0.1407 -0.0663
  585ERGO    R1 9058   9.494   1.068  10.711  0.1142 -0.0161  0.0005
  585ERGO    R2 9059   9.670   1.135  10.508  0.0786 -0.0116 -0.0311
  585ERGO    R3 9060   9.508   0.975  10.359 -0.0319  0.1060 -0.0384
  585ERGO    R4 9061   9.673   1.117  10.163  0.0187  0.0462 -0.0346
  585ERGO    R5 9062   9.456   1.107  10.166  0.0148  0.1681 -0.0071
  585ERGO    C1 9063   9.523   0.957   9.822 -0.1199  0.1903 -0.0435
  585ERGO    C2 9064   9.731   0.932   9.563  0.0386 -0.0330 -0.1440
  586ERGO   ROH 9065  10.014  15.184  10.800  0.2746  0.0590  0.0506
  586ERGO    R1 9066  10.108  15.099  10.546  0.1313 -0.1698  0.0680
  586ERGO    R2 9067   9.968  14.923  10.386 -0.2309  0.0900  0.0649
  586ERGO    R3 9068   9.994  15.121  10.201  0.2004  0.0348  0.0604
  586ERGO    R4 9069   9.909  14.886  10.048 -0.5356  0.2825  0.0944
  586ERGO    R5 9070  10.084  15.010  10.009 -0.2167 -0.1946 -0.0009
  586ERGO    C1 9071   9.900  15.050   9.677 -0.3081  0.3429  0.1073
  586ERGO    C2 9072   9.745  15.163   9.321 -0.1135  0.0076  0.2861
  587ERGO   ROH 9073   5.506  16.487  10.986  0.0474  0.1518 -0.1459
  587ERGO    R1 9074   5.496  16.366  10.730  0.1505  0.0863 -0.1209
  587ERGO    R2 9075   5.295  16.421  10.548  0.1283 -0.0886 -0.1543
  587ERGO    R3 9076   5.505  16.479  10.384  0.1051  0.0152 -0.1453
  587ERGO    R4 9077   5.295  16.378  10.205  0.1672 -0.1205 -0.1491
  587ERGO    R5 9078   5.500  16.305  10.219  0.2095 -0.0038 -0.1298
  587ERGO    C1 9079   5.491  16.408   9.852  0.1681 -0.0417 -0.1376
  587ERGO    C2 9080   5.369  16.409   9.476  0.1511 -0.3833 -0.1749
  588ERGO   ROH 9081  12.608  14.686  10.946  0.0379  0.2562 -0.1441
  588ERGO    R1 9082  12.603  14.846  10.713  0.1191  0.1250 -0.2385
  588ERGO    R2 9083  12.772  14.804  10.499 -0.0020 -0.1807 -0.2816
  588ERGO    R3 9084  12.540  14.795  10.358 -0.0673 -0.0240 -0.1853
  588ERGO    R4 9085  12.747  14.844  10.157 -0.1421  0.0268 -0.2485
  588ERGO    R5 9086  12.567  14.962  10.189 -0.0904  0.0659 -0.1002
  588ERGO    C1 9087  12.515  14.859   9.825 -0.2850  0.2946 -0.1388
  588ERGO    C2 9088  12.664  14.798   9.539 -0.1382  0.2493  0.2495
  589ERGO   ROH 9089  13.022   7.925  11.321  0.0340  0.0769  0.0631
  589ERGO    R1 9090  13.155   7.885  11.074 -0.0280  0.1688  0.0156
  589ERGO    R2 9091  13.105   7.665  10.913  0.0160  0.1735  0.0057
  589ERGO    R3 9092  13.058   7.855  10.725 -0.1245  0.1754  0.0395
  589ERGO    R4 9093  13.171   7.631  10.575  0.0662  0.2800  0.0032
  589ERGO    R5 9094  13.242   7.836  10.573 -0.0929  0.3442  0.0467
  589ERGO    C1 9095  13.165   7.789  10.202 -0.0365  0.3437  0.0335
  589ERGO    C2 9096  13.177   7.863   9.896 -0.1419 -0.0586 -0.2979
  590ERGO   ROH 9097   8.230  12.472  11.089  0.0306 -0.2930 -0.0813
  590ERGO    R1 9098   8.133  12.564  10.839 -0.2807 -0.3561  0.0115
  590ERGO    R2 9099   8.295  12.692  10.655 -0.6548  0.2167  0.0588
  590ERGO    R3 9100   8.204  12.498  10.489 -0.1884  0.0853 -0.0585
  590ERGO    R4 9101   8.264  12.724  10.313 -0.3602  0.2000  0.0275
  590ERGO    R5 9102   8.076  12.616  10.324 -0.2101 -0.0963 -0.1749
  590ERGO    C1 9103   8.161  12.560   9.957  0.2494  0.0671 -0.1009
  590ERGO    C2 9104   8.184  12.455   9.606 -0.0403  0.1152 -0.0229
  591ERGO   ROH 9105   5.624   0.939  10.937 -0.0573  0.4792 -0.1047
  591ERGO    R1 9106   5.589   0.785  10.702 -0.0545  0.2812  0.0215
  591ERGO    R2 9107   5.411   0.856  10.502  0.0116  0.1641 -0.0861
  591ERGO    R3 9108   5.631   0.835  10.344  0.0433 -0.0467 -0.0150
  591ERGO    R4 9109   5.412   0.894  10.158  0.1498  0.0638 -0.0968
  591ERGO    R5 9110   5.552   0.727  10.145  0.0267 -0.0425 -0.0066
  591ERGO    C1 9111   5.619   0.895   9.810  0.2600 -0.1925 -0.0363
  591ERGO    C2 9112   5.584   0.848   9.592  0.0946  0.1836  0.0144
  592ERGO   ROH 9113   2.433   0.041  11.298 -0.1545  0.1025  0.0628
  592ERGO    R1 9114   2.568   0.016  11.050 -0.0719 -0.0796  0.1243
  592ERGO    R2 9115   2.532  -0.200  10.883 -0.1750 -0.1040  0.1739
  592ERGO    R3 9116   2.475  -0.008  10.699  0.0513 -0.1111  0.0939
  592ERGO    R4 9117   2.543  -0.245  10.540 -0.2075 -0.2506  0.1919
  592ERGO    R5 9118   2.632  -0.047  10.522  0.0171 -0.3572  0.1166
  592ERGO    C1 9119   2.496  -0.091  10.169 -0.0139 -0.3427  0.1272
  592ERGO    C2 9120   2.557  -0.267   9.862 -0.0142 -0.2346 -0.0005
  593ERGO   ROH 9121   6.788  11.023  11.268 -0.0336  0.1431 -0.0100
  593ERGO    R1 9122   6.941  10.959  11.039  0.0475  0.1956  0.0286
  593ERGO    R2 9123   6.887  10.738  10.880  0.1795  0.1616  0.0278
  593ERGO    R3 9124   6.881  10.923  10.682  0.1440  0.1480  0.0170
  593ERGO    R4 9125   6.922  10.669  10.543  0.2543  0.1557  0.0368
  593ERGO    R5 9126   7.044  10.848  10.524  0.1938  0.1971  0.0455
  593ERGO    C1 9127   6.936  10.803  10.161  0.2647  0.1395  0.0319
  593ERGO    C2 9128   6.903  10.789   9.791  0.0478  0.3973 -0.1628
  594ERGO   ROH 9129  16.730   7.493  10.937 -0.2722 -0.0601 -0.1778
  594ERGO    R1 9130  16.872   7.450  10.696 -0.1914  0.0661 -0.1532
  594ERGO    R2 9131  16.782   7.280  10.499 -0.0465  0.0484 -0.2041
  594ERGO    R3 9132  16.811   7.500  10.341 -0.1381  0.0942 -0.1586
  594ERGO    R4 9133  16.767   7.279  10.153 -0.1589  0.1341 -0.2006
  594ERGO    R5 9134  16.933   7.420  10.151 -0.1855  0.1649 -0.2190
  594ERGO    C1 9135  16.786   7.484   9.804 -0.3104  0.2270 -0.1559
  594ERGO    C2 9136  16.727   7.477   9.435 -0.2564 -0.0535 -0.2390
  595ERGO   ROH 9137  15.200   8.843  10.964  0.4360  0.5473  0.0471
  595ERGO    R1 9138  15.138   8.968  10.718  0.3860  0.3858 -0.0243
  595ERGO    R2 9139  15.322   8.996  10.513  0.2497 -0.0550 -0.2189
  595ERGO    R3 9140  15.129   8.872  10.367 -0.0424  0.0438  0.0709
  595ERGO    R4 9141  15.289   9.020  10.170 -0.1396 -0.1909 -0.1961
  595ERGO    R5 9142  15.073   9.032  10.197 -0.1035  0.0144  0.0621
  595ERGO    C1 9143  15.089   8.919   9.833 -0.6405 -0.1771  0.0893
  595ERGO    C2 9144  15.354   8.943   9.547  0.0913 -0.0713 -0.0118
  596ERGO   ROH 9145  13.124  16.045  11.290  0.0988  0.0609 -0.1074
  596ERGO    R1 9146  13.021  16.146  11.046 -0.0573 -0.0456 -0.0856
  596ERGO    R2 9147  13.184  16.217  10.834 -0.1791  0.0931 -0.1259
  596ERGO    R3 9148  13.024  16.045  10.696 -0.0571 -0.0578 -0.0842
  596ERGO    R4 9149  13.134  16.223  10.492 -0.3741  0.1482 -0.0987
  596ERGO    R5 9150  12.924  16.179  10.526 -0.3142 -0.1131  0.0116
  596ERGO    C1 9151  12.955  16.065  10.164 -0.3730  0.0388 -0.0438
  596ERGO    C2 9152  13.014  16.087   9.870  0.1747  0.0500  0.0095
  597ERGO   ROH 9153  14.924   3.553  10.486  0.4330 -0.2203 -0.1723
  597ERGO    R1 9154  14.997   3.596  10.216  0.2861 -0.0255 -0.1836
  597ERGO    R2 9155  14.937   3.416  10.015  0.4131 -0.0131 -0.2393
  597ERGO    R3 9156  14.822   3.633   9.899  0.1235 -0.0884 -0.1015
  597ERGO    R4 9157  14.903   3.464   9.674  0.2651  0.1237 -0.2054
  597ERGO    R5 9158  14.954   3.673   9.703  0.0230  0.1694 -0.1160
  597ERGO    C1 9159  14.775   3.697   9.367 -0.0930  0.1328 -0.0561
  597ERGO    C2 9160  14.838   3.681   9.114  0.2253 -0.0079  0.4318
  598ERGO   ROH 9161   3.617   4.343  10.720  0.0139 -0.2437 -0.1071
  598ERGO    R1 9162   3.528   4.414  10.461 -0.0127 -0.1330 -0.0697
  598ERGO    R2 9163   3.610   4.645  10.335 -0.0534 -0.0534  0.0311
  598ERGO    R3 9164   3.681   4.474  10.136 -0.0365  0.0448 -0.0466
  598ERGO    R4 9165   3.648   4.733  10.002 -0.0004  0.0994  0.0774
  598ERGO    R5 9166   3.552   4.545   9.947  0.0007  0.1394 -0.0290
  598ERGO    C1 9167   3.737   4.622   9.623  0.0463  0.2806  0.0314
  598ERGO    C2 9168   3.825   4.670   9.257 -0.2020 -0.0821  0.3363
  599ERGO   ROH 9169   5.311  13.247  10.669  0.0004  0.5006  0.0612
  599ERGO    R1 9170   5.173  13.366  10.453 -0.1745  0.2588  0.0364
  599ERGO    R2 9171   5.243  13.323  10.189 -0.1521  0.2565  0.0464
  599ERGO    R3 9172   4.982  13.251  10.165 -0.0711 -0.0733  0.0948
  599ERGO    R4 9173   5.066  13.318   9.892 -0.2270  0.1451  0.0915
  599ERGO    R5 9174   4.894  13.400   9.999 -0.3091 -0.1153  0.1744
  599ERGO    C1 9175   4.718  13.248   9.697 -0.1947 -0.2293  0.1631
  599ERGO    C2 9176   4.713  13.211   9.274 -0.0645  0.0705 -0.1030
  600ERGO   ROH 9177   1.501  12.681  11.493 -0.1775 -0.0955 -0.1514
  600ERGO    R1 9178   1.613  12.778  11.252 -0.3651  0.1712 -0.1339
  600ERGO    R2 9179   1.777  12.624  11.092  0.0610  0.5641 -0.0851
  600ERGO    R3 9180   1.597  12.690  10.899 -0.0713  0.1003 -0.1341
  600ERGO    R4 9181   1.817  12.562  10.754  0.2052  0.4384 -0.0471
  600ERGO    R5 9182   1.731  12.758  10.713 -0.1855  0.2594 -0.1665
  600ERGO    C1 9183   1.671  12.588  10.377  0.1648 -0.0699 -0.0709
  600ERGO    C2 9184   1.699  12.600  10.000 -0.1490 -0.0315 -0.1055
  601ERGO   ROH 9185  15.595   4.181  10.720 -0.1680 -0.4044 -0.1250
  601ERGO    R1 9186  15.604   4.362  10.501 -0.3852 -0.2586 -0.0164
  601ERGO    R2 9187  15.818   4.375  10.327 -0.2758  0.2871  0.1417
  601ERGO    R3 9188  15.625   4.337  10.139 -0.0690 -0.0144 -0.0189
  601ERGO    R4 9189  15.850   4.452   9.992 -0.0856  0.2436  0.1482
  601ERGO    R5 9190  15.645   4.526   9.994 -0.1900 -0.0215 -0.0475
  601ERGO    C1 9191  15.688   4.462   9.620  0.2192 -0.0647  0.0012
  601ERGO    C2 9192  15.623   4.274   9.362  0.1756  0.1738 -0.1517
  602ERGO   ROH 9193   2.212   6.403  11.078 -0.0205 -0.0031 -0.0751
  602ERGO    R1 9194   2.146   6.578  10.865  0.0576  0.0248 -0.0769
  602ERGO    R2 9195   2.338   6.703  10.711  0.1149 -0.1231 -0.1296
  602ERGO    R3 9196   2.201   6.589  10.506 -0.0094 -0.0471 -0.0890
  602ERGO    R4 9197   2.393   6.768  10.376 -0.1019  0.0098 -0.1408
  602ERGO    R5 9198   2.177   6.765  10.345 -0.1198  0.0132 -0.0058
  602ERGO    C1 9199   2.295   6.700   9.988 -0.3449  0.1584 -0.1092
  602ERGO    C2 9200   2.219   6.719   9.642  0.1237  0.0783 -0.6401
  603ERGO   ROH 9201  15.951  14.269  11.232 -0.0557 -0.1896  0.0560
  603ERGO    R1 9202  15.778  14.278  11.008 -0.0556 -0.2818  0.0519
  603ERGO    R2 9203  15.795  14.476  10.816 -0.2800 -0.1601  0.1555
  603ERGO    R3 9204  15.813  14.264  10.646 -0.0161 -0.0537  0.0445
  603ERGO    R4 9205  15.765  14.495  10.472 -0.3829 -0.0255  0.1712
  603ERGO    R5 9206  15.650  14.310  10.476 -0.1222 -0.1958  0.1045
  603ERGO    C1 9207  15.764  14.308  10.112 -0.1950  0.1527  0.0762
  603ERGO    C2 9208  15.676  14.437   9.832 -0.1659 -0.2070  0.0885
  604ERGO   ROH 9209   0.839   8.442  11.164 -0.0845 -0.3248 -0.1013
  604ERGO    R1 9210   0.870   8.631  10.955 -0.0922 -0.1590  0.0448
  604ERGO    R2 9211   1.038   8.589  10.740  0.0086  0.0724  0.0729
  604ERGO    R3 9212   0.813   8.639  10.596  0.0375  0.0723  0.0289
  604ERGO    R4 9213   1.031   8.636  10.398  0.0459 -0.1087  0.0468
  604ERGO    R5 9214   0.885   8.795  10.428  0.1005 -0.0436 -0.0504
  604ERGO    C1 9215   0.816   8.710  10.063  0.0946 -0.2142 -0.0097
  604ERGO    C2 9216   0.840   8.714   9.797  0.1818 -0.1470  0.4144
  605ERGO   ROH 9217  13.344  12.055  10.972  0.2519 -0.0725 -0.0197
  605ERGO    R1 9218  13.504  12.044  10.739  0.1304 -0.1386 -0.1019
  605ERGO    R2 9219  13.460  11.860  10.537 -0.0941 -0.0746 -0.1182
  605ERGO    R3 9220  13.453  12.083  10.380 -0.0230 -0.0385 -0.0692
  605ERGO    R4 9221  13.409  11.860  10.195 -0.0229  0.0166 -0.1289
  605ERGO    R5 9222  13.560  12.016  10.177  0.0058 -0.0073 -0.0618
  605ERGO    C1 9223  13.372  12.068   9.849  0.0851  0.1038 -0.0892
  605ERGO    C2 9224  13.493  12.063   9.632 -0.4560 -0.1001 -0.0093
  606ERGO   ROH 9225   9.150  10.584  10.859 -0.1270 -0.1657  0.0108
  606ERGO    R1 9226   8.997  10.613  10.622  0.0642  0.0896 -0.0869
  606ERGO    R2 9227   9.081  10.766  10.408  0.4779 -0.0785 -0.0577
  606ERGO    R3 9228   9.040  10.537  10.269  0.1457 -0.0269 -0.0515
  606ERGO    R4 9229   9.069  10.745  10.063  0.4063 -0.0727 -0.0555
  606ERGO    R5 9230   8.904  10.604  10.083  0.2152  0.1544 -0.0355
  606ERGO    C1 9231   9.023  10.517   9.732  0.0528 -0.0208 -0.0483
  606ERGO    C2 9232   9.068  10.515   9.436 -0.0809 -0.0094 -0.3397
  607ERGO   ROH 9233   1.713   4.760  10.902  0.2510 -0.1497 -0.0893
  607ERGO    R1 9234   1.603   4.747  10.641  0.2454 -0.1555 -0.0876
  607ERGO    R2 9235   1.526   4.972  10.500 -0.0539 -0.1738  0.0316
  607ERGO    R3 9236   1.692   4.870  10.311  0.0663  0.1304 -0.0313
  607ERGO    R4 9237   1.501   5.034  10.161 -0.2296 -0.1421  0.0503
  607ERGO    R5 9238   1.549   4.825  10.124  0.0952 -0.0584 -0.0059
  607ERGO    C1 9239   1.642   4.975   9.786 -0.2192  0.1618  0.0020
  607ERGO    C2 9240   1.695   4.972   9.439  0.3768 -0.0354 -0.2052
  608ERGO   ROH 9241  10.632  16.982  11.130 -0.0003 -0.2984 -0.2402
  608ERGO    R1 9242  10.737  16.966  10.868  0.0236 -0.2575 -0.2347
  608ERGO    R2 9243  10.670  16.762  10.694 -0.1150 -0.1293 -0.3453
  608ERGO    R3 9244  10.603  16.968  10.529  0.0667  0.0067 -0.2502
  608ERGO    R4 9245  10.730  16.771  10.353 -0.0540  0.0146 -0.3305
  608ERGO    R5 9246  10.784  16.981  10.373  0.0969 -0.0407 -0.2117
  608ERGO    C1 9247  10.702  16.969  10.001  0.1520  0.2259 -0.2327
  608ERGO    C2 9248  10.651  16.889   9.624  0.0926  0.0685 -0.4957
  609ERGO   ROH 9249   4.871  10.155  10.813 -0.0553  0.1232  0.0701
  609ERGO    R1 9250   4.794  10.054  10.560  0.2177 -0.1625  0.0956
  609ERGO    R2 9251   4.638  10.199  10.383 -0.1368 -0.6044  0.0301
  609ERGO    R3 9252   4.844  10.148  10.212  0.0189 -0.1522  0.0683
  609ERGO    R4 9253   4.622  10.232  10.040 -0.1024 -0.5064  0.0375
  609ERGO    R5 9254   4.739  10.049  10.021  0.2577 -0.2862  0.0008
  609ERGO    C1 9255   4.806  10.204   9.679  0.0638 -0.0248  0.0777
  609ERGO    C2 9256   4.747  10.275   9.322 -0.1408 -0.0146  0.2513
  610ERGO   ROH 9257   9.351  12.440  10.859 -0.1494 -0.2049 -0.1264
  610ERGO    R1 9258   9.206  12.382  10.623 -0.1355 -0.0280 -0.1789
  610ERGO    R2 9259   9.136  12.576  10.440  0.1040  0.0687 -0.1646
  610ERGO    R3 9260   9.262  12.411  10.265 -0.0036 -0.0215 -0.1597
  610ERGO    R4 9261   9.147  12.622  10.097  0.0508  0.0095 -0.1749
  610ERGO    R5 9262   9.120  12.407  10.072 -0.0510  0.0105 -0.1307
  610ERGO    C1 9263   9.272  12.494   9.734 -0.0812 -0.1098 -0.1764
  610ERGO    C2 9264   9.201  12.398   9.362  0.0403 -0.0089  0.1121
  611ERGO   ROH 9265   8.522  10.604   6.407  0.0715  0.2562  0.1835
  611ERGO    R1 9266   8.418  10.500   6.648 -0.1235  0.2398  0.0942
  611ERGO    R2 9267   8.579  10.422   6.859 -0.2701 -0.1240  0.0805
  611ERGO    R3 9268   8.422  10.593   7.000 -0.0637  0.0056  0.1564
  611ERGO    R4 9269   8.555  10.429   7.203 -0.1870 -0.1755  0.0876
  611ERGO    R5 9270   8.341  10.462   7.183 -0.1578  0.0489  0.1437
  611ERGO    C1 9271   8.394  10.595   7.537  0.0550 -0.0839  0.1630
  611ERGO    C2 9272   8.432  10.465   7.819 -0.1385 -0.0167 -0.2548
  612ERGO   ROH 9273   8.928   4.033  10.942  0.1645 -0.0431  0.0005
  612ERGO    R1 9274   8.883   4.166  10.696  0.3583  0.0640  0.0208
  612ERGO    R2 9275   9.090   4.242  10.529  0.4721 -0.3744 -0.0540
  612ERGO    R3 9276   8.949   4.100  10.345  0.0897 -0.0758 -0.0052
  612ERGO    R4 9277   9.048   4.333  10.198  0.3641 -0.1817  0.0113
  612ERGO    R5 9278   8.841   4.266  10.210  0.2574  0.1560  0.1415
  612ERGO    C1 9279   8.891   4.252   9.833 -0.0579  0.2108  0.0951
  612ERGO    C2 9280   9.038   4.145   9.544  0.0591 -0.0047 -0.2552
  613ERGO   ROH 9281  16.604   5.546  10.874 -0.0052  0.0348 -0.0076
  613ERGO    R1 9282  16.482   5.592  10.623  0.0550  0.1752 -0.0141
  613ERGO    R2 9283  16.557   5.799  10.456  0.2754  0.1202  0.0003
  613ERGO    R3 9284  16.589   5.599  10.275  0.0920  0.0938 -0.0021
  613ERGO    R4 9285  16.610   5.845  10.117  0.2554  0.0593 -0.0099
  613ERGO    R5 9286  16.477   5.677  10.079  0.1254  0.1672  0.0158
  613ERGO    C1 9287  16.671   5.683   9.750  0.0716 -0.0009 -0.0181
  613ERGO    C2 9288  16.726   5.683   9.426 -0.2131 -0.1640  0.1706
  614ERGO   ROH 9289   6.265   8.981  10.838  0.1610 -0.0139 -0.0520
  614ERGO    R1 9290   6.359   9.073  10.587 -0.0812  0.3097 -0.0290
  614ERGO    R2 9291   6.376   8.909  10.366  0.3599  0.4051 -0.0611
  614ERGO    R3 9292   6.226   9.104  10.250 -0.1703  0.0433 -0.0249
  614ERGO    R4 9293   6.320   8.940  10.026  0.5036  0.4323 -0.0839
  614ERGO    R5 9294   6.342   9.156  10.047 -0.1619  0.5215  0.0773
  614ERGO    C1 9295   6.147   9.141   9.719  0.0895  0.1087 -0.0630
  614ERGO    C2 9296   6.144   9.000   9.475 -0.0822  0.2758  0.0126
  615ERGO   ROH 9297   7.062   5.262  11.021 -0.2832 -0.3170  0.1372
  615ERGO    R1 9298   6.924   5.245  10.775 -0.1901 -0.2570  0.0807
  615ERGO    R2 9299   6.944   5.439  10.579 -0.0835 -0.2314  0.1209
  615ERGO    R3 9300   7.012   5.227  10.423 -0.0575 -0.2163  0.1105
  615ERGO    R4 9301   6.977   5.450  10.235  0.1752 -0.1401  0.1454
  615ERGO    R5 9302   6.880   5.255  10.225  0.0969 -0.0996  0.0183
  615ERGO    C1 9303   7.059   5.258   9.888  0.3502 -0.0727  0.1501
  615ERGO    C2 9304   7.021   5.262   9.536  0.2033 -0.2858 -0.0208
  616ERGO   ROH 9305  17.314   1.411  10.777  0.2171 -0.4138  0.1298
  616ERGO    R1 9306  17.342   1.286  10.524  0.2244 -0.2346  0.0436
  616ERGO    R2 9307  17.206   1.373  10.299  0.0735 -0.2076  0.1593
  616ERGO    R3 9308  17.456   1.384  10.193  0.0227  0.0562  0.0518
  616ERGO    R4 9309  17.281   1.322   9.966 -0.0228 -0.1876  0.1320
  616ERGO    R5 9310  17.458   1.211  10.027  0.1398  0.0172  0.0828
  616ERGO    C1 9311  17.560   1.303   9.672 -0.1267  0.0717  0.0152
  616ERGO    C2 9312  17.750   1.329   9.483 -0.0660  0.2206  0.0209
  617ERGO   ROH 9313  15.508   5.281  10.850  0.1858  0.0735  0.0975
  617ERGO    R1 9314  15.570   5.416  10.610  0.2392 -0.0166  0.0606
  617ERGO    R2 9315  15.784   5.345  10.450  0.0900 -0.2772 -0.0257
  617ERGO    R3 9316  15.593   5.331  10.257 -0.0110 -0.0726  0.0555
  617ERGO    R4 9317  15.843   5.377  10.111 -0.0417 -0.1897 -0.0415
  617ERGO    R5 9318  15.660   5.494  10.095  0.0287 -0.0553  0.0873
  617ERGO    C1 9319  15.699   5.383   9.732 -0.2132  0.0534  0.0255
  617ERGO    C2 9320  15.793   5.305   9.387 -0.2714 -0.0383  0.2311
  618ERGO   ROH 9321   7.190   7.065  10.684 -0.0399  0.0617 -0.0975
  618ERGO    R1 9322   7.068   7.088  10.430 -0.0861  0.1114 -0.0719
  618ERGO    R2 9323   7.154   7.269  10.239 -0.0448  0.0702 -0.0979
  618ERGO    R3 9324   7.171   7.047  10.083 -0.1789  0.0567 -0.0920
  618ERGO    R4 9325   7.169   7.271   9.894 -0.0784  0.0450 -0.0989
  618ERGO    R5 9326   7.035   7.098   9.892 -0.1684  0.1184 -0.0796
  618ERGO    C1 9327   7.192   7.064   9.546 -0.2238  0.0177 -0.0938
  618ERGO    C2 9328   7.199   7.108   9.222  0.2325 -0.3199 -0.4380
  619ERGO   ROH 9329   8.794   7.413  10.956 -0.1253  0.0290  0.0845
  619ERGO    R1 9330   8.990   7.444  10.754 -0.0951 -0.0918  0.0940
  619ERGO    R2 9331   9.017   7.266  10.545 -0.1783 -0.1242  0.1071
  619ERGO    R3 9332   8.992   7.489  10.393 -0.0499 -0.1200  0.0915
  619ERGO    R4 9333   9.009   7.268  10.200 -0.2471 -0.1452  0.1087
  619ERGO    R5 9334   9.133   7.448  10.203 -0.1196 -0.2352  0.0667
  619ERGO    C1 9335   8.980   7.480   9.855 -0.1666 -0.1536  0.0951
  619ERGO    C2 9336   8.955   7.329   9.495 -0.1257 -0.0878  0.0529
  620ERGO   ROH 9337  11.761   1.664  10.765 -0.3900 -0.1289  0.0839
  620ERGO    R1 9338  11.673   1.728  10.503 -0.1008  0.0208  0.0207
  620ERGO    R2 9339  11.837   1.851  10.317  0.2034 -0.1523  0.1716
  620ERGO    R3 9340  11.768   1.638  10.163  0.0622 -0.0434  0.0812
  620ERGO    R4 9341  11.851   1.844   9.972  0.3476 -0.0616  0.1744
  620ERGO    R5 9342  11.663   1.735   9.972  0.2375  0.1189  0.0614
  620ERGO    C1 9343  11.795   1.640   9.627  0.2990  0.0935  0.0912
  620ERGO    C2 9344  11.725   1.686   9.396 -0.3268  0.0092 -0.2078
  621ERGO   ROH 9345  13.533   4.647  10.404 -0.1953 -0.1722 -0.0043
  621ERGO    R1 9346  13.562   4.769  10.150 -0.1098 -0.0444  0.0659
  621ERGO    R2 9347  13.482   4.646   9.916  0.0391  0.0413 -0.0308
  621ERGO    R3 9348  13.340   4.875   9.882 -0.0130  0.0154  0.0089
  621ERGO    R4 9349  13.427   4.801   9.612 -0.1117  0.0077 -0.0219
  621ERGO    R5 9350  13.458   4.993   9.711 -0.1025  0.0211 -0.0498
  621ERGO    C1 9351  13.262   5.107   9.404 -0.2483 -0.0362  0.0206
  621ERGO    C2 9352  13.010   5.218   9.185  0.1296  0.0247  0.1731
  622ERGO   ROH 9353  14.510   2.481  10.960 -0.0389 -0.1800  0.0748
  622ERGO    R1 9354  14.610   2.348  10.731 -0.1389 -0.1315  0.0047
  622ERGO    R2 9355  14.448   2.203  10.561 -0.2288  0.0064 -0.0164
  622ERGO    R3 9356  14.556   2.365  10.371 -0.1974  0.0288  0.0177
  622ERGO    R4 9357  14.461   2.128  10.224 -0.0519 -0.0307 -0.0037
  622ERGO    R5 9358  14.662   2.213  10.218 -0.0719  0.0428  0.0815
  622ERGO    C1 9359  14.570   2.237   9.849  0.0807 -0.0314  0.0358
  622ERGO    C2 9360  14.586   2.152   9.579 -0.1816 -0.0658  0.3736
  623ERGO   ROH 9361   9.924  10.384  10.905 -0.0570  0.1956  0.1134
  623ERGO    R1 9362  10.004  10.546  10.687 -0.2367  0.2058  0.0546
  623ERGO    R2 9363  10.172  10.455  10.488 -0.0417  0.3529  0.1555
  623ERGO    R3 9364   9.971  10.538  10.325 -0.1195 -0.0297  0.0459
  623ERGO    R4 9365  10.186  10.455  10.143  0.2116  0.4994  0.1624
  623ERGO    R5 9366  10.083  10.648  10.144 -0.2202  0.2865  0.1632
  623ERGO    C1 9367  10.006  10.532   9.788  0.2860  0.2254  0.0636
  623ERGO    C2 9368  10.101  10.486   9.425 -0.1380 -0.0216 -0.2192
  624ERGO   ROH 9369   3.418  11.244  10.962  0.0106 -0.0891 -0.0791
  624ERGO    R1 9370   3.435  11.120  10.708 -0.0418 -0.1014 -0.0773
  624ERGO    R2 9371   3.218  11.098  10.538 -0.0704 -0.0808 -0.0462
  624ERGO    R3 9372   3.385  11.220  10.362 -0.0798 -0.1075 -0.0731
  624ERGO    R4 9373   3.216  11.046  10.197 -0.1356 -0.0742 -0.0467
  624ERGO    R5 9374   3.434  11.051  10.200 -0.1360 -0.1119 -0.0839
  624ERGO    C1 9375   3.372  11.130   9.832 -0.1824 -0.0956 -0.0721
  624ERGO    C2 9376   3.327  11.190   9.496  0.1534 -0.2507 -0.0819
  625ERGO   ROH 9377  12.606   4.380  10.741  0.1125 -0.0018  0.0055
  625ERGO    R1 9378  12.667   4.437  10.471  0.1278 -0.1746 -0.0280
  625ERGO    R2 9379  12.656   4.245  10.272 -0.2679 -0.2108  0.0244
  625ERGO    R3 9380  12.491   4.425  10.152  0.0023  0.0488  0.0292
  625ERGO    R4 9381  12.607   4.271   9.931 -0.1870 -0.0962  0.0202
  625ERGO    R5 9382  12.607   4.488   9.952  0.1243 -0.0913  0.0508
  625ERGO    C1 9383  12.423   4.454   9.620  0.1139  0.2142  0.0223
  625ERGO    C2 9384  12.375   4.446   9.276 -0.0007  0.0999 -0.1231
  626ERGO   ROH 9385   5.482   4.945  10.803 -0.1588 -0.0058 -0.0296
  626ERGO    R1 9386   5.626   5.029  10.574 -0.1770  0.2161  0.0377
  626ERGO    R2 9387   5.725   4.850  10.387  0.2417  0.3579  0.1156
  626ERGO    R3 9388   5.584   5.006  10.213  0.0592  0.0897  0.0161
  626ERGO    R4 9389   5.739   4.825  10.043  0.2697  0.1513  0.1306
  626ERGO    R5 9390   5.735   5.042  10.031  0.0202  0.1456 -0.0075
  626ERGO    C1 9391   5.615   4.956   9.679  0.1148 -0.2207  0.0458
  626ERGO    C2 9392   5.630   4.950   9.300  0.0746  0.0129 -0.3422
  627ERGO   ROH 9393  12.779   1.664  10.794  0.1808 -0.0383  0.0567
  627ERGO    R1 9394  12.705   1.573  10.537  0.0409  0.0972  0.0459
  627ERGO    R2 9395  12.692   1.741  10.317  0.0419  0.1918  0.1054
  627ERGO    R3 9396  12.859   1.558  10.207 -0.0851  0.1519 -0.0113
  627ERGO    R4 9397  12.758   1.711   9.979  0.1077  0.4064  0.0983
  627ERGO    R5 9398  12.753   1.495  10.003 -0.0727  0.4047 -0.0866
  627ERGO    C1 9399  12.953   1.521   9.680  0.0266  0.4939 -0.0155
  627ERGO    C2 9400  12.925   1.534   9.365 -0.1283 -0.1890  0.0576
  628ERGO   ROH 9401   4.019   6.968  10.604 -0.0978  0.1828  0.0625
  628ERGO    R1 9402   4.142   7.003  10.351 -0.1027  0.1354  0.0547
  628ERGO    R2 9403   4.153   6.801  10.162 -0.0870  0.0950  0.1040
  628ERGO    R3 9404   4.038   6.989  10.003 -0.1021  0.0477  0.0568
  628ERGO    R4 9405   4.201   6.826   9.821 -0.1318 -0.0229  0.0876
  628ERGO    R5 9406   4.208   7.043   9.843 -0.1192 -0.0130  0.0146
  628ERGO    C1 9407   4.121   7.016   9.473 -0.1720 -0.1358  0.0339
  628ERGO    C2 9408   4.238   6.997   9.236 -0.1569  0.1525 -0.1494
  629ERGO   ROH 9409   9.335   1.356  11.131 -0.4093  0.2766  0.1065
  629ERGO    R1 9410   9.261   1.488  10.892 -0.2737  0.1757  0.0082
  629ERGO    R2 9411   9.444   1.563  10.701 -0.1715  0.0549  0.0639
  629ERGO    R3 9412   9.282   1.421  10.535 -0.1138  0.0059  0.0470
  629ERGO    R4 9413   9.452   1.579  10.355 -0.0538 -0.0329  0.0606
  629ERGO    R5 9414   9.233   1.572  10.356 -0.0576 -0.0384 -0.0097
  629ERGO    C1 9415   9.303   1.455   9.999  0.0689 -0.1300  0.0427
  629ERGO    C2 9416   9.365   1.539   9.618  0.2565 -0.0125 -0.1291
  630ERGO   ROH 9417   3.803  12.378  11.184 -0.1648 -0.2691  0.1232
  630ERGO    R1 9418   3.731  12.484  10.931 -0.3237 -0.2908  0.1576
  630ERGO    R2 9419   3.918  12.575  10.750 -0.4570  0.1802  0.2382
  630ERGO    R3 9420   3.794  12.401  10.583 -0.0701 -0.0044  0.1323
  630ERGO    R4 9421   3.869  12.626  10.411 -0.6074  0.2916  0.2760
  630ERGO    R5 9422   3.670  12.540  10.432 -0.4117 -0.1878  0.2381
  630ERGO    C1 9423   3.724  12.492  10.057 -0.3317  0.1833  0.1986
  630ERGO    C2 9424   3.633  12.519   9.583 -0.1688  0.0685 -0.1554
  631ERGO   ROH 9425   5.582   8.282  10.773 -0.2749  0.2847  0.0242
  631ERGO    R1 9426   5.650   8.322  10.501 -0.2203  0.1052  0.0103
  631ERGO    R2 9427   5.752   8.120  10.341 -0.3260 -0.0396  0.1238
  631ERGO    R3 9428   5.544   8.187  10.180 -0.2676  0.0061  0.0670
  631ERGO    R4 9429   5.764   8.133   9.996 -0.2663 -0.1677  0.1202
  631ERGO    R5 9430   5.643   8.314  10.003 -0.1782 -0.1054  0.0371
  631ERGO    C1 9431   5.577   8.204   9.644 -0.1768 -0.1993  0.0648
  631ERGO    C2 9432   5.568   8.236   9.254  0.0512 -0.2110 -0.1414
  632ERGO   ROH 9433   4.412   4.946  10.563  0.2575  0.0338  0.0894
  632ERGO    R1 9434   4.407   5.076  10.311  0.1184  0.0520  0.1014
  632ERGO    R2 9435   4.632   5.100  10.152  0.0721  0.2303  0.0655
  632ERGO    R3 9436   4.473   4.984   9.965  0.1254  0.1300  0.0812
  632ERGO    R4 9437   4.684   5.114   9.811  0.0998  0.1584  0.0660
  632ERGO    R5 9438   4.470   5.139   9.784  0.0925  0.0834  0.0398
  632ERGO    C1 9439   4.565   5.013   9.437  0.1660  0.0224  0.0810
  632ERGO    C2 9440   4.610   5.090   9.042  0.1911 -0.0503 -0.1155
  633ERGO   ROH 9441   4.808   4.081  10.818 -0.1953  0.0826  0.0397
  633ERGO    R1 9442   4.944   4.070  10.570 -0.0927  0.0849  0.0950
  633ERGO    R2 9443   4.857   3.913  10.360  0.0848 -0.0400  0.1111
  633ERGO    R3 9444   4.867   4.147  10.222 -0.0099 -0.0771  0.0403
  633ERGO    R4 9445   4.960   3.946  10.031  0.1581 -0.0797  0.1299
  633ERGO    R5 9446   5.063   4.129  10.087  0.0371 -0.0049  0.1016
  633ERGO    C1 9447   5.029   4.185   9.711  0.1120 -0.1376  0.0744
  633ERGO    C2 9448   5.085   4.038   9.366  0.2524  0.1140 -0.1897
  634ERGO   ROH 9449   2.255  16.250  11.157 -0.0273 -0.1166 -0.0207
  634ERGO    R1 9450   2.088  16.170  10.943 -0.1296  0.1031 -0.0263
  634ERGO    R2 9451   1.991  16.347  10.755  0.1447  0.2273 -0.0558
  634ERGO    R3 9452   2.103  16.172  10.579 -0.0929  0.0404 -0.0253
  634ERGO    R4 9453   1.955  16.363  10.412 -0.0297  0.0717 -0.0460
  634ERGO    R5 9454   1.937  16.146  10.409 -0.2092  0.0834  0.0799
  634ERGO    C1 9455   2.039  16.208  10.047 -0.3544 -0.1942 -0.0115
  634ERGO    C2 9456   2.003  16.210   9.656 -0.0324 -0.1695 -0.0421
  635ERGO   ROH 9457   3.744   5.523  10.742 -0.0125  0.0247 -0.0272
  635ERGO    R1 9458   3.724   5.672  10.502  0.2309  0.0756 -0.0176
  635ERGO    R2 9459   3.928   5.680  10.315  0.1712 -0.4204 -0.1138
  635ERGO    R3 9460   3.732   5.600  10.145 -0.1143  0.0499 -0.0247
  635ERGO    R4 9461   3.936   5.720   9.972  0.1865 -0.5438 -0.1281
  635ERGO    R5 9462   3.725   5.772   9.978  0.3055  0.0374 -0.0738
  635ERGO    C1 9463   3.757   5.668   9.613 -0.0726 -0.1741 -0.0526
  635ERGO    C2 9464   3.818   5.608   9.255  0.0716 -0.2407 -0.1806
  636ERGO   ROH 9465  10.343   1.716   6.736  0.0237 -0.2109 -0.0821
  636ERGO    R1 9466  10.255   1.820   6.984  0.2319  0.0088 -0.0980
  636ERGO    R2 9467  10.094   1.677   7.157 -0.1333  0.3865 -0.1159
  636ERGO    R3 9468  10.291   1.733   7.335 -0.0183 -0.0677 -0.0881
  636ERGO    R4 9469  10.074   1.620   7.497 -0.2718  0.3186 -0.1340
  636ERGO    R5 9470  10.175   1.810   7.530  0.1216  0.1144 -0.0710
  636ERGO    C1 9471  10.248   1.639   7.863 -0.2445 -0.1473 -0.1185
  636ERGO    C2 9472  10.190   1.631   8.299 -0.2955 -0.0033  0.4005
  637ERGO   ROH 9473   8.495   3.257  11.084  0.0035  0.2845 -0.0833
  637ERGO    R1 9474   8.406   3.161  10.833  0.0974  0.1523 -0.0663
  637ERGO    R2 9475   8.234   3.304  10.670  0.0277 -0.0066 -0.1300
  637ERGO    R3 9476   8.430   3.267  10.485  0.0739  0.0624 -0.0967
  637ERGO    R4 9477   8.196   3.351  10.330  0.0259 -0.1444 -0.1497
  637ERGO    R5 9478   8.316   3.172  10.297  0.1520 -0.0788 -0.0776
  637ERGO    C1 9479   8.357   3.342   9.958  0.0684 -0.1600 -0.1299
  637ERGO    C2 9480   8.347   3.436   9.642  0.1835  0.1279  0.0906
  638ERGO   ROH 9481   6.360  10.980  11.154 -0.2387 -0.2214 -0.1144
  638ERGO    R1 9482   6.468  10.969  10.892 -0.1340 -0.2299 -0.0687
  638ERGO    R2 9483   6.456  10.741  10.737 -0.3457 -0.1356 -0.1706
  638ERGO    R3 9484   6.341  10.909  10.557 -0.0515  0.0869 -0.1644
  638ERGO    R4 9485   6.499  10.721  10.394 -0.4642 -0.3029 -0.1790
  638ERGO    R5 9486   6.509  10.940  10.388 -0.0069 -0.2998 -0.2160
  638ERGO    C1 9487   6.415  10.867  10.026 -0.2571 -0.1914 -0.1781
  638ERGO    C2 9488   6.344  10.931   9.694 -0.0053 -0.1452  0.0197
  639ERGO   ROH 9489   6.524   0.616  11.018 -0.2364  0.0311 -0.2559
  639ERGO    R1 9490   6.540   0.759  10.775 -0.3714 -0.0084 -0.2883
  639ERGO    R2 9491   6.733   0.708  10.584 -0.1306  0.3278 -0.1401
  639ERGO    R3 9492   6.518   0.681  10.420  0.0253 -0.1696 -0.2840
  639ERGO    R4 9493   6.747   0.707  10.238  0.1009  0.4819 -0.1337
  639ERGO    R5 9494   6.565   0.827  10.236 -0.2220  0.0278 -0.2012
  639ERGO    C1 9495   6.553   0.682   9.883  0.3819  0.1047 -0.2651
  639ERGO    C2 9496   6.540   0.662   9.537  0.4520 -0.3240  0.2412
  640ERGO   ROH 9497   5.874  12.224  10.586  0.0121 -0.0986 -0.0937
  640ERGO    R1 9498   5.793  12.222  10.315  0.0494 -0.1344 -0.1053
  640ERGO    R2 9499   5.671  12.439  10.194 -0.2920 -0.2811 -0.0438
  640ERGO    R3 9500   5.873  12.410  10.014 -0.2134  0.1087 -0.0260
  640ERGO    R4 9501   5.629  12.422   9.852 -0.2326 -0.4380 -0.0438
  640ERGO    R5 9502   5.781  12.267   9.845  0.1002 -0.1204 -0.0053
  640ERGO    C1 9503   5.793  12.385   9.483 -0.1241 -0.1633 -0.0271
  640ERGO    C2 9504   5.807  12.597   9.111  0.0243  0.1527 -0.0409
  641ERGO   ROH 9505   9.973   3.355   6.867  0.1199  0.1624 -0.0668
  641ERGO    R1 9506   9.943   3.486   7.116  0.2782  0.0344  0.0204
  641ERGO    R2 9507   9.712   3.469   7.267  0.2380  0.2536 -0.0222
  641ERGO    R3 9508   9.884   3.387   7.461  0.1041 -0.1205 -0.0507
  641ERGO    R4 9509   9.641   3.466   7.605  0.2966  0.4709 -0.0054
  641ERGO    R5 9510   9.843   3.537   7.644  0.4868  0.0140 -0.0615
  641ERGO    C1 9511   9.760   3.388   7.985  0.2048  0.2462 -0.0224
  641ERGO    C2 9512   9.704   3.336   8.293 -0.0532  0.1452 -0.2429
  642ERGO   ROH 9513   0.927   0.972  10.961  0.0066  0.0275 -0.0055
  642ERGO    R1 9514   0.940   1.175  10.764 -0.0634  0.0168 -0.0214
  642ERGO    R2 9515   1.179   1.258  10.652 -0.0759  0.1901  0.0757
  642ERGO    R3 9516   1.052   1.201  10.418  0.0709  0.0641  0.0252
  642ERGO    R4 9517   1.312   1.311  10.337  0.0774  0.1173  0.1273
  642ERGO    R5 9518   1.115   1.379  10.271  0.0922  0.0296 -0.0058
  642ERGO    C1 9519   1.271   1.288   9.935  0.3045 -0.0435  0.1100
  642ERGO    C2 9520   1.412   1.298   9.566  0.1089  0.0926  0.0546
  643ERGO   ROH 9521   9.020   5.721  11.097 -0.1678 -0.1252  0.0550
  643ERGO    R1 9522   8.987   5.882  10.867 -0.1214 -0.0297  0.1154
  643ERGO    R2 9523   9.201   5.984  10.724 -0.0934 -0.0600  0.1399
  643ERGO    R3 9524   9.076   5.863  10.515 -0.1522  0.0642  0.1015
  643ERGO    R4 9525   9.263   6.052  10.391 -0.0483  0.0063  0.1614
  643ERGO    R5 9526   9.049   6.037  10.353 -0.0576  0.1283  0.1513
  643ERGO    C1 9527   9.182   5.978  10.001 -0.0771  0.1616  0.1377
  643ERGO    C2 9528   9.208   5.960   9.683 -0.1224  0.0412  0.1878
  644ERGO   ROH 9529  11.711   2.829  10.958 -0.2178  0.0717  0.0676
  644ERGO    R1 9530  11.653   2.672  10.729 -0.0176  0.0386  0.0373
  644ERGO    R2 9531  11.396   2.641  10.631  0.0221 -0.2460  0.0109
  644ERGO    R3 9532  11.509   2.729  10.400 -0.0590 -0.0750  0.0361
  644ERGO    R4 9533  11.238   2.648  10.324 -0.0201 -0.1938  0.0342
  644ERGO    R5 9534  11.424   2.582  10.232  0.0047 -0.0447 -0.0206
  644ERGO    C1 9535  11.252   2.736   9.928 -0.1208 -0.0028  0.0714
  644ERGO    C2 9536  11.280   2.700   9.676 -0.1816  0.0298 -0.3056
  645ERGO   ROH 9537   0.682  11.587  11.514 -0.3070 -0.0720 -0.0412
  645ERGO    R1 9538   0.808  11.565  11.261 -0.1587 -0.2336  0.0446
  645ERGO    R2 9539   0.778  11.343  11.099 -0.4498 -0.1412 -0.0328
  645ERGO    R3 9540   0.701  11.528  10.916  0.0214  0.0569 -0.0458
  645ERGO    R4 9541   0.748  11.284  10.760 -0.4742 -0.0488 -0.0472
  645ERGO    R5 9542   0.835  11.480  10.723 -0.0163 -0.2315 -0.0055
  645ERGO    C1 9543   0.658  11.423  10.390 -0.0461  0.1910 -0.0677
  645ERGO    C2 9544   0.778  11.480  10.047 -0.0248 -0.0701  0.2139
  646ERGO   ROH 9545   6.291  13.160  10.905  0.0553  0.2710  0.0090
  646ERGO    R1 9546   6.407  13.236  10.658 -0.0680  0.3224 -0.0330
  646ERGO    R2 9547   6.421  13.065  10.442  0.1477  0.2461  0.0447
  646ERGO    R3 9548   6.296  13.269  10.313 -0.1419  0.0207 -0.0426
  646ERGO    R4 9549   6.407  13.101  10.098  0.4094  0.2501  0.0321
  646ERGO    R5 9550   6.438  13.316  10.125 -0.0413  0.3232  0.0968
  646ERGO    C1 9551   6.281  13.314   9.777  0.2900  0.0408 -0.0572
  646ERGO    C2 9552   6.175  13.298   9.465 -0.0896  0.1312 -0.0619
  647ERGO   ROH 9553  15.624   7.438  11.011 -0.0302  0.0356  0.0228
  647ERGO    R1 9554  15.573   7.553  10.757 -0.0679 -0.0276  0.0027
  647ERGO    R2 9555  15.774   7.653  10.596 -0.1129  0.0846  0.0253
  647ERGO    R3 9556  15.668   7.484  10.412  0.0274 -0.0035  0.0218
  647ERGO    R4 9557  15.814   7.682  10.254 -0.1751  0.1669  0.0240
  647ERGO    R5 9558  15.605   7.625  10.230 -0.1318 -0.0355  0.0435
  647ERGO    C1 9559  15.737   7.540   9.882 -0.0796  0.1321  0.0200
  647ERGO    C2 9560  15.690   7.591   9.571  0.0683 -0.1158 -0.1510
  648ERGO   ROH 9561  12.314   3.574  10.752  0.2495  0.2862 -0.0320
  648ERGO    R1 9562  12.186   3.459  10.528  0.2223  0.1793  0.0387
  648ERGO    R2 9563  11.966   3.574  10.407  0.1195  0.0474  0.0989
  648ERGO    R3 9564  12.119   3.554  10.183  0.0455  0.0802  0.0442
  648ERGO    R4 9565  11.844   3.579  10.084 -0.0040 -0.0669  0.1422
  648ERGO    R5 9566  11.987   3.422  10.033  0.0508 -0.0090  0.1166
  648ERGO    C1 9567  11.917   3.563   9.685 -0.1454 -0.1028  0.1161
  648ERGO    C2 9568  11.903   3.647   9.390 -0.1772 -0.1442 -0.2682
  649ERGO   ROH 9569   8.379  14.242  10.883  0.2316  0.0129 -0.1325
  649ERGO    R1 9570   8.346  14.368  10.631  0.2062  0.0527 -0.1096
  649ERGO    R2 9571   8.538  14.355  10.433  0.1404 -0.0051 -0.1693
  649ERGO    R3 9572   8.331  14.262  10.283  0.0570  0.0959 -0.1169
  649ERGO    R4 9573   8.529  14.355  10.087  0.0608 -0.0092 -0.1672
  649ERGO    R5 9574   8.319  14.414  10.098  0.0916  0.0984 -0.1183
  649ERGO    C1 9575   8.329  14.268   9.746 -0.0637  0.0832 -0.1167
  649ERGO    C2 9576   8.349  14.414   9.356  0.2485  0.1336  0.0453
  650ERGO   ROH 9577   2.743   4.735  10.794  0.1289 -0.3639  0.0188
  650ERGO    R1 9578   2.617   4.747  10.540  0.0263 -0.2509  0.0735
  650ERGO    R2 9579   2.695   4.927  10.345 -0.0049 -0.2094  0.0944
  650ERGO    R3 9580   2.718   4.703  10.193 -0.1277 -0.1715  0.0187
  650ERGO    R4 9581   2.648   4.914  10.003  0.1676 -0.0375  0.0629
  650ERGO    R5 9582   2.546   4.724  10.029 -0.0187  0.0467 -0.0676
  650ERGO    C1 9583   2.644   4.695   9.661  0.1527  0.0982 -0.0262
  650ERGO    C2 9584   2.768   4.678   9.328  0.2076 -0.0614 -0.0243
  651ERGO   ROH 9585  16.565   6.569  10.934 -0.0079 -0.0314  0.0594
  651ERGO    R1 9586  16.677   6.671  10.694 -0.1504  0.1075  0.0522
  651ERGO    R2 9587  16.810   6.512  10.511  0.1266  0.2885  0.0981
  651ERGO    R3 9588  16.630   6.618  10.338 -0.0300 -0.0328  0.0547
  651ERGO    R4 9589  16.837   6.502  10.167  0.2400  0.3331  0.1047
  651ERGO    R5 9590  16.763   6.706  10.160 -0.1330  0.2121  0.0890
  651ERGO    C1 9591  16.684   6.596   9.803  0.1592  0.0575  0.0678
  651ERGO    C2 9592  16.676   6.536   9.459  0.1773  0.3106  0.1831
  652ERGO   ROH 9593  13.397   0.017  10.971  0.0718 -0.3035 -0.0717
  652ERGO    R1 9594  13.375   0.153  10.724  0.1422 -0.1533  0.0023
  652ERGO    R2 9595  13.556   0.117  10.518  0.1599 -0.0860  0.0037
  652ERGO    R3 9596  13.333   0.059  10.374  0.1612  0.0591 -0.0575
  652ERGO    R4 9597  13.550   0.062  10.177  0.1912  0.0579 -0.0205
  652ERGO    R5 9598  13.364   0.176  10.167  0.2376  0.1323 -0.0041
  652ERGO    C1 9599  13.336  -0.024   9.843  0.2106  0.2780 -0.0921
  652ERGO    C2 9600  13.365  -0.011   9.589 -0.0691  0.1066  0.1765
  653ERGO   ROH 9601  10.557  13.094  10.984  0.0654  0.0245  0.0975
  653ERGO    R1 9602  10.411  13.177  10.756  0.0516  0.0733  0.1248
  653ERGO    R2 9603  10.522  13.334  10.557  0.1084 -0.0777  0.0401
  653ERGO    R3 9604  10.436  13.133  10.395 -0.1131 -0.0564  0.1273
  653ERGO    R4 9605  10.450  13.368  10.221  0.1981 -0.1483  0.0125
  653ERGO    R5 9606  10.277  13.238  10.250  0.0310  0.0705  0.0548
  653ERGO    C1 9607  10.326  13.200   9.873  0.0425 -0.1695  0.0783
  653ERGO    C2 9608  10.336  13.249   9.530 -0.1530 -0.2366 -0.0556
  654ERGO   ROH 9609   4.287   2.123  11.016  0.1094 -0.1945 -0.0115
  654ERGO    R1 9610   4.163   1.988  10.800 -0.0192 -0.0217 -0.0482
  654ERGO    R2 9611   4.016   2.119  10.607  0.0938  0.1688 -0.0074
  654ERGO    R3 9612   4.187   1.993  10.437 -0.0230  0.0621 -0.0473
  654ERGO    R4 9613   3.966   2.083  10.267 -0.0497  0.1174  0.0183
  654ERGO    R5 9614   4.044   1.881  10.282 -0.1286  0.0884  0.0302
  654ERGO    C1 9615   4.097   1.944   9.909 -0.2428 -0.0127 -0.0043
  654ERGO    C2 9616   3.991   1.860   9.609 -0.1576 -0.0197 -0.0182
  655ERGO   ROH 9617  16.612   5.071  11.023 -0.0576  0.1796 -0.0021
  655ERGO    R1 9618  16.762   5.057  10.784 -0.0012  0.2165  0.0318
  655ERGO    R2 9619  16.664   4.940  10.553  0.0876  0.1746  0.0201
  655ERGO    R3 9620  16.729   5.180  10.443  0.0353  0.1879  0.0161
  655ERGO    R4 9621  16.704   4.999  10.215  0.1454  0.1501  0.0219
  655ERGO    R5 9622  16.875   5.125  10.262  0.0980  0.2130  0.0531
  655ERGO    C1 9623  16.787   5.258   9.915  0.1298  0.1483  0.0193
  655ERGO    C2 9624  16.767   5.231   9.548 -0.0507  0.0538 -0.1944
  656ERGO   ROH 9625   3.004  13.802  11.094 -0.0186 -0.2739 -0.0256
  656ERGO    R1 9626   3.084  13.949  10.867 -0.0850 -0.2006 -0.0012
  656ERGO    R2 9627   3.228  13.836  10.660 -0.0867 -0.1164 -0.0452
  656ERGO    R3 9628   3.025  13.936  10.508 -0.1294 -0.1282  0.0025
  656ERGO    R4 9629   3.228  13.848  10.314 -0.0620  0.1066 -0.0395
  656ERGO    R5 9630   3.136  14.046  10.326 -0.1721  0.0515  0.0817
  656ERGO    C1 9631   3.039  13.949   9.971 -0.0878  0.2255  0.0088
  656ERGO    C2 9632   3.024  13.823   9.647  0.0854  0.0762  0.0674
  657ERGO   ROH 9633   0.335   4.631  10.784 -0.1634 -0.0038  0.1334
  657ERGO    R1 9634   0.305   4.821  10.576  0.0102  0.0230  0.1318
  657ERGO    R2 9635   0.520   4.937  10.448  0.1181 -0.2358  0.0764
  657ERGO    R3 9636   0.396   4.845  10.225 -0.0434 -0.1010  0.1086
  657ERGO    R4 9637   0.607   5.022  10.124 -0.0496 -0.1187  0.0606
  657ERGO    R5 9638   0.395   5.032  10.076 -0.0775 -0.0338  0.1914
  657ERGO    C1 9639   0.540   4.985   9.726 -0.2989  0.0759  0.0816
  657ERGO    C2 9640   0.594   5.066   9.305 -0.0740  0.0736  0.0280
  658ERGO   ROH 9641   2.686  16.128  11.019  0.0958  0.3381 -0.0272
  658ERGO    R1 9642   2.526  16.105  10.787  0.0398  0.0515  0.0369
  658ERGO    R2 9643   2.462  16.323  10.628 -0.3057 -0.0844 -0.0083
  658ERGO    R3 9644   2.568  16.168  10.431 -0.1748 -0.0070 -0.0019
  658ERGO    R4 9645   2.388  16.349  10.291 -0.4418 -0.2434  0.0069
  658ERGO    R5 9646   2.388  16.133  10.278 -0.1873 -0.2554  0.0581
  658ERGO    C1 9647   2.443  16.220   9.911 -0.3981 -0.2634  0.0218
  658ERGO    C2 9648   2.482  16.143   9.707  0.1768  0.3283  0.0152
  659ERGO   ROH 9649   9.514   8.856  10.672 -0.1192  0.0371 -0.1575
  659ERGO    R1 9650   9.585   8.836  10.399 -0.1124  0.0558 -0.1568
  659ERGO    R2 9651   9.399   8.859  10.195 -0.1014  0.0980 -0.1591
  659ERGO    R3 9652   9.570   9.051  10.106 -0.0760  0.0859 -0.1377
  659ERGO    R4 9653   9.469   8.923   9.863  0.1077 -0.0569 -0.1473
  659ERGO    R5 9654   9.678   8.952   9.917  0.0700  0.0079 -0.0185
  659ERGO    C1 9655   9.669   9.141   9.585  0.2533 -0.1585 -0.1204
  659ERGO    C2 9656   9.721   9.247   9.151  0.0825 -0.1331 -0.0988
  660ERGO   ROH 9657   9.711  17.094  11.045 -0.0599  0.0397 -0.0477
  660ERGO    R1 9658   9.806  17.076  10.779 -0.0821 -0.0450 -0.0492
  660ERGO    R2 9659   9.743  16.864  10.613 -0.2603  0.0037 -0.0399
  660ERGO    R3 9660   9.660  17.062  10.447 -0.1016  0.0677 -0.0466
  660ERGO    R4 9661   9.700  16.832  10.271 -0.5827 -0.0725  0.0042
  660ERGO    R5 9662   9.786  17.030  10.246 -0.3042 -0.2020 -0.1396
  660ERGO    C1 9663   9.596  16.999   9.917 -0.6215 -0.0568  0.0237
  660ERGO    C2 9664   9.570  16.928   9.579  0.0017 -0.1337 -0.3629
  661ERGO   ROH 9665  14.071   6.691  10.702 -0.1651 -0.0468 -0.0370
  661ERGO    R1 9666  13.962   6.809  10.469  0.0226  0.1110 -0.0476
  661ERGO    R2 9667  14.120   6.924  10.273  0.2067 -0.0701 -0.0134
  661ERGO    R3 9668  13.985   6.754  10.110  0.0171  0.1080 -0.0465
  661ERGO    R4 9669  14.115   6.943   9.928  0.0779  0.0993 -0.0035
  661ERGO    R5 9670  13.903   6.893   9.933  0.0453  0.2514  0.0548
  661ERGO    C1 9671  13.986   6.795   9.574 -0.1751  0.3650 -0.0288
  661ERGO    C2 9672  14.066   6.837   9.328  0.0576  0.1443 -0.5885
  662ERGO   ROH 9673   0.284   0.213  10.830 -0.2873  0.0568 -0.0656
  662ERGO    R1 9674   0.233   0.324  10.574 -0.1618  0.0575 -0.0917
  662ERGO    R2 9675   0.410   0.495  10.448 -0.0636 -0.0005 -0.0396
  662ERGO    R3 9676   0.389   0.314  10.246 -0.0438 -0.0086 -0.0334
  662ERGO    R4 9677   0.399   0.574  10.112 -0.0414 -0.0181 -0.0437
  662ERGO    R5 9678   0.248   0.420  10.085 -0.0333 -0.0216 -0.0483
  662ERGO    C1 9679   0.373   0.450   9.726 -0.0099 -0.0359 -0.0403
  662ERGO    C2 9680   0.398   0.384   9.399  0.2888  0.2328 -0.0224
  663ERGO   ROH 9681  10.410  11.397  11.044  0.1017 -0.1082 -0.0054
  663ERGO    R1 9682  10.345  11.298  10.787  0.0572 -0.1543  0.0236
  663ERGO    R2 9683  10.141  11.405  10.634  0.0217 -0.1925  0.0472
  663ERGO    R3 9684  10.337  11.431  10.448 -0.0176 -0.2113  0.0025
  663ERGO    R4 9685  10.087  11.434  10.294 -0.0798  0.2493  0.0939
  663ERGO    R5 9686  10.258  11.303  10.261 -0.2395  0.0833 -0.1154
  663ERGO    C1 9687  10.239  11.474   9.921 -0.1757  0.4889  0.0792
  663ERGO    C2 9688  10.102  11.440   9.584 -0.3219 -0.0680 -0.1848
  664ERGO   ROH 9689  12.528  13.092  10.855 -0.0322  0.0170  0.0108
  664ERGO    R1 9690  12.550  12.983  10.594 -0.0385  0.0025  0.0166
  664ERGO    R2 9691  12.338  12.976  10.418 -0.0205  0.0672 -0.0061
  664ERGO    R3 9692  12.512  13.104  10.253  0.0401  0.0050  0.0083
  664ERGO    R4 9693  12.333  12.957  10.073 -0.0512  0.1338 -0.0099
  664ERGO    R5 9694  12.551  12.948  10.076 -0.0542  0.0157 -0.0235
  664ERGO    C1 9695  12.494  13.066   9.717 -0.0123  0.1141  0.0015
  664ERGO    C2 9696  12.482  13.024   9.406  0.1255 -0.1126 -0.6718
  665ERGO   ROH 9697  12.136   5.099  10.911  0.1561 -0.1105 -0.1478
  665ERGO    R1 9698  11.964   5.010  10.705  0.0765 -0.0073 -0.1265
  665ERGO    R2 9699  11.921   5.155  10.474  0.2051 -0.0243 -0.1597
  665ERGO    R3 9700  11.995   4.922  10.353 -0.0013 -0.1199 -0.1065
  665ERGO    R4 9701  11.833   5.063  10.153  0.0906 -0.0327 -0.1262
  665ERGO    R5 9702  11.803   4.859  10.225 -0.0724  0.0078 -0.0682
  665ERGO    C1 9703  11.851   4.791   9.852 -0.1698 -0.1272 -0.0570
  665ERGO    C2 9704  11.709   4.919   9.481  0.1313  0.0835 -0.0032
  666ERGO   ROH 9705  10.556   9.275  11.270  0.1067 -0.0080  0.1835
  666ERGO    R1 9706  10.617   9.097  11.059 -0.0389 -0.0410  0.1680
  666ERGO    R2 9707  10.444   9.050  10.849 -0.0010  0.2675  0.0639
  666ERGO    R3 9708  10.659   9.120  10.698  0.1834 -0.0001  0.1945
  666ERGO    R4 9709  10.473   8.995  10.509  0.0646  0.3746  0.0518
  666ERGO    R5 9710  10.682   8.941  10.540 -0.0280  0.0298  0.1254
  666ERGO    C1 9711  10.692   9.029  10.169  0.2759  0.1857  0.1674
  666ERGO    C2 9712  10.660   8.978   9.788  0.0070  0.2943  0.0576
  667ERGO   ROH 9713   5.505   9.525  10.726  0.0031 -0.3044 -0.0130
  667ERGO    R1 9714   5.554   9.621  10.464 -0.0070 -0.1825  0.0309
  667ERGO    R2 9715   5.631   9.455  10.256 -0.0637 -0.0895 -0.0551
  667ERGO    R3 9716   5.416   9.565  10.132 -0.0517  0.0155  0.0131
  667ERGO    R4 9717   5.604   9.507   9.916 -0.1680 -0.1555 -0.0591
  667ERGO    R5 9718   5.510   9.699   9.957 -0.0349 -0.0806 -0.0597
  667ERGO    C1 9719   5.387   9.642   9.601 -0.2175 -0.0955  0.0025
  667ERGO    C2 9720   5.465   9.737   9.203  0.2802 -0.1331  0.2418
  668ERGO   ROH 9721   7.052   8.438  10.793  0.0580  0.1170 -0.1337
  668ERGO    R1 9722   7.134   8.514  10.533  0.0386  0.0653 -0.1547
  668ERGO    R2 9723   7.128   8.340  10.319 -0.0962  0.0592 -0.1456
  668ERGO    R3 9724   6.980   8.536  10.204 -0.0226  0.1289 -0.1224
  668ERGO    R4 9725   7.103   8.394   9.979 -0.1495  0.0458 -0.1440
  668ERGO    R5 9726   7.112   8.609  10.017 -0.0281  0.0462 -0.1604
  668ERGO    C1 9727   6.949   8.611   9.672 -0.1114  0.1033 -0.1213
  668ERGO    C2 9728   6.768   8.469   9.250 -0.0656 -0.0082  0.1118
  669ERGO   ROH 9729   3.792   3.401  10.908  0.2917 -0.0952  0.1114
  669ERGO    R1 9730   3.723   3.414  10.634  0.1139 -0.1605  0.1512
  669ERGO    R2 9731   3.857   3.576  10.455 -0.1959  0.0282  0.0829
  669ERGO    R3 9732   3.888   3.344  10.317  0.0224  0.0747  0.0495
  669ERGO    R4 9733   3.838   3.546  10.111 -0.3395  0.0332  0.0900
  669ERGO    R5 9734   3.729   3.359  10.138 -0.0937 -0.1075  0.1338
  669ERGO    C1 9735   3.855   3.311   9.781 -0.2181  0.0797  0.0629
  669ERGO    C2 9736   4.017   3.241   9.385  0.2495  0.0883  0.0230
  670ERGO   ROH 9737   8.411   8.997  10.825 -0.0733  0.0787 -0.0627
  670ERGO    R1 9738   8.507   8.955  10.562  0.0723  0.0631 -0.0097
  670ERGO    R2 9739   8.387   8.778  10.386  0.2573 -0.0659 -0.0210
  670ERGO    R3 9740   8.378   8.995  10.224  0.1937 -0.1110 -0.0759
  670ERGO    R4 9741   8.383   8.767  10.041  0.3223 -0.1411 -0.0183
  670ERGO    R5 9742   8.519   8.937  10.039  0.2458 -0.0896 -0.0362
  670ERGO    C1 9743   8.374   8.964   9.687  0.3005 -0.2274 -0.0682
  670ERGO    C2 9744   8.341   8.822   9.447  0.3657  0.0457  0.1564
  671ERGO   ROH 9745   7.517   8.451  10.803 -0.3019  0.0104  0.2537
  671ERGO    R1 9746   7.640   8.481  10.550 -0.1131  0.0043  0.3428
  671ERGO    R2 9747   7.585   8.313  10.338 -0.0048  0.0385  0.2870
  671ERGO    R3 9748   7.530   8.546  10.209  0.1455  0.0655  0.2692
  671ERGO    R4 9749   7.540   8.344   9.996 -0.1284  0.0176  0.3009
  671ERGO    R5 9750   7.652   8.530  10.003  0.0417 -0.0803  0.2174
  671ERGO    C1 9751   7.462   8.580   9.677 -0.0593  0.0309  0.2924
  671ERGO    C2 9752   7.341   8.392   9.431  0.1594  0.0781 -0.0168
  672ERGO   ROH 9753  15.703   2.430  10.880  0.0244  0.2765  0.0398
  672ERGO    R1 9754  15.830   2.503  10.637  0.0205  0.0808 -0.0224
  672ERGO    R2 9755  15.917   2.316  10.452 -0.1102 -0.0638  0.0626
  672ERGO    R3 9756  15.763   2.462  10.282 -0.0622 -0.0742  0.0093
  672ERGO    R4 9757  15.975   2.352  10.113  0.0476 -0.0031  0.0948
  672ERGO    R5 9758  15.920   2.561  10.130 -0.0091 -0.0164  0.0988
  672ERGO    C1 9759  15.865   2.510   9.756  0.1843  0.0225  0.0636
  672ERGO    C2 9760  15.965   2.547   9.410  0.3995 -0.0240 -0.0664
  673ERGO   ROH 9761   6.434   3.996  10.935 -0.0884  0.1046 -0.2008
  673ERGO    R1 9762   6.445   3.913  10.665  0.0525  0.0718 -0.1870
  673ERGO    R2 9763   6.271   4.010  10.472 -0.0312 -0.1544 -0.2364
  673ERGO    R3 9764   6.501   4.071  10.342 -0.0729  0.0902 -0.1982
  673ERGO    R4 9765   6.322   3.974  10.132  0.1161 -0.2134 -0.2086
  673ERGO    R5 9766   6.522   3.902  10.174  0.1940  0.0590 -0.1297
  673ERGO    C1 9767   6.568   4.011   9.812  0.1626 -0.0182 -0.1566
  673ERGO    C2 9768   6.660   3.962   9.496  0.0981  0.0349 -0.0676
  674ERGO   ROH 9769   9.337   5.341  10.974 -0.0891 -0.2018 -0.0179
  674ERGO    R1 9770   9.260   5.473  10.736 -0.1544 -0.2391 -0.0174
  674ERGO    R2 9771   9.441   5.607  10.575 -0.2532  0.0402  0.0994
  674ERGO    R3 9772   9.339   5.445  10.381  0.0433 -0.0462  0.0097
  674ERGO    R4 9773   9.468   5.664  10.235 -0.0094  0.0575  0.1190
  674ERGO    R5 9774   9.262   5.596  10.212  0.0634 -0.1112 -0.0576
  674ERGO    C1 9775   9.387   5.546   9.856  0.4110 -0.0136  0.0462
  674ERGO    C2 9776   9.455   5.495   9.494  0.2612  0.0182 -0.2516
  675loPI    C1 9777   1.768  12.248   6.083 -0.0164  0.0864 -0.1660
  675loPI    C2 9778   1.704  12.492   5.773  0.0605 -0.0335 -0.2775
  675loPI    C3 9779   1.631  12.100   5.738 -0.0278 -0.0330 -0.1110
  675loPI   PO4 9780   1.697  12.432   6.342  0.0873 -0.0491  0.0934
  675loPI   GL1 9781   1.910  12.487   6.745 -0.1874  0.2087 -0.1867
  675loPI   GL2 9782   2.053  12.191   6.622  0.0237  0.2048 -0.3843
  675loPI   C1A 9783   1.839  12.541   7.236 -0.2101  0.1784  0.0257
  675loPI   C2A 9784   1.909  12.559   7.654  0.0458  0.2221 -0.0987
  675loPI   C3A 9785   2.030  12.451   8.051 -0.0156 -0.1789 -0.2885
  675loPI   C4A 9786   2.000  12.482   8.526 -0.0819 -0.2840 -0.3949
  675loPI   C5A 9787   2.358  12.326   8.759  0.1272 -0.1342 -0.2465
  675loPI   C6A 9788   2.613  12.055   8.998  0.1244 -0.1646 -0.2036
  675loPI   C1B 9789   2.296  12.090   6.934 -0.0748 -0.1320 -0.0402
  675loPI   C2B 9790   2.227  12.206   7.341 -0.1626  0.1579 -0.0351
  675loPI   C3B 9791   2.324  12.141   7.806  0.2336 -0.0093  0.0298
  675loPI   C4B 9792   2.407  12.096   8.288  0.0716 -0.0337  0.0150
  676loPI    C1 9793   0.285   6.185   5.714 -0.1957 -0.0468 -0.0266
  676loPI    C2 9794   0.227   5.913   5.426  0.0855  0.0126 -0.1426
  676loPI    C3 9795   0.226   6.303   5.337 -0.0497  0.0407 -0.0228
  676loPI   PO4 9796   0.364   6.092   5.853  0.2380 -0.0304 -0.1414
  676loPI   GL1 9797   0.326   6.086   6.334  0.0617  0.1996  0.4075
  676loPI   GL2 9798   0.452   6.306   6.420  0.0069 -0.0357 -0.0820
  676loPI   C1A 9799   0.087   6.058   6.642  0.0713 -0.2034 -0.2300
  676loPI   C2A 9800   0.097   5.944   7.122 -0.0270 -0.1756  0.0985
  676loPI   C3A 9801   0.155   5.892   7.416  0.1054 -0.1801 -0.3212
  676loPI   C4A 9802   0.284   5.897   7.840  0.0193 -0.2268 -0.0381
  676loPI   C5A 9803   0.331   6.018   8.270  0.1132 -0.0550 -0.1312
  676loPI   C6A 9804   0.590   6.268   8.461 -0.0403 -0.3293 -0.0876
  676loPI   C1B 9805   0.300   6.467   6.797  0.1367  0.1455  0.1384
  676loPI   C2B 9806   0.242   6.443   7.239  0.0873  0.0330 -0.1199
  676loPI   C3B 9807   0.364   6.384   7.626  0.0349  0.2816 -0.1117
  676loPI   C4B 9808   0.359   6.473   8.017  0.1761  0.0931 -0.0806
  677loPI    C1 9809   3.492  14.380   6.070 -0.0706  0.1024  0.3205
  677loPI    C2 9810   3.137  14.264   5.928 -0.1206  0.1222  0.4283
  677loPI    C3 9811   3.299  14.609   5.805  0.1248 -0.1554 -0.0525
  677loPI   PO4 9812   3.515  14.341   6.299  0.2574 -0.0443 -0.1167
  677loPI   GL1 9813   3.601  14.552   6.608  0.1609  0.0515 -0.1155
  677loPI   GL2 9814   3.789  14.437   6.715  0.0822 -0.2818  0.1435
  677loPI   C1A 9815   3.504  14.748   7.005  0.0599 -0.0316  0.0878
  677loPI   C2A 9816   3.469  14.694   7.459  0.0073 -0.0342 -0.0498
  677loPI   C3A 9817   3.498  14.844   7.948  0.1744  0.2340  0.0960
  677loPI   C4A 9818   3.481  14.877   8.317 -0.3270  0.0469  0.3988
  677loPI   C5A 9819   3.188  15.012   8.637 -0.0288 -0.1441 -0.1359
  677loPI   C6A 9820   2.870  15.064   8.954  0.0858 -0.2082  0.2291
  677loPI   C1B 9821   3.820  14.359   7.141 -0.0281  0.1114  0.0472
  677loPI   C2B 9822   3.926  14.423   7.542  0.0639 -0.0254 -0.1119
  677loPI   C3B 9823   3.851  14.413   7.996  0.0187  0.1201 -0.4058
  677loPI   C4B 9824   3.849  14.557   8.329 -0.1039  0.1578 -0.0664
  678loPI    C1 9825  14.248   9.563   6.000  0.0604  0.0597  0.2525
  678loPI    C2 9826  14.076   9.895   6.144 -0.0892  0.0962 -0.0050
  678loPI    C3 9827  14.383   9.922   5.888  0.0269  0.0336  0.1266
  678loPI   PO4 9828  14.310   9.452   6.256 -0.1446 -0.0109  0.1333
  678loPI   GL1 9829  14.154   9.551   6.618 -0.2639  0.0446  0.0901
  678loPI   GL2 9830  14.389   9.674   6.799  0.0221 -0.2978 -0.6080
  678loPI   C1A 9831  13.763   9.665   6.844  0.1338 -0.2421  0.1467
  678loPI   C2A 9832  13.821   9.663   7.301  0.5351  0.0997 -0.4225
  678loPI   C3A 9833  13.752   9.630   7.796 -0.0854  0.3432 -0.1836
  678loPI   C4A 9834  13.824   9.663   8.315  0.0365 -0.1607 -0.0259
  678loPI   C5A 9835  13.913  10.080   8.542 -0.1787 -0.0417  0.3471
  678loPI   C6A 9836  14.262  10.286   8.838  0.0367 -0.0232 -0.0178
  678loPI   C1B 9837  14.363   9.689   7.159  0.1245  0.1703  0.1677
  678loPI   C2B 9838  14.293   9.760   7.571  0.2858 -0.1630  0.2533
  678loPI   C3B 9839  14.336   9.786   7.994  0.1463 -0.1409  0.0095
  678loPI   C4B 9840  14.352   9.802   8.461 -0.0479  0.0890  0.1902
  679loPI    C1 9841  11.015  14.662   6.036 -0.1140  0.0088  0.0917
  679loPI    C2 9842  11.258  14.872   5.798 -0.2321 -0.0737 -0.1039
  679loPI    C3 9843  11.145  14.503   5.692 -0.2447 -0.1311  0.1059
  679loPI   PO4 9844  11.154  14.660   6.328  0.1794 -0.3239  0.0796
  679loPI   GL1 9845  11.392  14.758   6.694 -0.2858 -0.3015 -0.1465
  679loPI   GL2 9846  11.508  14.530   6.796  0.0995 -0.0676 -0.3009
  679loPI   C1A 9847  11.107  14.940   6.869  0.0879  0.0077 -0.0806
  679loPI   C2A 9848  11.017  15.055   7.246 -0.3212 -0.0344 -0.1461
  679loPI   C3A 9849  10.954  15.036   7.727 -0.1660 -0.2028  0.2120
  679loPI   C4A 9850  10.960  14.999   8.144 -0.0128 -0.1564  0.1668
  679loPI   C5A 9851  11.184  14.946   8.584  0.2648 -0.2106 -0.2816
  679loPI   C6A 9852  11.436  14.754   8.923  0.2669  0.0788 -0.0577
  679loPI   C1B 9853  11.409  14.704   7.215  0.1065 -0.0168  0.2319
  679loPI   C2B 9854  11.339  14.692   7.656 -0.0604  0.1860  0.0863
  679loPI   C3B 9855  11.304  14.697   8.070  0.2195 -0.2400  0.1231
  679loPI   C4B 9856  11.483  14.574   8.388  0.0266 -0.1098 -0.0125
  680loPI    C1 9857   9.723  10.089   5.545  0.0986  0.1470 -0.2511
  680loPI    C2 9858   9.854  10.433   5.703  0.1085 -0.0192  0.1107
  680loPI    C3 9859   9.486  10.411   5.548  0.1219  0.1638  0.0509
  680loPI   PO4 9860   9.703   9.877   5.743 -0.0180  0.1936 -0.1563
  680loPI   GL1 9861   9.562   9.722   6.160 -0.2254 -0.1150  0.0405
  680loPI   GL2 9862   9.880   9.726   6.353  0.5014 -0.0548 -0.2199
  680loPI   C1A 9863   9.378   9.855   6.471 -0.2890 -0.0617 -0.2600
  680loPI   C2A 9864   9.237   9.679   6.892 -0.0256  0.3291  0.2080
  680loPI   C3A 9865   9.328   9.688   7.350 -0.1499 -0.2680  0.1262
  680loPI   C4A 9866   9.172   9.824   7.693  0.0129 -0.1268 -0.4162
  680loPI   C5A 9867   9.112   9.837   8.140 -0.3480  0.0564  0.0857
  680loPI   C6A 9868   9.443   9.626   8.380 -0.1480  0.1369  0.0855
  680loPI   C1B 9869   9.805   9.800   6.752 -0.3636 -0.0215  0.2451
  680loPI   C2B 9870   9.809   9.829   7.123 -0.1844 -0.2191 -0.0407
  680loPI   C3B 9871   9.660   9.952   7.593  0.1177  0.3784 -0.0585
  680loPI   C4B 9872   9.772   9.948   8.038  0.0950 -0.1332  0.1740
  681loPI    C1 9873  11.930   7.581   5.976 -0.2280 -0.0755  0.2187
  681loPI    C2 9874  11.660   7.340   5.804 -0.1036  0.0185 -0.1162
  681loPI    C3 9875  11.752   7.691   5.634  0.2944 -0.0522 -0.0552
  681loPI   PO4 9876  11.905   7.526   6.180 -0.2781  0.0955  0.0236
  681loPI   GL1 9877  11.692   7.365   6.546  0.3171 -0.1285  0.2252
  681loPI   GL2 9878  11.463   7.243   6.689  0.1429  0.2025  0.1121
  681loPI   C1A 9879  11.779   7.511   7.015  0.1809  0.3448  0.1442
  681loPI   C2A 9880  11.994   7.480   7.413  0.0451 -0.0655  0.2705
  681loPI   C3A 9881  11.849   7.584   7.811 -0.0008 -0.0549  0.0507
  681loPI   C4A 9882  11.938   7.738   8.141 -0.0418  0.3714  0.1753
  681loPI   C5A 9883  11.750   7.687   8.509  0.1514 -0.2036 -0.2023
  681loPI   C6A 9884  11.985   7.571   8.887  0.1077 -0.0407  0.2731
  681loPI   C1B 9885  11.287   7.294   7.048  0.0347  0.0897 -0.1881
  681loPI   C2B 9886  11.436   7.356   7.407 -0.1300 -0.2451 -0.4697
  681loPI   C3B 9887  11.376   7.500   7.872  0.1616 -0.1527 -0.1535
  681loPI   C4B 9888  11.400   7.655   8.210 -0.0723  0.1958  0.2095
  682loPI    C1 9889   5.262   6.826   6.136  0.0860  0.1839  0.0176
  682loPI    C2 9890   5.195   7.207   6.237 -0.2453  0.1672 -0.1250
  682loPI    C3 9891   5.357   7.120   5.881 -0.0237  0.1795 -0.0290
  682loPI   PO4 9892   5.073   6.691   6.210  0.2075  0.3725 -0.1127
  682loPI   GL1 9893   5.090   6.863   6.601  0.3146  0.3743  0.1497
  682loPI   GL2 9894   5.068   6.561   6.719 -0.0080 -0.0231  0.1773
  682loPI   C1A 9895   5.023   6.923   6.981 -0.0747 -0.1939 -0.0885
  682loPI   C2A 9896   5.029   6.865   7.358  0.2469  0.3134  0.2721
  682loPI   C3A 9897   5.110   6.732   7.745 -0.2214  0.0842 -0.0185
  682loPI   C4A 9898   5.047   6.773   8.200 -0.1482  0.0932  0.0478
  682loPI   C5A 9899   4.876   6.856   8.571  0.1917  0.1191  0.2022
  682loPI   C6A 9900   4.592   6.575   8.865 -0.1195  0.2826 -0.0734
  682loPI   C1B 9901   4.980   6.336   7.149 -0.1892 -0.0875  0.0133
  682loPI   C2B 9902   5.002   6.310   7.529 -0.0098 -0.0873 -0.1209
  682loPI   C3B 9903   4.845   6.291   8.038 -0.0848  0.0306 -0.1124
  682loPI   C4B 9904   4.733   6.325   8.434 -0.2738  0.0245  0.0492
  683loPI    C1 9905   4.494  13.894   6.068 -0.1256  0.1187  0.0146
  683loPI    C2 9906   4.500  14.054   5.701 -0.4705 -0.1567 -0.1172
  683loPI    C3 9907   4.804  13.825   5.825 -0.0382  0.4677  0.0221
  683loPI   PO4 9908   4.444  14.088   6.215  0.0607 -0.0944  0.0062
  683loPI   GL1 9909   4.574  14.048   6.650 -0.2025  0.3167 -0.0209
  683loPI   GL2 9910   4.264  14.226   6.634 -0.0864 -0.1161 -0.0520
  683loPI   C1A 9911   4.481  13.702   7.004 -0.1520  0.0243  0.1415
  683loPI   C2A 9912   4.614  13.632   7.422  0.1635  0.0900  0.0057
  683loPI   C3A 9913   4.607  13.765   7.867  0.0171  0.0847 -0.2267
  683loPI   C4A 9914   4.635  13.762   8.248  0.2965  0.0619  0.1901
  683loPI   C5A 9915   4.537  13.773   8.741 -0.1629 -0.1293  0.0697
  683loPI   C6A 9916   4.116  13.834   9.022 -0.1146 -0.1652  0.1968
  683loPI   C1B 9917   4.247  14.081   7.061  0.3210  0.2707  0.0111
  683loPI   C2B 9918   4.185  13.978   7.475 -0.0888 -0.3548  0.0667
  683loPI   C3B 9919   4.217  14.076   7.879  0.1043 -0.2899 -0.1176
  683loPI   C4B 9920   4.305  14.172   8.298  0.0695  0.0868 -0.0384
  684loPI    C1 9921   7.755  12.755   5.909  0.1374 -0.1321  0.0847
  684loPI    C2 9922   8.083  12.608   5.733  0.0318 -0.0563 -0.1801
  684loPI    C3 9923   7.933  12.960   5.615 -0.1430 -0.0885 -0.0582
  684loPI   PO4 9924   7.763  12.604   6.160 -0.1626  0.0316 -0.0462
  684loPI   GL1 9925   7.964  12.504   6.501 -0.3165  0.1787 -0.0325
  684loPI   GL2 9926   7.860  12.789   6.594  0.2099 -0.0807 -0.3393
  684loPI   C1A 9927   8.003  12.296   6.944  0.1988 -0.3422  0.0478
  684loPI   C2A 9928   8.010  12.310   7.344  0.0313 -0.2050  0.0133
  684loPI   C3A 9929   7.924  12.280   7.852  0.1123  0.3268  0.0448
  684loPI   C4A 9930   7.923  12.287   8.199  0.1324 -0.0682 -0.1018
  684loPI   C5A 9931   7.994  12.245   8.645  0.2267 -0.1303  0.0480
  684loPI   C6A 9932   8.423  12.143   8.850 -0.1452 -0.1773  0.1190
  684loPI   C1B 9933   7.592  12.600   7.006 -0.1012  0.1535 -0.0928
  684loPI   C2B 9934   7.588  12.564   7.520 -0.0951  0.2751 -0.1616
  684loPI   C3B 9935   7.559  12.599   7.944 -0.1399  0.2633 -0.2717
  684loPI   C4B 9936   7.459  12.671   8.373 -0.0788  0.1009  0.1248
  685loPI    C1 9937   9.494   2.843   6.029  0.2828  0.2196  0.0922
  685loPI    C2 9938   9.185   3.065   5.906 -0.0416 -0.1947  0.1361
  685loPI    C3 9939   9.392   2.846   5.643  0.2681  0.1363  0.0953
  685loPI   PO4 9940   9.367   2.688   6.295 -0.1875  0.2102  0.3514
  685loPI   GL1 9941   9.085   2.561   6.565 -0.1456 -0.0565  0.2519
  685loPI   GL2 9942   9.160   2.741   6.816  0.1212 -0.1559 -0.0320
  685loPI   C1A 9943   8.968   2.345   6.974 -0.1779  0.1311  0.1467
  685loPI   C2A 9944   8.919   2.268   7.355 -0.5586  0.2711  0.0053
  685loPI   C3A 9945   8.939   2.305   7.728 -0.0429 -0.3544 -0.0825
  685loPI   C4A 9946   9.030   2.233   8.119  0.0747 -0.0309  0.1383
  685loPI   C5A 9947   8.963   2.196   8.552  0.0378  0.0411  0.0125
  685loPI   C6A 9948   9.028   2.168   8.986  0.1678 -0.2503 -0.0388
  685loPI   C1B 9949   9.082   2.794   7.327  0.0472  0.0671  0.3892
  685loPI   C2B 9950   9.030   2.826   7.695  0.3901  0.0979 -0.1939
  685loPI   C3B 9951   9.159   2.784   8.012  0.0588  0.1486  0.1518
  685loPI   C4B 9952   9.063   2.695   8.387  0.2180 -0.2231  0.3393
  686loPI    C1 9953   3.451   9.266   5.558  0.1653 -0.1238 -0.0368
  686loPI    C2 9954   3.502   8.948   5.319 -0.0415 -0.1488 -0.0496
  686loPI    C3 9955   3.134   9.091   5.387  0.0383  0.0084  0.0605
  686loPI   PO4 9956   3.594   9.269   5.791  0.0286 -0.1269  0.1352
  686loPI   GL1 9957   3.422   9.254   6.274 -0.2136 -0.0263  0.1192
  686loPI   GL2 9958   3.497   8.889   6.270  0.0330  0.1499  0.2008
  686loPI   C1A 9959   3.343   9.281   6.577  0.0097 -0.1024  0.1032
  686loPI   C2A 9960   3.502   9.268   7.039 -0.1026  0.0992 -0.1209
  686loPI   C3A 9961   3.417   9.180   7.470  0.0760  0.0288  0.1776
  686loPI   C4A 9962   3.410   9.145   7.829  0.0698  0.1666  0.1758
  686loPI   C5A 9963   3.487   9.139   8.289  0.0756  0.0438 -0.2139
  686loPI   C6A 9964   3.447   8.726   8.458  0.0123 -0.1271 -0.2000
  686loPI   C1B 9965   3.731   8.778   6.587 -0.1907 -0.0042 -0.0161
  686loPI   C2B 9966   3.827   8.777   6.979 -0.1099 -0.0181 -0.3306
  686loPI   C3B 9967   3.759   8.835   7.477  0.1103  0.1493  0.0497
  686loPI   C4B 9968   3.821   8.765   7.857 -0.0724  0.1145 -0.0627
  687loPI    C1 9969  12.608  16.628   6.282  0.1298  0.0479  0.0536
  687loPI    C2 9970  12.421  16.507   5.950  0.0465 -0.2769  0.2154
  687loPI    C3 9971  12.814  16.581   5.942 -0.0472  0.2322 -0.0816
  687loPI   PO4 9972  12.520  16.460   6.477 -0.2741  0.0184 -0.0749
  687loPI   GL1 9973  12.209  16.489   6.725 -0.2371 -0.0093  0.1707
  687loPI   GL2 9974  11.895  16.502   6.642  0.3753  0.2433 -0.2968
  687loPI   C1A 9975  12.321  16.465   7.233 -0.0487 -0.3482  0.2058
  687loPI   C2A 9976  12.317  16.338   7.644  0.3074 -0.0229  0.0436
  687loPI   C3A 9977  12.274  16.329   8.092 -0.3492  0.5208 -0.1194
  687loPI   C4A 9978  12.206  16.452   8.621 -0.1919 -0.0669 -0.2111
  687loPI   C5A 9979  12.119  16.306   9.059 -0.1257 -0.1127  0.0473
  687loPI   C6A 9980  12.013  15.930   9.211  0.1168  0.2197 -0.2940
  687loPI   C1B 9981  11.778  16.340   7.012 -0.1417  0.0304  0.1548
  687loPI   C2B 9982  11.823  16.311   7.444 -0.0536 -0.0035  0.0872
  687loPI   C3B 9983  11.851  16.184   7.822 -0.1378  0.2530 -0.0291
  687loPI   C4B 9984  11.695  16.161   8.255  0.0183  0.1191  0.0165
  688loPI    C1 9985   2.393   8.742   5.930 -0.0419  0.2165  0.1285
  688loPI    C2 9986   2.028   8.817   5.783  0.0822  0.3093 -0.1396
  688loPI    C3 9987   2.292   9.115   5.824  0.1105  0.2525  0.1083
  688loPI   PO4 9988   2.354   8.543   6.143  0.0958 -0.1144 -0.1709
  688loPI   GL1 9989   2.625   8.525   6.528 -0.2020  0.0663 -0.2757
  688loPI   GL2 9990   2.517   8.219   6.638 -0.1231 -0.3765  0.0251
  688loPI   C1A 9991   2.682   8.514   7.025 -0.2941 -0.1423 -0.1236
  688loPI   C2A 9992   2.756   8.535   7.424  0.3170  0.1231  0.0536
  688loPI   C3A 9993   2.811   8.557   7.825 -0.0393 -0.0437 -0.0172
  688loPI   C4A 9994   2.653   8.545   8.253 -0.0231 -0.2493  0.2984
  688loPI   C5A 9995   2.480   8.348   8.623  0.0764  0.0895  0.2453
  688loPI   C6A 9996   2.225   8.196   8.942  0.1592 -0.0501  0.1789
  688loPI   C1B 9997   2.460   8.086   7.002  0.0466 -0.0640  0.2437
  688loPI   C2B 9998   2.562   7.964   7.428 -0.0565 -0.0817  0.0479
  688loPI   C3B 9999   2.607   7.976   7.836 -0.2067  0.1529  0.1285
  688loPI   C4B10000   2.717   8.041   8.252 -0.3736  0.1596  0.2402
  689loPI    C110001  10.397   4.248   6.130  0.1119 -0.1913 -0.0088
  689loPI    C210002  10.687   4.056   5.931  0.1621  0.0510 -0.1733
  689loPI    C310003  10.364   4.190   5.735  0.1282  0.1354 -0.0606
  689loPI   PO410004  10.529   4.419   6.354 -0.0128 -0.0092  0.0134
  689loPI   GL110005  10.375   4.317   6.696  0.1073 -0.0880 -0.1596
  689loPI   GL210006  10.344   4.672   6.792  0.2358  0.1350  0.2716
  689loPI   C1A10007  10.461   4.203   7.077 -0.1553 -0.0261 -0.1363
  689loPI   C2A10008  10.407   4.291   7.514 -0.3309 -0.2282  0.2197
  689loPI   C3A10009  10.304   4.206   7.959 -0.3883 -0.1100 -0.1422
  689loPI   C4A10010   9.983   4.368   8.274  0.2511  0.3840  0.1888
  689loPI   C5A10011  10.037   4.513   8.591  0.2150  0.2615 -0.2102
  689loPI   C6A10012  10.049   4.864   8.899 -0.2251  0.2445 -0.1984
  689loPI   C1B10013  10.502   4.675   7.240  0.1665  0.0341  0.2721
  689loPI   C2B10014  10.564   4.827   7.695 -0.0060 -0.3767 -0.3577
  689loPI   C3B10015  10.403   4.878   8.028  0.0280 -0.2994  0.0139
  689loPI   C4B10016  10.339   4.820   8.389  0.3745 -0.1755 -0.0772
  690loPI    C110017  16.252  17.016   5.810 -0.1102  0.0219  0.2049
  690loPI    C210018  15.972  16.758   5.689 -0.0794 -0.0620  0.3104
  690loPI    C310019  16.012  17.111   5.505 -0.1020 -0.1442  0.1458
  690loPI   PO410020  16.324  16.900   6.211  0.0601 -0.1997  0.2023
  690loPI   GL110021  16.422  16.614   6.489  0.0241 -0.1255 -0.2745
  690loPI   GL210022  16.176  16.834   6.665  0.3474 -0.1355  0.0881
  690loPI   C1A10023  16.531  16.546   6.943 -0.2572 -0.0302  0.1388
  690loPI   C2A10024  16.618  16.479   7.346  0.3083  0.0924  0.0028
  690loPI   C3A10025  16.710  16.536   7.830 -0.1521  0.1252 -0.0803
  690loPI   C4A10026  16.592  16.485   8.273  0.2951 -0.1994  0.0385
  690loPI   C5A10027  16.610  16.224   8.714  0.1898  0.0750  0.0088
  690loPI   C6A10028  16.392  16.077   8.945  0.1480 -0.1654  0.0848
  690loPI   C1B10029  16.232  16.864   7.099  0.0948  0.0383  0.0764
  690loPI   C2B10030  16.251  16.800   7.554 -0.2225  0.0929 -0.1962
  690loPI   C3B10031  16.341  16.869   8.002  0.4325  0.2841 -0.1478
  690loPI   C4B10032  16.205  16.819   8.381 -0.1432  0.3271  0.2261
  691loPI    C110033  10.151   1.092   6.205 -0.3699 -0.1962 -0.0449
  691loPI    C210034  10.165   1.330   5.884 -0.2716 -0.0526  0.0643
  691loPI    C310035  10.157   0.933   5.838 -0.1915 -0.0347 -0.1139
  691loPI   PO410036  10.073   1.366   6.432 -0.1445 -0.0398 -0.2123
  691loPI   GL110037   9.958   1.349   6.809  0.0681  0.5117 -0.0907
  691loPI   GL210038   9.697   1.554   6.810  0.0119  0.1081 -0.1343
  691loPI   C1A10039  10.001   1.179   7.189 -0.0311  0.2423 -0.3559
  691loPI   C2A10040   9.935   1.132   7.504 -0.0629 -0.2584 -0.0016
  691loPI   C3A10041  10.057   1.073   7.876 -0.0938  0.0489  0.2593
  691loPI   C4A10042  10.085   1.079   8.333 -0.0636 -0.1058  0.3775
  691loPI   C5A10043  10.177   1.157   8.744  0.1054 -0.1391  0.1048
  691loPI   C6A10044  10.296   1.267   9.085 -0.3873 -0.1129  0.0673
  691loPI   C1B10045   9.574   1.561   7.252  0.1680 -0.1510  0.2519
  691loPI   C2B10046   9.589   1.499   7.657 -0.1933 -0.2183  0.0664
  691loPI   C3B10047   9.772   1.441   8.022  0.1789  0.1056 -0.0265
  691loPI   C4B10048   9.676   1.524   8.444  0.0130 -0.2100  0.1983
  692loPI    C110049   3.009  12.404   6.204  0.2401  0.2428 -0.0142
  692loPI    C210050   3.020  12.181   5.871 -0.0308  0.1732  0.0215
  692loPI    C310051   3.286  12.117   6.163 -0.0017  0.0091 -0.0401
  692loPI   PO410052   3.012  12.591   6.145  0.0356  0.0819 -0.2039
  692loPI   GL110053   3.006  12.980   6.483 -0.1028  0.2228 -0.1430
  692loPI   GL210054   2.979  12.731   6.617  0.2018  0.3281 -0.1299
  692loPI   C1A10055   3.080  13.175   6.855  0.0319 -0.0120 -0.1027
  692loPI   C2A10056   2.988  13.269   7.197  0.0487  0.0903  0.0934
  692loPI   C3A10057   3.093  13.280   7.568 -0.3375  0.0425  0.0298
  692loPI   C4A10058   3.134  13.314   7.960  0.1612  0.2105 -0.2910
  692loPI   C5A10059   3.169  13.265   8.332 -0.2346  0.1480  0.1503
  692loPI   C6A10060   3.393  13.460   8.714 -0.1192  0.3656 -0.0100
  692loPI   C1B10061   2.829  12.733   7.038 -0.0824  0.0428 -0.1368
  692loPI   C2B10062   2.897  12.788   7.450 -0.1394  0.1396 -0.5096
  692loPI   C3B10063   2.925  12.785   7.841 -0.0896 -0.2626 -0.0851
  692loPI   C4B10064   2.963  12.817   8.219 -0.2078 -0.2481 -0.0364
  693loPI    C110065  13.883  12.670   5.806 -0.1900 -0.1417  0.1497
  693loPI    C210066  13.567  12.463   5.675 -0.2134 -0.0823  0.1120
  693loPI    C310067  13.738  12.738   5.439 -0.2702  0.0418  0.2140
  693loPI   PO410068  13.844  12.817   6.095  0.0029 -0.1491  0.0076
  693loPI   GL110069  13.612  12.841   6.473  0.2081  0.1935  0.1012
  693loPI   GL210070  13.653  12.573   6.708  0.0410  0.0092 -0.2672
  693loPI   C1A10071  13.675  13.017   6.921  0.0848  0.1868 -0.0539
  693loPI   C2A10072  13.781  12.986   7.366 -0.1745  0.0337  0.1882
  693loPI   C3A10073  13.705  13.020   7.825  0.2078  0.1100 -0.0452
  693loPI   C4A10074  13.806  12.972   8.253 -0.1010  0.0331  0.1266
  693loPI   C5A10075  13.749  12.857   8.734  0.1499  0.0867 -0.1630
  693loPI   C6A10076  14.003  12.564   8.882 -0.0862  0.0810 -0.1141
  693loPI   C1B10077  13.635  12.561   7.137  0.0763  0.0371  0.0931
  693loPI   C2B10078  13.543  12.507   7.600  0.1723  0.0655  0.0027
  693loPI   C3B10079  13.604  12.509   7.936  0.0213 -0.3090 -0.0199
  693loPI   C4B10080  13.704  12.478   8.396  0.1750 -0.0469 -0.1865
  694loPI    C110081   6.189  15.392   5.880 -0.1608  0.1844 -0.3034
  694loPI    C210082   6.447  15.694   5.928  0.1181 -0.0867 -0.0469
  694loPI    C310083   6.362  15.560   5.560 -0.0665  0.3456 -0.1693
  694loPI   PO410084   6.242  15.220   6.131 -0.1940  0.0353  0.0743
  694loPI   GL110085   6.246  15.347   6.668  0.2717 -0.3870  0.0030
  694loPI   GL210086   6.492  15.403   6.639  0.0728 -0.0076  0.1386
  694loPI   C1A10087   6.100  15.577   6.992  0.1616 -0.0951  0.2048
  694loPI   C2A10088   5.999  15.563   7.445  0.1573 -0.1136  0.1005
  694loPI   C3A10089   6.076  15.469   7.892 -0.2621  0.0196  0.1310
  694loPI   C4A10090   6.054  15.589   8.409 -0.2005 -0.3616 -0.2134
  694loPI   C5A10091   6.240  15.517   8.773  0.1823  0.0431 -0.2523
  694loPI   C6A10092   6.657  15.562   8.747 -0.1220 -0.1752  0.3220
  694loPI   C1B10093   6.606  15.626   7.029 -0.3806 -0.2560  0.0279
  694loPI   C2B10094   6.627  15.746   7.483  0.3190 -0.0973 -0.0511
  694loPI   C3B10095   6.531  15.618   7.809 -0.1146  0.1297 -0.1966
  694loPI   C4B10096   6.509  15.667   8.215 -0.2465 -0.0084 -0.0731
  695loPI    C110097  11.055   6.956   6.289  0.1335  0.1107  0.0053
  695loPI    C210098  11.359   7.204   6.213  0.0290  0.1915 -0.1540
  695loPI    C310099  11.095   7.118   5.925  0.1944 -0.2882 -0.1710
  695loPI   PO410100  10.979   7.032   6.561  0.0986  0.0761  0.1004
  695loPI   GL110101  10.923   6.830   6.912  0.2273 -0.0992 -0.0005
  695loPI   GL210102  10.970   6.552   7.050 -0.2293 -0.1599 -0.0398
  695loPI   C1A10103  10.860   7.187   7.211  0.3761  0.0362  0.1667
  695loPI   C2A10104  10.885   7.323   7.615 -0.0680  0.0632 -0.1676
  695loPI   C3A10105  10.896   7.474   8.006 -0.1510  0.2747  0.1085
  695loPI   C4A10106  10.953   7.525   8.393 -0.1441  0.3819  0.2029
  695loPI   C5A10107  11.137   7.643   8.770 -0.2102  0.1706 -0.1746
  695loPI   C6A10108  11.518   7.832   8.969 -0.0920  0.1708  0.0497
  695loPI   C1B10109  10.856   6.690   7.447  0.1441 -0.1438 -0.0266
  695loPI   C2B10110  10.832   6.810   7.868 -0.4847 -0.0992  0.2301
  695loPI   C3B10111  10.668   7.062   8.223  0.0424  0.2012  0.0572
  695loPI   C4B10112  10.427   6.940   8.574  0.1640  0.0504 -0.0163
  696loPI    C110113  15.083   9.406   6.094 -0.0639 -0.2827  0.1477
  696loPI    C210114  15.209   9.510   5.729 -0.1613 -0.0497  0.1787
  696loPI    C310115  15.434   9.271   5.958  0.0140  0.0010  0.0610
  696loPI   PO410116  14.874   9.564   6.162 -0.0392  0.2433 -0.1029
  696loPI   GL110117  15.027   9.690   6.525  0.2526 -0.1943  0.1404
  696loPI   GL210118  15.252   9.523   6.730  0.2192  0.1886 -0.1233
  696loPI   C1A10119  14.882   9.935   6.951  0.1808  0.1336  0.1692
  696loPI   C2A10120  14.840   9.918   7.318  0.1329 -0.0436  0.1162
  696loPI   C3A10121  14.721   9.915   7.700 -0.1876 -0.2377 -0.0075
  696loPI   C4A10122  14.826   9.949   8.162 -0.0813  0.3105  0.3458
  696loPI   C5A10123  14.910   9.980   8.608 -0.1670 -0.1428  0.0661
  696loPI   C6A10124  14.918  10.088   9.033 -0.0557  0.0718 -0.0632
  696loPI   C1B10125  15.233   9.586   7.081 -0.0567 -0.0458  0.1383
  696loPI   C2B10126  15.166   9.618   7.527  0.2471 -0.1704 -0.1576
  696loPI   C3B10127  15.077   9.590   7.936  0.2736 -0.1790 -0.0636
  696loPI   C4B10128  15.173   9.665   8.349  0.0607 -0.3077  0.0040
  697loPI    C110129   4.523   0.514   5.972  0.0072  0.0226  0.0091
  697loPI    C210130   4.356   0.627   5.626  0.1507 -0.0483 -0.0844
  697loPI    C310131   4.664   0.834   5.777 -0.0574  0.1187  0.1189
  697loPI   PO410132   4.361   0.481   6.140 -0.0134 -0.3320  0.4518
  697loPI   GL110133   4.327   0.670   6.524 -0.0265 -0.1160 -0.0832
  697loPI   GL210134   4.314   0.990   6.618  0.2894  0.1200  0.1052
  697loPI   C1A10135   4.205   0.532   6.951  0.1850 -0.0066  0.0753
  697loPI   C2A10136   4.349   0.461   7.328 -0.0282  0.2129  0.1384
  697loPI   C3A10137   4.368   0.543   7.810  0.2002  0.1969 -0.1580
  697loPI   C4A10138   4.248   0.477   8.311  0.0132  0.0669  0.0745
  697loPI   C5A10139   4.514   0.656   8.697  0.1414 -0.1916  0.1426
  697loPI   C6A10140   4.762   1.006   8.827 -0.0033  0.1058 -0.0141
  697loPI   C1B10141   4.320   0.964   7.131 -0.1433  0.1332  0.1187
  697loPI   C2B10142   4.491   1.015   7.452  0.1813  0.1774  0.1956
  697loPI   C3B10143   4.469   1.042   7.871  0.1227 -0.0364 -0.1075
  697loPI   C4B10144   4.458   0.940   8.308 -0.2403  0.1439  0.0147
  698loPI    C110145  12.794   7.727   5.572 -0.1323 -0.1098  0.0705
  698loPI    C210146  12.621   7.367   5.581 -0.1752 -0.0888  0.0947
  698loPI    C310147  12.938   7.430   5.346 -0.2522 -0.1039 -0.0144
  698loPI   PO410148  12.894   7.773   5.908 -0.0063 -0.1851 -0.1193
  698loPI   GL110149  12.781   7.802   6.326  0.1192 -0.0340  0.1722
  698loPI   GL210150  13.123   7.859   6.400 -0.1199 -0.0512  0.0483
  698loPI   C1A10151  12.759   7.804   6.743 -0.0292  0.3041  0.0371
  698loPI   C2A10152  12.819   7.902   7.110 -0.0528  0.1484 -0.1286
  698loPI   C3A10153  12.906   7.941   7.586 -0.0827 -0.1638  0.1383
  698loPI   C4A10154  12.994   7.995   8.038 -0.3426 -0.2425 -0.2719
  698loPI   C5A10155  13.091   7.831   8.436  0.3330 -0.1612 -0.2317
  698loPI   C6A10156  12.653   7.676   8.607 -0.1728 -0.0783 -0.0743
  698loPI   C1B10157  13.198   7.562   6.787  0.3013  0.0711  0.0019
  698loPI   C2B10158  13.187   7.607   7.212 -0.1057 -0.4277 -0.1588
  698loPI   C3B10159  13.251   7.596   7.559 -0.1672  0.3737 -0.0592
  698loPI   C4B10160  13.279   7.513   7.938 -0.0216  0.2054  0.2454
  699loPI    C110161   7.608  11.298   6.096  0.1478  0.2005  0.2460
  699loPI    C210162   7.776  11.444   5.763  0.0834 -0.0134  0.1182
  699loPI    C310163   7.419  11.265   5.745 -0.1662  0.4384  0.3878
  699loPI   PO410164   7.692  11.551   6.318 -0.1604  0.1390 -0.0791
  699loPI   GL110165   7.388  11.732   6.631  0.0882  0.1661 -0.1053
  699loPI   GL210166   7.277  11.408   6.640  0.2091  0.0541 -0.1179
  699loPI   C1A10167   7.324  11.624   7.120  0.3895  0.1625  0.0140
  699loPI   C2A10168   7.285  11.586   7.575  0.0745 -0.1066  0.0171
  699loPI   C3A10169   7.314  11.601   8.011  0.0433 -0.1223 -0.1932
  699loPI   C4A10170   7.298  11.787   8.374 -0.0107 -0.1238  0.0358
  699loPI   C5A10171   7.514  12.000   8.568  0.2634 -0.0638  0.1501
  699loPI   C6A10172   7.604  12.119   8.945  0.0711 -0.3109  0.1385
  699loPI   C1B10173   7.209  11.058   6.989 -0.0272 -0.1631  0.0754
  699loPI   C2B10174   7.177  11.039   7.450 -0.2573  0.2453 -0.0218
  699loPI   C3B10175   7.152  11.136   7.930  0.4024  0.2122  0.2118
  699loPI   C4B10176   7.258  11.209   8.360  0.1612  0.0010 -0.0391
  700loPI    C110177   7.878  15.768   5.658 -0.1578  0.0365  0.1035
  700loPI    C210178   7.876  15.389   5.785 -0.0223  0.0857  0.2551
  700loPI    C310179   7.763  15.475   5.411 -0.1655 -0.0904  0.2565
  700loPI   PO410180   7.735  15.879   6.008 -0.1316 -0.2451 -0.4478
  700loPI   GL110181   7.738  15.880   6.461 -0.1511 -0.1337 -0.0759
  700loPI   GL210182   7.933  15.593   6.627 -0.1590 -0.1586  0.2981
  700loPI   C1A10183   7.677  15.879   6.878  0.2886  0.2428 -0.0789
  700loPI   C2A10184   7.606  15.842   7.285  0.0362 -0.0273 -0.0583
  700loPI   C3A10185   7.555  15.912   7.696  0.2026 -0.0213 -0.1450
  700loPI   C4A10186   7.489  15.916   8.134  0.1365 -0.0884  0.2750
  700loPI   C5A10187   7.379  16.107   8.602 -0.1019  0.0459 -0.0842
  700loPI   C6A10188   7.245  16.264   8.966  0.2724 -0.0190 -0.2868
  700loPI   C1B10189   7.947  15.491   7.029 -0.1446 -0.2717  0.2442
  700loPI   C2B10190   7.956  15.531   7.485  0.1878  0.0809  0.3328
  700loPI   C3B10191   7.911  15.642   7.985 -0.1160 -0.3448 -0.3377
  700loPI   C4B10192   8.036  15.824   8.321 -0.0621 -0.0181 -0.3226
  701loPI    C110193   5.062   1.186   5.761 -0.0049  0.0953 -0.0143
  701loPI    C210194   5.072   1.568   5.641  0.2137  0.1579  0.1962
  701loPI    C310195   5.179   1.276   5.390  0.0825  0.2374  0.0467
  701loPI   PO410196   4.999   1.241   6.102  0.0316 -0.0745 -0.0499
  701loPI   GL110197   5.170   1.094   6.487 -0.0127  0.0027  0.0763
  701loPI   GL210198   4.834   0.948   6.516  0.2200 -0.3553 -0.2308
  701loPI   C1A10199   5.324   1.257   6.778 -0.1007  0.0478 -0.0445
  701loPI   C2A10200   5.402   1.396   7.083 -0.3135  0.4534 -0.0068
  701loPI   C3A10201   5.495   1.285   7.443  0.2119  0.0380 -0.0837
  701loPI   C4A10202   5.551   1.298   7.870 -0.1031 -0.1954  0.0950
  701loPI   C5A10203   5.533   1.245   8.295 -0.0217 -0.1642 -0.2030
  701loPI   C6A10204   5.267   1.211   8.747  0.0157  0.3421 -0.1505
  701loPI   C1B10205   4.900   1.055   6.954 -0.0613 -0.1686 -0.0839
  701loPI   C2B10206   4.999   1.149   7.343 -0.3244 -0.2455 -0.0533
  701loPI   C3B10207   4.989   1.179   7.744 -0.2369  0.0149  0.2067
  701loPI   C4B10208   4.954   1.219   8.225  0.1892  0.1705  0.2939
  702loPI    C110209   6.280  11.516   5.893 -0.1697 -0.1163  0.2627
  702loPI    C210210   5.886  11.459   5.858 -0.1261 -0.3194  0.0807
  702loPI    C310211   6.141  11.192   5.705  0.0866  0.0642 -0.2561
  702loPI   PO410212   6.276  11.562   6.143 -0.0432  0.0364 -0.4837
  702loPI   GL110213   6.216  11.668   6.554 -0.0989 -0.0521 -0.1743
  702loPI   GL210214   6.163  12.043   6.540 -0.1210  0.0098  0.2905
  702loPI   C1A10215   6.002  11.638   6.892 -0.0340  0.0676  0.5527
  702loPI   C2A10216   5.988  11.586   7.290  0.2551 -0.2491  0.0853
  702loPI   C3A10217   6.002  11.720   7.688 -0.1557  0.1488  0.1018
  702loPI   C4A10218   5.944  11.801   8.091  0.0239 -0.0413  0.1217
  702loPI   C5A10219   5.741  11.757   8.513  0.2159 -0.1133  0.0497
  702loPI   C6A10220   5.494  11.701   8.814  0.0057  0.2197  0.0215
  702loPI   C1B10221   6.193  12.212   6.947  0.2289 -0.0235  0.1101
  702loPI   C2B10222   6.147  12.094   7.378 -0.0122  0.2184  0.0371
  702loPI   C3B10223   6.063  12.202   7.812 -0.2433 -0.3195 -0.0831
  702loPI   C4B10224   5.981  12.229   8.267 -0.1732 -0.0117 -0.1195
  703loPI    C110225   5.758   7.547   5.932  0.0205  0.0010  0.0476
  703loPI    C210226   5.839   7.206   5.740  0.0326 -0.0190  0.0880
  703loPI    C310227   5.601   7.479   5.570  0.3563  0.1349 -0.1279
  703loPI   PO410228   5.644   7.492   6.120 -0.3075  0.0328 -0.2889
  703loPI   GL110229   5.545   7.643   6.538 -0.0921  0.1728 -0.0744
  703loPI   GL210230   5.321   7.777   6.419  0.0507 -0.0384  0.1616
  703loPI   C1A10231   5.792   7.487   6.879  0.0849  0.2838 -0.1689
  703loPI   C2A10232   5.657   7.458   7.246  0.0669 -0.0497  0.1871
  703loPI   C3A10233   5.700   7.418   7.717  0.1279 -0.2595  0.1897
  703loPI   C4A10234   5.823   7.402   8.168 -0.0623  0.2016  0.0436
  703loPI   C5A10235   5.853   7.602   8.569 -0.0664  0.0034 -0.0305
  703loPI   C6A10236   5.706   8.049   8.833  0.0986 -0.3688 -0.0853
  703loPI   C1B10237   5.239   7.852   7.008 -0.0112 -0.4778  0.1665
  703loPI   C2B10238   5.277   7.845   7.385  0.0129  0.1239 -0.2452
  703loPI   C3B10239   5.314   7.760   7.860 -0.1987 -0.2624  0.0800
  703loPI   C4B10240   5.522   7.754   8.236 -0.1626  0.1923  0.2094
  704loPI    C110241   8.651  16.214   5.933 -0.1554  0.0348 -0.2332
  704loPI    C210242   8.709  16.415   5.592  0.0949  0.0320 -0.1944
  704loPI    C310243   8.915  16.079   5.664 -0.0479 -0.0354 -0.0943
  704loPI   PO410244   8.648  16.402   6.122 -0.0557  0.0064  0.2666
  704loPI   GL110245   8.392  16.347   6.526  0.0636  0.1505 -0.1329
  704loPI   GL210246   8.167  16.050   6.609  0.0256 -0.2401  0.0444
  704loPI   C1A10247   8.584  16.169   6.919 -0.2858 -0.1738  0.1420
  704loPI   C2A10248   8.511  16.143   7.408 -0.0039  0.1833 -0.1041
  704loPI   C3A10249   8.476  16.246   7.786 -0.1811  0.0374  0.0919
  704loPI   C4A10250   8.467  16.257   8.255 -0.0037 -0.0096 -0.0116
  704loPI   C5A10251   8.345  16.210   8.607  0.0666 -0.1530  0.0789
  704loPI   C6A10252   8.198  15.982   8.855  0.3507 -0.1327  0.2337
  704loPI   C1B10253   8.113  15.964   7.062 -0.4225  0.0766  0.2453
  704loPI   C2B10254   8.041  16.113   7.573 -0.0045  0.2743  0.1351
  704loPI   C3B10255   7.972  16.162   7.971 -0.2104  0.2271  0.2094
  704loPI   C4B10256   7.852  16.287   8.498 -0.2104  0.4706 -0.0752
  705loPI    C110257  11.749   1.697   5.901  0.1415  0.1081 -0.1792
  705loPI    C210258  11.787   1.470   5.574 -0.0311  0.0163 -0.1367
  705loPI    C310259  11.604   1.825   5.551 -0.0423  0.0102 -0.1400
  705loPI   PO410260  11.570   1.623   6.025 -0.0745  0.1209  0.0228
  705loPI   GL110261  11.633   1.483   6.562 -0.3449  0.0411  0.1127
  705loPI   GL210262  11.338   1.646   6.841 -0.2273 -0.0848  0.0670
  705loPI   C1A10263  11.847   1.480   6.971  0.2168  0.3055  0.0349
  705loPI   C2A10264  11.921   1.421   7.382 -0.1848  0.4234  0.2120
  705loPI   C3A10265  12.040   1.396   7.732  0.1738  0.2279 -0.0330
  705loPI   C4A10266  12.022   1.148   8.076  0.2345  0.2534 -0.2382
  705loPI   C5A10267  12.078   1.007   8.401 -0.2310  0.3534  0.0683
  705loPI   C6A10268  11.775   0.764   8.674 -0.1371  0.0969  0.1641
  705loPI   C1B10269  11.431   1.754   7.237 -0.2361 -0.0924 -0.2694
  705loPI   C2B10270  11.620   1.744   7.650  0.0444 -0.2360  0.0781
  705loPI   C3B10271  11.595   1.544   8.019  0.0405 -0.1546  0.1244
  705loPI   C4B10272  11.693   1.328   8.437 -0.2209 -0.1397  0.0122
  706loPI    C110273  15.712  11.396   6.050 -0.0037 -0.1399 -0.1637
  706loPI    C210274  15.911  11.705   5.893 -0.1113 -0.0571 -0.1390
  706loPI    C310275  16.033  11.331   5.821 -0.1339 -0.0188 -0.3834
  706loPI   PO410276  15.675  11.435   6.344  0.1079 -0.0768  0.2781
  706loPI   GL110277  15.332  11.299   6.636  0.0436 -0.1558  0.1081
  706loPI   GL210278  15.011  11.439   6.702  0.0487  0.2347 -0.0969
  706loPI   C1A10279  15.458  11.207   7.018  0.0531  0.0422 -0.1004
  706loPI   C2A10280  15.576  11.122   7.472 -0.2086  0.2682  0.2339
  706loPI   C3A10281  15.599  11.076   7.964 -0.0267 -0.2295  0.0613
  706loPI   C4A10282  15.495  11.099   8.405  0.2422  0.5055  0.0082
  706loPI   C5A10283  15.331  10.844   8.743  0.4015  0.0749 -0.0345
  706loPI   C6A10284  15.338  10.943   9.111 -0.1223 -0.2648  0.0591
  706loPI   C1B10285  14.984  11.389   7.077  0.0953  0.1365  0.2706
  706loPI   C2B10286  15.074  11.294   7.444  0.1089  0.2001  0.0273
  706loPI   C3B10287  15.190  11.403   7.756  0.3761 -0.1753 -0.0999
  706loPI   C4B10288  15.227  11.440   8.139  0.0318 -0.1443 -0.0896
  707loPI    C110289   5.195   8.179   5.609  0.1191  0.0135 -0.0879
  707loPI    C210290   5.063   8.502   5.414 -0.0108  0.0706  0.0922
  707loPI    C310291   5.037   8.142   5.244 -0.0649  0.1278 -0.0214
  707loPI   PO410292   5.075   8.175   5.791 -0.0486 -0.1743  0.1511
  707loPI   GL110293   5.035   8.190   6.202  0.0852 -0.3027  0.3678
  707loPI   GL210294   5.364   8.412   6.284  0.0283 -0.0239  0.0214
  707loPI   C1A10295   4.959   8.046   6.645  0.1991  0.2613  0.0986
  707loPI   C2A10296   4.955   8.228   6.994 -0.1929 -0.2890 -0.0431
  707loPI   C3A10297   4.907   8.229   7.415  0.0790 -0.3771  0.0061
  707loPI   C4A10298   4.976   8.127   7.810 -0.1186 -0.1351  0.0771
  707loPI   C5A10299   5.098   8.251   8.200 -0.1726 -0.0068  0.2834
  707loPI   C6A10300   5.184   8.628   8.326 -0.0732  0.1365  0.1592
  707loPI   C1B10301   5.241   8.590   6.651  0.2083 -0.0659 -0.1297
  707loPI   C2B10302   5.186   8.663   7.072 -0.5866 -0.2076  0.1625
  707loPI   C3B10303   5.074   8.746   7.467 -0.0406 -0.2205 -0.0791
  707loPI   C4B10304   5.181   8.574   7.818  0.0045  0.0699  0.2147
  708loPI    C110305   1.186  14.393   6.412 -0.2239 -0.1388  0.0860
  708loPI    C210306   1.412  14.283   6.102  0.0300  0.3508  0.0891
  708loPI    C310307   1.021  14.347   6.051  0.0649  0.4018 -0.1254
  708loPI   PO410308   1.411  14.654   6.483 -0.1706 -0.1651 -0.2078
  708loPI   GL110309   1.500  15.017   6.838 -0.2081  0.1290  0.0559
  708loPI   GL210310   1.775  14.736   6.802  0.1539  0.1375  0.0231
  708loPI   C1A10311   1.547  15.243   7.211  0.0586 -0.0550  0.0521
  708loPI   C2A10312   1.641  15.423   7.617 -0.0096  0.0602  0.3215
  708loPI   C3A10313   1.776  15.372   8.022  0.0430 -0.0991 -0.1798
  708loPI   C4A10314   1.924  15.149   8.355 -0.5345 -0.1534  0.1387
  708loPI   C5A10315   2.275  15.055   8.416  0.0012 -0.0936  0.0510
  708loPI   C6A10316   2.500  15.315   8.690  0.0311  0.2337  0.3136
  708loPI   C1B10317   1.764  14.776   7.287  0.3326  0.1253  0.0992
  708loPI   C2B10318   1.716  14.943   7.657  0.0557 -0.1218  0.0571
  708loPI   C3B10319   1.648  14.821   8.076  0.1562 -0.1558  0.0030
  708loPI   C4B10320   1.693  14.713   8.573  0.2122  0.0236  0.3119
  709loPI    C110321   5.127   9.191   5.704 -0.0648 -0.0159  0.0304
  709loPI    C210322   5.423   9.301   5.459  0.1629  0.1125  0.3560
  709loPI    C310323   5.055   9.447   5.405  0.1712  0.0105 -0.0055
  709loPI   PO410324   5.295   9.215   5.939  0.1740  0.5019 -0.1614
  709loPI   GL110325   5.274   9.293   6.287 -0.1930  0.2673  0.0013
  709loPI   GL210326   5.055   9.600   6.275  0.1814 -0.0485 -0.1040
  709loPI   C1A10327   5.310   9.102   6.716  0.1762  0.0815 -0.1593
  709loPI   C2A10328   5.384   9.201   7.141  0.0886 -0.2214  0.0813
  709loPI   C3A10329   5.349   9.155   7.583  0.1050  0.4075  0.1866
  709loPI   C4A10330   5.340   9.092   8.024 -0.1600  0.2575 -0.1822
  709loPI   C5A10331   5.382   9.134   8.414  0.0833  0.1481  0.1203
  709loPI   C6A10332   5.183   8.942   8.746  0.0345 -0.2453 -0.2606
  709loPI   C1B10333   4.978   9.548   6.780  0.2265  0.1807  0.0570
  709loPI   C2B10334   4.950   9.587   7.207  0.1189  0.1736  0.0820
  709loPI   C3B10335   4.946   9.593   7.719 -0.0034 -0.2459 -0.1119
  709loPI   C4B10336   4.938   9.429   8.120 -0.3472  0.1676  0.0173
  710loPI    C110337  14.511   8.081   5.725 -0.0226 -0.0249 -0.0241
  710loPI    C210338  14.636   8.361   5.468 -0.0011 -0.1157 -0.1136
  710loPI    C310339  14.806   8.000   5.467  0.0120 -0.1107  0.0419
  710loPI   PO410340  14.528   8.138   5.925 -0.1835 -0.0105 -0.1802
  710loPI   GL110341  14.426   8.210   6.289  0.0470  0.1765 -0.4531
  710loPI   GL210342  14.138   8.055   6.504  0.2665 -0.0459  0.3086
  710loPI   C1A10343  14.494   8.285   6.696  0.1349  0.0881 -0.2202
  710loPI   C2A10344  14.508   8.324   7.083 -0.2846  0.1422  0.1871
  710loPI   C3A10345  14.508   8.377   7.561 -0.3281 -0.1536  0.1092
  710loPI   C4A10346  14.379   8.440   8.053  0.0826  0.0499 -0.0585
  710loPI   C5A10347  14.232   8.405   8.490 -0.0748  0.2456 -0.3442
  710loPI   C6A10348  14.288   8.592   8.914  0.0783 -0.0439  0.1444
  710loPI   C1B10349  14.214   7.853   6.942 -0.1700 -0.0077 -0.1261
  710loPI   C2B10350  14.314   7.922   7.383  0.1736  0.1274 -0.0238
  710loPI   C3B10351  14.354   7.973   7.853 -0.0182 -0.0124  0.2145
  710loPI   C4B10352  14.311   7.933   8.256 -0.1111 -0.1506 -0.1395
  711loPI    C110353   3.162   9.936   5.542 -0.0037 -0.0426 -0.0361
  711loPI    C210354   3.066   9.562   5.437 -0.3737  0.0273  0.0389
  711loPI    C310355   2.817   9.864   5.352 -0.0645  0.2628 -0.0470
  711loPI   PO410356   3.325   9.787   5.830  0.1473 -0.0945 -0.1854
  711loPI   GL110357   3.237   9.781   6.271 -0.0169  0.0253 -0.2878
  711loPI   GL210358   3.179  10.105   6.550 -0.0695  0.0231  0.1890
  711loPI   C1A10359   3.159   9.691   6.794  0.2622  0.0486 -0.1087
  711loPI   C2A10360   3.169   9.578   7.223 -0.0827  0.2904  0.1027
  711loPI   C3A10361   3.123   9.572   7.667 -0.0770  0.1468  0.2425
  711loPI   C4A10362   3.077   9.504   8.086 -0.0867 -0.1356  0.0769
  711loPI   C5A10363   3.008   9.379   8.557 -0.1307  0.3773 -0.2378
  711loPI   C6A10364   3.082   8.941   8.750  0.0966 -0.1304 -0.2702
  711loPI   C1B10365   3.227  10.077   7.069 -0.1455 -0.0126 -0.0374
  711loPI   C2B10366   3.271  10.009   7.469  0.3676  0.3154 -0.0551
  711loPI   C3B10367   3.189  10.099   7.934 -0.0955 -0.1836  0.0762
  711loPI   C4B10368   3.187   9.946   8.325 -0.3083 -0.2695 -0.2391
  712loPI    C110369  12.583  15.437   6.300 -0.2589 -0.0328  0.1948
  712loPI    C210370  12.409  15.600   5.979 -0.0387 -0.1550  0.0102
  712loPI    C310371  12.665  15.297   5.935  0.2094  0.0099  0.2779
  712loPI   PO410372  12.690  15.638   6.416  0.2337  0.0718 -0.1061
  712loPI   GL110373  12.706  15.768   6.827  0.1699 -0.2009  0.1427
  712loPI   GL210374  12.546  16.054   6.844  0.0065 -0.0059 -0.0577
  712loPI   C1A10375  12.939  15.587   7.121 -0.0061 -0.2184  0.2061
  712loPI   C2A10376  12.936  15.619   7.448  0.4174 -0.4663 -0.0561
  712loPI   C3A10377  13.009  15.631   7.834 -0.1117 -0.0136 -0.0036
  712loPI   C4A10378  13.125  15.506   8.251 -0.0039  0.1165  0.0600
  712loPI   C5A10379  13.162  15.547   8.675 -0.1731  0.1316 -0.1138
  712loPI   C6A10380  13.160  15.644   9.087  0.2299 -0.1086 -0.3488
  712loPI   C1B10381  12.692  16.037   7.293 -0.2036 -0.1657  0.0161
  712loPI   C2B10382  12.633  15.956   7.658  0.0371  0.1447 -0.0992
  712loPI   C3B10383  12.597  15.928   8.033  0.3659 -0.1433  0.1750
  712loPI   C4B10384  12.770  15.879   8.386 -0.2559 -0.0619 -0.0630
  713loPI    C110385  11.898   9.447   6.111  0.0565  0.0413 -0.0707
  713loPI    C210386  11.759   9.223   5.810  0.0460  0.1960 -0.1820
  713loPI    C310387  12.083   9.106   6.014 -0.2273 -0.1552  0.0631
  713loPI   PO410388  11.789   9.495   6.304  0.0745  0.0160 -0.1771
  713loPI   GL110389  11.852   9.795   6.591  0.2102  0.0041 -0.1182
  713loPI   GL210390  11.981   9.601   6.755  0.0686 -0.1353  0.3627
  713loPI   C1A10391  11.608   9.968   6.960 -0.2487  0.1558 -0.0246
  713loPI   C2A10392  11.609   9.944   7.421  0.0798 -0.1105  0.0174
  713loPI   C3A10393  11.507   9.937   7.820 -0.3612  0.0157  0.1010
  713loPI   C4A10394  11.498  10.063   8.281 -0.1759 -0.0877  0.0688
  713loPI   C5A10395  11.493  10.089   8.603  0.0806  0.1828 -0.0709
  713loPI   C6A10396  11.394   9.820   8.945  0.1251  0.3392 -0.1518
  713loPI   C1B10397  11.885   9.553   7.177 -0.2390  0.0516  0.0075
  713loPI   C2B10398  11.960   9.599   7.579  0.0247  0.1428  0.2103
  713loPI   C3B10399  11.877   9.632   8.006  0.1471 -0.1751 -0.1073
  713loPI   C4B10400  11.972   9.783   8.535  0.0803 -0.0875  0.0046
  714loPI    C110401  11.944   0.041   5.977 -0.0263 -0.0343 -0.1748
  714loPI    C210402  11.973  -0.200   5.659  0.0700  0.0493 -0.2301
  714loPI    C310403  12.210   0.121   5.689  0.1556 -0.0330 -0.0077
  714loPI   PO410404  11.947  -0.165   6.217 -0.0573 -0.1491 -0.1081
  714loPI   GL110405  11.686  -0.346   6.423  0.0125 -0.3380  0.0846
  714loPI   GL210406  11.903  -0.351   6.654 -0.1469 -0.0991 -0.0870
  714loPI   C1A10407  11.453  -0.547   6.836  0.0222  0.1597 -0.0663
  714loPI   C2A10408  11.365  -0.699   7.175 -0.0954  0.0797  0.0561
  714loPI   C3A10409  11.369  -0.731   7.586  0.0723  0.1259 -0.2818
  714loPI   C4A10410  11.455  -0.840   7.922  0.1665  0.0188 -0.1105
  714loPI   C5A10411  11.416  -0.790   8.398 -0.1840 -0.2244  0.1734
  714loPI   C6A10412  11.598  -0.495   8.707 -0.2216 -0.0547  0.0206
  714loPI   C1B10413  11.910  -0.534   7.046 -0.1382 -0.0697 -0.2029
  714loPI   C2B10414  11.938  -0.570   7.484  0.1467 -0.1545  0.0199
  714loPI   C3B10415  11.988  -0.648   7.829  0.0341  0.2694  0.0660
  714loPI   C4B10416  11.922  -0.679   8.185  0.1019  0.0195 -0.0026
  715loPI    C110417   1.223  11.881   6.082  0.1807  0.1467 -0.1141
  715loPI    C210418   0.881  12.072   6.162  0.1240 -0.0132  0.0321
  715loPI    C310419   0.948  11.928   5.795 -0.0109 -0.0716  0.0296
  715loPI   PO410420   1.358  11.936   6.288 -0.0882 -0.2945 -0.0908
  715loPI   GL110421   1.574  12.115   6.655 -0.1829  0.0386 -0.3063
  715loPI   GL210422   1.421  12.395   6.811 -0.0454  0.1545  0.0270
  715loPI   C1A10423   1.815  12.058   7.027 -0.0811  0.1061 -0.1809
  715loPI   C2A10424   1.821  12.006   7.514 -0.1056 -0.0472 -0.1128
  715loPI   C3A10425   1.829  11.963   7.933 -0.1108 -0.0952  0.1412
  715loPI   C4A10426   1.895  12.024   8.321  0.0893 -0.2180 -0.0321
  715loPI   C5A10427   2.040  11.951   8.732 -0.0934 -0.1580  0.0019
  715loPI   C6A10428   2.171  11.774   9.078  0.0334 -0.1689  0.0140
  715loPI   C1B10429   1.362  12.571   7.158  0.3652 -0.1062 -0.2290
  715loPI   C2B10430   1.407  12.456   7.596 -0.1695 -0.1627 -0.1288
  715loPI   C3B10431   1.488  12.430   8.031  0.2418 -0.2405 -0.0664
  715loPI   C4B10432   1.507  12.330   8.506 -0.2012 -0.1326 -0.0825
  716loPI    C110433  12.373  14.230   6.547  0.2749 -0.1357 -0.1801
  716loPI    C210434  12.583  14.485   6.323 -0.0520  0.0289 -0.3053
  716loPI    C310435  12.279  14.281   6.162 -0.2912  0.1490 -0.0164
  716loPI   PO410436  12.553  14.133   6.680  0.2948 -0.1804  0.2467
  716loPI   GL110437  12.873  14.223   7.025 -0.0750  0.0698  0.0908
  716loPI   GL210438  12.510  14.156   7.136 -0.1893  0.0727 -0.1853
  716loPI   C1A10439  13.059  14.269   7.373  0.1774  0.2032  0.0811
  716loPI   C2A10440  13.069  14.158   7.802 -0.2936  0.0101  0.0872
  716loPI   C3A10441  13.216  14.225   8.199 -0.0623 -0.2090 -0.1273
  716loPI   C4A10442  13.260  14.202   8.598 -0.3003  0.2406 -0.2075
  716loPI   C5A10443  13.561  14.113   9.037  0.0240  0.2562  0.6128
  716loPI   C6A10444  13.648  14.580   9.197  0.0855 -0.0728 -0.4969
  716loPI   C1B10445  12.627  14.084   7.620  0.3158 -0.0727 -0.2240
  716loPI   C2B10446  12.585  14.015   7.965 -0.0124 -0.1654  0.1051
  716loPI   C3B10447  12.728  14.087   8.329 -0.2305 -0.2776  0.1416
  716loPI   C4B10448  12.630  14.340   8.716  0.1690  0.1113  0.0094
  717loPI    C110449  14.341  16.326   6.254  0.1057  0.0840 -0.0629
  717loPI    C210450  14.391  16.483   5.889  0.1549  0.0997 -0.0496
  717loPI    C310451  14.044  16.308   5.987  0.1757  0.0092 -0.1362
  717loPI   PO410452  14.417  16.487   6.391 -0.3965 -0.2689 -0.0919
  717loPI   GL110453  14.685  16.574   6.700  0.2455 -0.2824  0.2141
  717loPI   GL210454  14.791  16.893   6.694  0.2717 -0.1407 -0.0040
  717loPI   C1A10455  14.654  16.503   7.120 -0.1447 -0.0628  0.1253
  717loPI   C2A10456  14.724  16.479   7.617  0.2326  0.1021  0.2449
  717loPI   C3A10457  14.702  16.470   8.029  0.1377 -0.0107 -0.1152
  717loPI   C4A10458  14.728  16.510   8.474  0.1133 -0.1255  0.0804
  717loPI   C5A10459  14.701  16.407   8.845  0.3231  0.1129  0.1874
  717loPI   C6A10460  14.426  16.376   9.261  0.1748 -0.2597  0.5419
  717loPI   C1B10461  14.820  16.967   7.095 -0.0370  0.1005 -0.1111
  717loPI   C2B10462  14.837  16.969   7.604 -0.0230  0.0774  0.0408
  717loPI   C3B10463  14.793  16.969   8.076 -0.1371  0.1959  0.1437
  717loPI   C4B10464  14.952  16.968   8.491 -0.1340  0.1108 -0.0313
  718loPI    C110465   6.775  14.223   5.936 -0.0556  0.1402  0.1318
  718loPI    C210466   6.452  14.011   6.040 -0.1670  0.0939 -0.2888
  718loPI    C310467   6.590  13.994   5.665  0.1458  0.3503 -0.1906
  718loPI   PO410468   6.842  14.233   6.294 -0.0709  0.0548 -0.3367
  718loPI   GL110469   6.680  14.407   6.588 -0.1052  0.0579 -0.0057
  718loPI   GL210470   6.809  14.664   6.743  0.0399  0.0212 -0.0216
  718loPI   C1A10471   6.600  14.187   6.934  0.0987 -0.0619  0.0802
  718loPI   C2A10472   6.601  14.214   7.328 -0.1819  0.0931  0.0243
  718loPI   C3A10473   6.604  14.178   7.720  0.0265 -0.2577  0.1251
  718loPI   C4A10474   6.679  14.330   8.112  0.0987  0.0554 -0.2623
  718loPI   C5A10475   6.707  14.335   8.456  0.1207  0.4019  0.1552
  718loPI   C6A10476   7.021  14.334   8.648 -0.0095  0.2291 -0.0562
  718loPI   C1B10477   6.745  14.679   7.117  0.2183 -0.1761  0.2850
  718loPI   C2B10478   6.807  14.686   7.554 -0.3347 -0.1764  0.0832
  718loPI   C3B10479   6.763  14.811   7.906 -0.1913  0.4027 -0.2011
  718loPI   C4B10480   6.814  14.796   8.345  0.1015  0.2236 -0.1696
  719loPI    C110481   2.749   1.884   5.843 -0.0666 -0.0995 -0.2134
  719loPI    C210482   3.019   2.129   6.007 -0.0509 -0.3089  0.0834
  719loPI    C310483   2.631   2.172   6.094 -0.0596 -0.3235  0.0517
  719loPI   PO410484   2.840   1.635   5.913  0.6436 -0.1010 -0.1998
  719loPI   GL110485   2.680   1.629   6.346 -0.0563  0.1149 -0.0577
  719loPI   GL210486   2.429   1.809   6.472 -0.0267  0.0488 -0.2343
  719loPI   C1A10487   2.625   1.445   6.767 -0.1112  0.0326  0.0001
  719loPI   C2A10488   2.683   1.484   7.242 -0.0104  0.0543  0.2728
  719loPI   C3A10489   2.693   1.421   7.634 -0.0415 -0.0455 -0.3555
  719loPI   C4A10490   2.864   1.537   7.980 -0.2480 -0.1131 -0.0843
  719loPI   C5A10491   2.769   1.523   8.368 -0.1373  0.0069 -0.1749
  719loPI   C6A10492   2.586   1.565   8.790 -0.1304 -0.2055  0.2728
  719loPI   C1B10493   2.224   1.752   6.974  0.1550  0.1463  0.2737
  719loPI   C2B10494   2.263   1.756   7.386  0.0312  0.2835  0.1569
  719loPI   C3B10495   2.317   1.791   7.787 -0.0991 -0.1465 -0.1371
  719loPI   C4B10496   2.451   1.888   8.163 -0.0973  0.0033  0.0635
  720loPI    C110497   2.513   5.690   5.886 -0.0550  0.0924  0.1521
  720loPI    C210498   2.514   5.994   5.627 -0.1522 -0.0182  0.0199
  720loPI    C310499   2.218   5.960   5.893 -0.1916 -0.0492 -0.0277
  720loPI   PO410500   2.788   5.654   5.985 -0.0924 -0.0266 -0.0307
  720loPI   GL110501   2.869   5.574   6.435  0.1990 -0.1431 -0.1913
  720loPI   GL210502   2.900   5.824   6.535 -0.1210  0.1382 -0.0226
  720loPI   C1A10503   2.822   5.298   6.813  0.1897 -0.0991  0.1536
  720loPI   C2A10504   2.786   5.357   7.187 -0.1320 -0.1604 -0.2894
  720loPI   C3A10505   2.853   5.286   7.654  0.2082 -0.4639 -0.0323
  720loPI   C4A10506   2.768   5.246   8.193 -0.1531  0.5191 -0.0125
  720loPI   C5A10507   2.753   5.510   8.518 -0.0511  0.0088 -0.2267
  720loPI   C6A10508   2.650   5.901   8.694 -0.0759  0.1225 -0.1373
  720loPI   C1B10509   2.998   5.817   6.928  0.3674 -0.0685  0.1389
  720loPI   C2B10510   2.972   5.861   7.244  0.0610  0.0556  0.3087
  720loPI   C3B10511   3.031   5.749   7.603 -0.1595  0.2278 -0.1973
  720loPI   C4B10512   2.888   5.711   8.041  0.1333  0.0905  0.0050
  721loPI    C110513   8.897   7.813   5.951 -0.0593 -0.1838 -0.0842
  721loPI    C210514   9.103   8.132   5.827 -0.1466 -0.1020 -0.0204
  721loPI    C310515   8.905   7.907   5.562 -0.1322 -0.0699 -0.0587
  721loPI   PO410516   8.948   7.883   6.250  0.1178 -0.2618  0.2151
  721loPI   GL110517   8.671   7.743   6.583 -0.1005 -0.0612 -0.3700
  721loPI   GL210518   8.723   8.133   6.618 -0.3630 -0.1533 -0.0133
  721loPI   C1A10519   8.816   7.744   7.013  0.1142 -0.5104  0.1422
  721loPI   C2A10520   8.862   7.993   7.353 -0.0893 -0.1185  0.3281
  721loPI   C3A10521   8.807   8.284   7.661 -0.2180  0.0035 -0.2656
  721loPI   C4A10522   8.566   8.264   8.069  0.0074 -0.0328 -0.1248
  721loPI   C5A10523   8.820   8.057   8.435 -0.3491 -0.1028  0.2233
  721loPI   C6A10524   9.187   7.762   8.405 -0.0101 -0.3278  0.2651
  721loPI   C1B10525   8.929   8.295   6.946  0.2133 -0.2550 -0.2332
  721loPI   C2B10526   9.089   8.439   7.243 -0.0656  0.0790  0.0201
  721loPI   C3B10527   9.250   8.467   7.650 -0.1928 -0.2364 -0.2020
  721loPI   C4B10528   9.155   8.367   8.077  0.0851 -0.2972  0.0190
  722loPI    C110529  10.078  13.294   5.878 -0.0441 -0.0422  0.1277
  722loPI    C210530  10.344  13.551   5.727  0.0442 -0.0890  0.2029
  722loPI    C310531  10.159  13.291   5.486  0.0781 -0.0671  0.1529
  722loPI   PO410532   9.982  13.392   6.161  0.4646  0.1269  0.2692
  722loPI   GL110533   9.893  13.499   6.560 -0.0956 -0.1284 -0.0318
  722loPI   GL210534  10.202  13.643   6.639 -0.0537  0.1344 -0.0255
  722loPI   C1A10535   9.791  13.650   6.954 -0.0175 -0.0233 -0.0550
  722loPI   C2A10536   9.742  13.697   7.362  0.1359  0.0963 -0.1122
  722loPI   C3A10537   9.742  13.770   7.801 -0.3167  0.1573 -0.2007
  722loPI   C4A10538   9.657  13.668   8.277 -0.0637 -0.0167 -0.2302
  722loPI   C5A10539   9.825  13.681   8.716 -0.0466  0.4289 -0.0197
  722loPI   C6A10540   9.651  13.666   9.109  0.2130 -0.1159  0.3964
  722loPI   C1B10541  10.272  13.842   7.115 -0.3378  0.0212  0.1060
  722loPI   C2B10542  10.188  13.883   7.489  0.0574  0.5119  0.1725
  722loPI   C3B10543  10.219  13.798   7.842 -0.1192 -0.0071 -0.0361
  722loPI   C4B10544  10.180  13.854   8.200  0.0965  0.3658 -0.0826
  723loPI    C110545  17.104  16.481   5.848  0.1239  0.0675  0.0004
  723loPI    C210546  17.299  16.450   5.500  0.0647  0.0430 -0.0307
  723loPI    C310547  16.902  16.502   5.503  0.0401 -0.1416  0.0353
  723loPI   PO410548  17.213  16.675   5.987 -0.1252 -0.0651  0.4669
  723loPI   GL110549  17.116  16.720   6.435  0.0016  0.1257 -0.0622
  723loPI   GL210550  16.901  16.891   6.421 -0.1961 -0.0072 -0.0201
  723loPI   C1A10551  17.026  16.627   6.806  0.1930  0.0652 -0.0972
  723loPI   C2A10552  17.081  16.733   7.259 -0.2365 -0.0325 -0.3590
  723loPI   C3A10553  17.189  16.710   7.725  0.2572 -0.0299  0.0653
  723loPI   C4A10554  17.132  16.666   8.208  0.1694 -0.0392  0.1089
  723loPI   C5A10555  16.923  16.822   8.545 -0.0104 -0.1962 -0.2862
  723loPI   C6A10556  16.535  17.058   8.727 -0.1970 -0.2749  0.1653
  723loPI   C1B10557  16.723  17.065   6.714  0.0624 -0.1439 -0.2801
  723loPI   C2B10558  16.654  17.075   7.171 -0.0690  0.1435  0.0037
  723loPI   C3B10559  16.740  17.000   7.672  0.0411  0.0625  0.3502
  723loPI   C4B10560  16.815  17.013   8.134 -0.1165  0.0792  0.2386
  724loPI    C110561   6.637  11.174   5.827  0.2663  0.0277  0.1801
  724loPI    C210562   6.961  11.339   5.660  0.1433 -0.0853 -0.1788
  724loPI    C310563   6.596  11.427   5.520  0.0402 -0.2215 -0.0000
  724loPI   PO410564   6.598  11.083   6.138  0.1788 -0.1141  0.2814
  724loPI   GL110565   6.632  11.314   6.533 -0.2036 -0.1580  0.0933
  724loPI   GL210566   6.390  11.179   6.579 -0.3702 -0.0924  0.0121
  724loPI   C1A10567   6.809  11.381   6.816  0.1990 -0.0793 -0.0553
  724loPI   C2A10568   6.839  11.378   7.242 -0.1791 -0.0980  0.0146
  724loPI   C3A10569   6.794  11.430   7.727 -0.3719 -0.1877  0.0094
  724loPI   C4A10570   6.781  11.556   8.095 -0.3458 -0.1177  0.2158
  724loPI   C5A10571   6.921  11.554   8.470 -0.0147 -0.1162 -0.0594
  724loPI   C6A10572   7.116  11.728   8.858 -0.1539 -0.0571 -0.3123
  724loPI   C1B10573   6.371  11.270   7.047  0.3335  0.4297 -0.2391
  724loPI   C2B10574   6.318  11.285   7.550  0.2324  0.1386  0.1606
  724loPI   C3B10575   6.353  11.315   7.912 -0.0765 -0.0986  0.4072
  724loPI   C4B10576   6.280  11.448   8.276  0.2262  0.1559 -0.2150
  725loPI    C110577   2.533   6.690   5.960  0.0106 -0.0503  0.1482
  725loPI    C210578   2.695   6.426   5.708  0.1998  0.0886  0.1224
  725loPI    C310579   2.734   6.818   5.639 -0.1166  0.1249  0.1370
  725loPI   PO410580   2.644   6.620   6.205 -0.1848  0.0619 -0.0037
  725loPI   GL110581   2.912   6.327   6.550 -0.0466  0.0630  0.3678
  725loPI   GL210582   3.235   6.300   6.622  0.0450  0.4151  0.1503
  725loPI   C1A10583   2.570   6.189   6.884 -0.1957  0.0364  0.0578
  725loPI   C2A10584   2.572   6.209   7.311  0.0439  0.4751  0.0059
  725loPI   C3A10585   2.632   6.080   7.771  0.0542  0.0594  0.1691
  725loPI   C4A10586   2.493   5.936   8.257 -0.0693 -0.0538 -0.0048
  725loPI   C5A10587   2.254   5.621   8.390  0.1236 -0.0327  0.0618
  725loPI   C6A10588   2.312   5.507   8.777 -0.1228  0.0350 -0.1017
  725loPI   C1B10589   3.085   6.309   7.138  0.3546 -0.2020  0.4763
  725loPI   C2B10590   3.088   6.279   7.617 -0.1816 -0.0554 -0.0445
  725loPI   C3B10591   3.081   6.191   8.032 -0.1248  0.1619 -0.1545
  725loPI   C4B10592   3.018   6.148   8.545 -0.0642 -0.1487 -0.0009
  726loPI    C110593   6.850   4.055   5.704 -0.2530  0.2931  0.1823
  726loPI    C210594   6.479   3.955   5.816 -0.1923 -0.1609  0.0003
  726loPI    C310595   6.583   3.937   5.430 -0.0327  0.1506  0.0257
  726loPI   PO410596   6.885   4.283   5.855  0.0986  0.0405  0.0411
  726loPI   GL110597   6.922   4.384   6.369  0.0707  0.0247  0.0705
  726loPI   GL210598   7.087   4.575   6.526  0.0202  0.0712  0.0638
  726loPI   C1A10599   6.685   4.441   6.717  0.0784  0.1320  0.0340
  726loPI   C2A10600   6.683   4.465   7.125  0.0464 -0.1118  0.1390
  726loPI   C3A10601   6.694   4.446   7.576  0.0861  0.1326 -0.2490
  726loPI   C4A10602   6.873   4.446   7.971  0.2435  0.1248 -0.1656
  726loPI   C5A10603   6.795   4.576   8.426 -0.0404 -0.1219 -0.2153
  726loPI   C6A10604   6.611   4.543   8.844 -0.0960  0.5021  0.0679
  726loPI   C1B10605   7.232   4.268   6.914 -0.1052  0.2741 -0.1895
  726loPI   C2B10606   7.105   4.148   7.252  0.0589 -0.1294 -0.0573
  726loPI   C3B10607   7.111   4.063   7.749  0.4727 -0.0586 -0.3628
  726loPI   C4B10608   7.179   4.062   8.268  0.3554  0.0420  0.1822
  727loPI    C110609   4.868  12.242   6.028  0.4215 -0.1404  0.1224
  727loPI    C210610   4.839  12.094   5.657  0.2238 -0.2068  0.1628
  727loPI    C310611   5.081  12.404   5.731 -0.1039  0.1264 -0.1230
  727loPI   PO410612   4.638  12.146   6.119  0.0847 -0.1724  0.0592
  727loPI   GL110613   4.438  12.202   6.602 -0.0888 -0.0563 -0.2136
  727loPI   GL210614   4.486  11.944   6.563 -0.0995 -0.0447 -0.1288
  727loPI   C1A10615   4.237  12.184   6.939  0.0668  0.2147  0.2491
  727loPI   C2A10616   4.164  12.105   7.450 -0.1812  0.0476 -0.1084
  727loPI   C3A10617   4.196  12.185   7.933 -0.0498  0.0029  0.0031
  727loPI   C4A10618   4.195  12.264   8.275 -0.3638 -0.0559 -0.2381
  727loPI   C5A10619   4.393  12.201   8.637  0.0232  0.1939 -0.2955
  727loPI   C6A10620   4.573  12.129   8.998 -0.1040  0.0127 -0.1891
  727loPI   C1B10621   4.543  11.792   6.982  0.0170  0.0627 -0.1862
  727loPI   C2B10622   4.554  11.775   7.435 -0.1988  0.0200  0.1811
  727loPI   C3B10623   4.564  11.900   7.832  0.0114 -0.0244 -0.0486
  727loPI   C4B10624   4.591  11.910   8.275  0.1987 -0.1862 -0.0250
  728loPI    C110625   5.566   6.667   5.752 -0.0197 -0.0178 -0.0266
  728loPI    C210626   5.189   6.686   5.619 -0.0741  0.3821  0.1695
  728loPI    C310627   5.480   6.874   5.420 -0.0410  0.3933  0.2282
  728loPI   PO410628   5.426   6.341   5.898 -0.2036  0.4275 -0.0715
  728loPI   GL110629   5.208   6.173   6.317  0.1183 -0.0917  0.2349
  728loPI   GL210630   5.457   6.430   6.379 -0.1165 -0.0933 -0.0275
  728loPI   C1A10631   4.965   5.984   6.664 -0.0414 -0.0231 -0.0026
  728loPI   C2A10632   4.868   5.821   7.082 -0.0796 -0.1618  0.0483
  728loPI   C3A10633   4.847   5.822   7.405  0.4003 -0.0439 -0.1002
  728loPI   C4A10634   4.811   5.804   7.857 -0.2654 -0.5264 -0.0042
  728loPI   C5A10635   4.750   5.828   8.239 -0.0146 -0.1977 -0.1659
  728loPI   C6A10636   4.396   5.754   8.327  0.0286  0.0078  0.0711
  728loPI   C1B10637   5.565   6.515   6.816  0.0599  0.0251 -0.0330
  728loPI   C2B10638   5.462   6.404   7.237 -0.0073 -0.3770 -0.1600
  728loPI   C3B10639   5.435   6.344   7.714 -0.0049  0.0342 -0.1343
  728loPI   C4B10640   5.502   6.518   8.098  0.2115 -0.0467 -0.1904
  729loPI    C110641   5.145   7.615   5.758 -0.2350  0.1244 -0.0148
  729loPI    C210642   5.084   7.295   5.526 -0.0375  0.0380  0.0508
  729loPI    C310643   5.003   7.661   5.387  0.0162 -0.0180 -0.1311
  729loPI   PO410644   5.120   7.637   5.990  0.1500  0.0277 -0.3075
  729loPI   GL110645   4.895   7.610   6.289 -0.0245  0.1930  0.0017
  729loPI   GL210646   4.640   7.637   6.371 -0.2458 -0.0849  0.1629
  729loPI   C1A10647   5.068   7.393   6.673  0.0470  0.0074 -0.0342
  729loPI   C2A10648   5.139   7.396   7.156  0.3666 -0.1406 -0.0885
  729loPI   C3A10649   5.205   7.253   7.575 -0.1630 -0.1966 -0.1780
  729loPI   C4A10650   5.168   7.278   8.043  0.2125  0.0549  0.3628
  729loPI   C5A10651   5.071   7.451   8.515  0.0636  0.3564  0.1968
  729loPI   C6A10652   4.803   7.489   8.754  0.2408  0.0986  0.3187
  729loPI   C1B10653   4.723   7.684   6.853 -0.2276 -0.2960  0.0478
  729loPI   C2B10654   4.787   7.789   7.222 -0.0099 -0.1182  0.0545
  729loPI   C3B10655   4.869   7.609   7.690 -0.0075 -0.2612 -0.0151
  729loPI   C4B10656   4.880   7.764   8.123 -0.2768  0.0534  0.0218
  730loPI    C110657  15.903   3.867   5.677  0.1282  0.3013  0.2286
  730loPI    C210658  16.205   3.674   5.498 -0.0655 -0.0709  0.2925
  730loPI    C310659  15.857   3.724   5.306  0.0963  0.5456  0.1368
  730loPI   PO410660  16.095   3.826   5.947  0.0273 -0.0343  0.2467
  730loPI   GL110661  16.287   3.676   6.251  0.0275 -0.2850  0.0362
  730loPI   GL210662  16.321   3.315   6.289  0.0389  0.0412  0.1427
  730loPI   C1A10663  16.509   3.781   6.583 -0.0206 -0.1198  0.0579
  730loPI   C2A10664  16.464   3.778   6.988 -0.0494  0.1051 -0.1205
  730loPI   C3A10665  16.378   3.864   7.440 -0.0051  0.1530  0.0867
  730loPI   C4A10666  16.541   3.947   7.885 -0.0680 -0.0003  0.5039
  730loPI   C5A10667  16.267   4.063   8.331 -0.0558 -0.0771 -0.0767
  730loPI   C6A10668  16.068   3.978   8.660  0.0499 -0.2673  0.1303
  730loPI   C1B10669  16.356   3.351   6.743  0.0490 -0.2806  0.0157
  730loPI   C2B10670  16.245   3.337   7.186  0.2263 -0.0213 -0.0425
  730loPI   C3B10671  16.288   3.397   7.678  0.0600  0.1051 -0.0085
  730loPI   C4B10672  16.337   3.377   8.145  0.2668 -0.3767  0.2765
  731loPI    C110673  13.790   7.443   5.653  0.1142  0.1770  0.1845
  731loPI    C210674  13.861   7.836   5.626  0.1394  0.1589 -0.0307
  731loPI    C310675  13.732   7.633   5.306  0.1832 -0.0197  0.0633
  731loPI   PO410676  13.808   7.440   5.942  0.2066  0.1308  0.2385
  731loPI   GL110677  13.930   7.641   6.275  0.3728 -0.3908 -0.1654
  731loPI   GL210678  13.684   7.663   6.530 -0.0946  0.1155 -0.3174
  731loPI   C1A10679  14.027   7.376   6.693 -0.0876 -0.1076  0.1391
  731loPI   C2A10680  14.086   7.354   7.086  0.1451 -0.3025 -0.2275
  731loPI   C3A10681  14.184   7.380   7.468  0.0830  0.0532 -0.0350
  731loPI   C4A10682  14.147   7.417   7.869 -0.1915  0.3343 -0.2038
  731loPI   C5A10683  13.991   7.431   8.311 -0.1492 -0.2285 -0.2460
  731loPI   C6A10684  13.882   7.801   8.567 -0.1933 -0.0627 -0.0447
  731loPI   C1B10685  13.672   7.689   6.967  0.0856  0.1557  0.1238
  731loPI   C2B10686  13.795   7.686   7.386 -0.3079  0.2404  0.1537
  731loPI   C3B10687  13.809   7.780   7.857 -0.1125 -0.0786  0.3082
  731loPI   C4B10688  13.563   7.721   8.226  0.1894  0.0926  0.1700
  732loPI    C110689  15.212  17.125   5.769 -0.0389 -0.2258  0.0645
  732loPI    C210690  15.278  17.264   5.399  0.2244 -0.0394  0.1774
  732loPI    C310691  14.911  17.283   5.559  0.0960 -0.1776 -0.0946
  732loPI   PO410692  15.352  17.260   6.014  0.2869  0.0421  0.0211
  732loPI   GL110693  15.393  17.377   6.474 -0.3101  0.0956  0.3459
  732loPI   GL210694  15.203  17.214   6.681 -0.2560  0.2689  0.1508
  732loPI   C1A10695  15.398  17.603   6.891 -0.0771  0.0481  0.4087
  732loPI   C2A10696  15.488  17.644   7.316  0.1040 -0.0121 -0.1612
  732loPI   C3A10697  15.538  17.657   7.711  0.0619  0.0187  0.0898
  732loPI   C4A10698  15.523  17.533   8.166  0.1977 -0.2658 -0.2328
  732loPI   C5A10699  15.655  17.656   8.586 -0.2821  0.2536  0.2270
  732loPI   C6A10700  15.704  17.461   8.976 -0.2210  0.3217 -0.2396
  732loPI   C1B10701  15.311  17.080   7.107 -0.0281  0.0217  0.2654
  732loPI   C2B10702  15.355  17.127   7.574 -0.3706 -0.1328 -0.0284
  732loPI   C3B10703  15.352  17.117   8.021  0.2617 -0.1222 -0.1372
  732loPI   C4B10704  15.418  17.119   8.453 -0.1951  0.1274 -0.3166
  733loPI    C110705  15.406  15.763   5.819  0.1663 -0.1546  0.2087
  733loPI    C210706  15.540  15.522   5.529 -0.0586 -0.1963  0.1376
  733loPI    C310707  15.251  15.787   5.452  0.0664 -0.0221  0.2589
  733loPI   PO410708  15.527  15.658   6.012 -0.0582 -0.1393  0.1166
  733loPI   GL110709  15.563  15.586   6.417  0.0403  0.3025 -0.1578
  733loPI   GL210710  15.286  15.712   6.533  0.0296 -0.3888  0.1906
  733loPI   C1A10711  15.688  15.455   6.859  0.1005  0.1314  0.3346
  733loPI   C2A10712  15.695  15.437   7.214 -0.3951  0.0697  0.0924
  733loPI   C3A10713  15.830  15.397   7.628  0.1643 -0.0668  0.1995
  733loPI   C4A10714  15.785  15.376   8.038 -0.2644  0.0413 -0.3157
  733loPI   C5A10715  15.912  15.305   8.469 -0.0885 -0.1028  0.0742
  733loPI   C6A10716  15.851  15.191   8.907 -0.0401  0.1062 -0.0348
  733loPI   C1B10717  15.342  15.742   6.951  0.0011 -0.0280 -0.1597
  733loPI   C2B10718  15.398  15.814   7.388 -0.2499  0.2150 -0.1185
  733loPI   C3B10719  15.457  15.741   7.882  0.1432  0.4969 -0.1119
  733loPI   C4B10720  15.523  15.689   8.308 -0.0194  0.2218  0.3732
  734loPI    C110721   9.146  13.507   5.733 -0.0487  0.2387  0.1956
  734loPI    C210722   8.808  13.353   5.585  0.1561 -0.1376  0.1074
  734loPI    C310723   9.009  13.631   5.378  0.1136 -0.2083 -0.0301
  734loPI   PO410724   9.102  13.418   6.057 -0.0542  0.0512 -0.2620
  734loPI   GL110725   8.971  13.572   6.414  0.0825 -0.2431 -0.0197
  734loPI   GL210726   9.025  13.874   6.599 -0.4688 -0.0394  0.1390
  734loPI   C1A10727   8.845  13.392   6.736  0.1007 -0.0446 -0.2044
  734loPI   C2A10728   8.879  13.351   7.059  0.2498  0.1057  0.2519
  734loPI   C3A10729   8.815  13.351   7.505 -0.1946  0.0531 -0.0823
  734loPI   C4A10730   8.764  13.436   7.897 -0.3602  0.2463 -0.1188
  734loPI   C5A10731   8.761  13.547   8.234  0.3434 -0.0341  0.2114
  734loPI   C6A10732   8.610  13.382   8.565  0.0008  0.1071 -0.2511
  734loPI   C1B10733   8.887  13.881   6.958  0.0061 -0.0175 -0.0225
  734loPI   C2B10734   8.927  13.921   7.453 -0.1803 -0.0999  0.1477
  734loPI   C3B10735   8.905  13.928   7.886  0.2110  0.0558 -0.0597
  734loPI   C4B10736   8.904  14.090   8.331 -0.1401  0.0613  0.0156
  735loPI    C110737  13.418  10.936   5.861 -0.0429  0.0498  0.0542
  735loPI    C210738  13.602  11.288   5.816  0.0824 -0.0389 -0.1428
  735loPI    C310739  13.778  10.953   5.686  0.0679 -0.2049  0.2509
  735loPI   PO410740  13.315  11.026   6.127 -0.0842  0.2392  0.1803
  735loPI   GL110741  13.142  10.961   6.534 -0.1017 -0.2593 -0.0974
  735loPI   GL210742  13.455  10.788   6.512  0.0455  0.1408  0.0973
  735loPI   C1A10743  13.179  10.871   6.957 -0.0246  0.0714  0.1659
  735loPI   C2A10744  13.169  10.863   7.341 -0.2406  0.1513  0.1392
  735loPI   C3A10745  13.156  10.842   7.796  0.1282 -0.0898  0.0816
  735loPI   C4A10746  13.144  10.940   8.213 -0.0900  0.2718  0.4836
  735loPI   C5A10747  13.093  10.644   8.530  0.0916 -0.0203 -0.1656
  735loPI   C6A10748  13.224  10.716   8.931 -0.0244  0.1716 -0.0714
  735loPI   C1B10749  13.633  10.933   6.807 -0.0692  0.1713 -0.0044
  735loPI   C2B10750  13.639  11.054   7.184  0.3536 -0.1253 -0.1029
  735loPI   C3B10751  13.714  11.031   7.634 -0.0576 -0.0729 -0.1022
  735loPI   C4B10752  13.628  11.002   8.089 -0.1916 -0.2459 -0.0049
  736loPI    C110753  14.296   3.490   5.899 -0.0099  0.0792 -0.0958
  736loPI    C210754  14.520   3.515   5.569 -0.0062 -0.2395 -0.1212
  736loPI    C310755  14.122   3.544   5.543  0.0150  0.1189 -0.1021
  736loPI   PO410756  14.376   3.636   6.125  0.1066  0.1548 -0.1840
  736loPI   GL110757  14.428   3.783   6.540  0.0027 -0.1477  0.0610
  736loPI   GL210758  14.323   3.461   6.617 -0.3137  0.1430 -0.2356
  736loPI   C1A10759  14.459   3.891   6.942  0.1222 -0.1952 -0.5431
  736loPI   C2A10760  14.547   3.753   7.389 -0.4062 -0.2511 -0.0919
  736loPI   C3A10761  14.617   3.829   7.843  0.0224 -0.1190 -0.0151
  736loPI   C4A10762  14.592   3.896   8.258  0.1578 -0.3155 -0.1883
  736loPI   C5A10763  14.781   3.718   8.610 -0.0136 -0.0981 -0.1327
  736loPI   C6A10764  14.921   3.304   8.782  0.0921 -0.0446 -0.1628
  736loPI   C1B10765  14.380   3.398   7.002  0.3358 -0.3127 -0.1340
  736loPI   C2B10766  14.382   3.332   7.379  0.0762  0.1299  0.1196
  736loPI   C3B10767  14.393   3.334   7.886 -0.0099  0.1442  0.0074
  736loPI   C4B10768  14.525   3.345   8.307  0.0674  0.1496 -0.0989
  737loPI    C110769   8.873  17.244   5.583  0.1081 -0.0419 -0.0720
  737loPI    C210770   8.586  16.974   5.515  0.0156 -0.0010  0.1464
  737loPI    C310771   8.814  17.104   5.213 -0.2323  0.0087 -0.0403
  737loPI   PO410772   8.833  17.339   5.778  0.1929  0.0347 -0.2651
  737loPI   GL110773   8.868  17.230   6.209  0.2294 -0.1698 -0.0849
  737loPI   GL210774   8.625  16.900   6.375  0.1161  0.2044 -0.2154
  737loPI   C1A10775   8.812  17.347   6.590 -0.0005  0.0985 -0.0872
  737loPI   C2A10776   8.864  17.394   7.002 -0.0707  0.0859 -0.2477
  737loPI   C3A10777   8.804  17.309   7.471 -0.1558  0.0955 -0.0714
  737loPI   C4A10778   8.846  17.219   7.885 -0.0233  0.3502 -0.3883
  737loPI   C5A10779   8.863  17.225   8.266 -0.0205 -0.1195 -0.0360
  737loPI   C6A10780   8.743  17.049   8.642  0.0283 -0.0370 -0.1329
  737loPI   C1B10781   8.751  16.652   6.791  0.3317  0.1391 -0.0725
  737loPI   C2B10782   8.696  16.627   7.195  0.0657  0.0060  0.1842
  737loPI   C3B10783   8.666  16.739   7.667 -0.1663  0.0620 -0.0444
  737loPI   C4B10784   8.589  16.808   8.127  0.1823  0.2580  0.0525
  738loPI    C110785  15.980  10.158   6.328 -0.1476 -0.2910 -0.1309
  738loPI    C210786  15.627  10.227   6.152 -0.1626 -0.0264 -0.0018
  738loPI    C310787  15.921  10.498   6.124 -0.0327 -0.1608  0.0498
  738loPI   PO410788  15.902  10.184   6.558  0.0046  0.1888 -0.0042
  738loPI   GL110789  15.743  10.465   6.803  0.1398  0.0085 -0.3215
  738loPI   GL210790  15.387  10.595   6.760 -0.1627  0.1183 -0.2706
  738loPI   C1A10791  15.813  10.379   7.211  0.0801  0.1531 -0.0206
  738loPI   C2A10792  15.790  10.287   7.628  0.2533  0.1448  0.2007
  738loPI   C3A10793  15.747  10.248   8.022  0.1251 -0.0827  0.2124
  738loPI   C4A10794  15.549  10.250   8.436  0.1623  0.0040 -0.0238
  738loPI   C5A10795  15.137  10.422   8.728  0.2104 -0.1366 -0.1003
  738loPI   C6A10796  14.801  10.627   8.880 -0.1799  0.1191 -0.0537
  738loPI   C1B10797  15.356  10.753   7.170  0.2292  0.1540 -0.0588
  738loPI   C2B10798  15.301  10.698   7.526  0.3756  0.1715  0.1329
  738loPI   C3B10799  15.439  10.574   7.857  0.1117  0.0726 -0.1758
  738loPI   C4B10800  15.328  10.672   8.233 -0.1838 -0.1658  0.1112
  739loPI    C110801   2.182   7.573   6.133  0.1537 -0.0315  0.1928
  739loPI    C210802   2.125   7.855   5.855 -0.0900 -0.2317  0.0354
  739loPI    C310803   1.971   7.489   5.804  0.0559 -0.3376  0.3297
  739loPI   PO410804   2.091   7.685   6.389 -0.4885 -0.0063  0.0672
  739loPI   GL110805   2.297   7.638   6.761 -0.1289 -0.1979  0.0489
  739loPI   GL210806   2.504   7.502   6.632 -0.0660  0.0481  0.0027
  739loPI   C1A10807   2.421   7.499   7.183  0.1088  0.0722  0.1338
  739loPI   C2A10808   2.524   7.395   7.613 -0.1080 -0.0220  0.0024
  739loPI   C3A10809   2.566   7.419   8.051 -0.2003  0.0089  0.1472
  739loPI   C4A10810   2.755   7.427   8.458 -0.0969 -0.1147  0.0020
  739loPI   C5A10811   2.975   7.201   8.649 -0.1555 -0.0209  0.1372
  739loPI   C6A10812   3.206   6.781   8.566  0.3309  0.0342  0.0766
  739loPI   C1B10813   2.793   7.741   6.881  0.4094  0.1358  0.1625
  739loPI   C2B10814   2.913   7.665   7.272  0.0890  0.0898 -0.1664
  739loPI   C3B10815   2.988   7.659   7.661  0.0405  0.0010  0.2600
  739loPI   C4B10816   3.009   7.639   8.027  0.0454 -0.0417 -0.2838
  740loPI    C110817   4.441  13.107   5.836 -0.0440  0.1135  0.1514
  740loPI    C210818   4.095  13.256   5.703 -0.0995 -0.0525  0.1073
  740loPI    C310819   4.422  13.486   5.710 -0.2349  0.1393  0.2545
  740loPI   PO410820   4.407  13.027   6.058 -0.1497  0.0698 -0.0957
  740loPI   GL110821   4.345  13.094   6.497 -0.1060 -0.0987 -0.0954
  740loPI   GL210822   4.420  12.809   6.724 -0.0739  0.0215 -0.1277
  740loPI   C1A10823   4.478  13.233   6.941 -0.1159 -0.2767 -0.0643
  740loPI   C2A10824   4.478  13.187   7.371 -0.1175  0.1259  0.1586
  740loPI   C3A10825   4.506  13.260   7.705  0.2766 -0.2273 -0.0854
  740loPI   C4A10826   4.491  13.278   8.071 -0.0534  0.0723  0.0840
  740loPI   C5A10827   4.450  13.341   8.502 -0.1780 -0.1254 -0.0250
  740loPI   C6A10828   4.802  13.201   8.777 -0.0777  0.0912  0.1558
  740loPI   C1B10829   4.406  12.623   7.136  0.1512 -0.0337  0.0384
  740loPI   C2B10830   4.383  12.571   7.579  0.0037  0.1853 -0.0758
  740loPI   C3B10831   4.383  12.720   7.933 -0.1314  0.1790  0.0790
  740loPI   C4B10832   4.376  12.886   8.422 -0.0868  0.3498  0.4145
  741loPI    C110833  11.021   4.559   6.214  0.0248  0.0642  0.1149
  741loPI    C210834  11.290   4.450   5.940 -0.0501  0.0982  0.0274
  741loPI    C310835  11.167   4.830   5.959 -0.0660  0.0900  0.0900
  741loPI   PO410836  11.223   4.498   6.481  0.2393  0.0969  0.1279
  741loPI   GL110837  11.170   4.677   6.888 -0.3423  0.2535  0.0342
  741loPI   GL210838  10.965   4.447   6.956 -0.2348  0.0764  0.1288
  741loPI   C1A10839  11.080   4.784   7.366  0.0346  0.1571  0.1600
  741loPI   C2A10840  11.077   4.844   7.764  0.0173 -0.0419  0.0619
  741loPI   C3A10841  10.875   4.698   8.086 -0.1567  0.2106  0.0380
  741loPI   C4A10842  10.578   4.378   8.383  0.3537 -0.1416 -0.0256
  741loPI   C5A10843  10.285   4.037   8.598 -0.1228 -0.0750 -0.0458
  741loPI   C6A10844  10.436   3.671   8.886 -0.0560  0.0247 -0.0260
  741loPI   C1B10845  10.890   4.304   7.356 -0.0116 -0.0029 -0.1633
  741loPI   C2B10846  10.766   4.110   7.801 -0.1089  0.1028 -0.2101
  741loPI   C3B10847  10.706   3.828   8.161  0.2112 -0.0923  0.1612
  741loPI   C4B10848  10.717   3.482   8.435 -0.0685  0.1413  0.0099
  742loPI    C110849   6.338   1.279   5.830  0.0947  0.2334  0.1002
  742loPI    C210850   6.485   1.451   5.500 -0.1261 -0.2308 -0.2517
  742loPI    C310851   6.111   1.531   5.617  0.1103  0.3152  0.1794
  742loPI   PO410852   6.549   1.256   5.985  0.0104 -0.2532 -0.1627
  742loPI   GL110853   6.508   1.282   6.399  0.1092 -0.0136  0.0924
  742loPI   GL210854   6.330   1.521   6.478  0.2468  0.1806  0.0808
  742loPI   C1A10855   6.727   1.206   6.741 -0.0750  0.2162 -0.0957
  742loPI   C2A10856   6.808   1.198   7.174  0.1181 -0.1653  0.1270
  742loPI   C3A10857   6.831   1.236   7.535 -0.0182 -0.0127  0.3618
  742loPI   C4A10858   6.824   1.161   8.043 -0.1258  0.1504  0.2129
  742loPI   C5A10859   6.881   1.087   8.490  0.1694 -0.0062  0.3089
  742loPI   C6A10860   6.678   1.112   8.889 -0.2433 -0.2053 -0.1103
  742loPI   C1B10861   6.397   1.504   6.951  0.0585  0.1381 -0.0142
  742loPI   C2B10862   6.438   1.607   7.409  0.0345  0.3579  0.3170
  742loPI   C3B10863   6.435   1.473   7.778 -0.0298 -0.0375  0.2302
  742loPI   C4B10864   6.379   1.653   8.117 -0.0262  0.1231 -0.1879
  743loPI    C110865   7.537   9.997   5.620 -0.0900 -0.2551  0.1293
  743loPI    C210866   7.612   9.779   5.293 -0.1597 -0.0425 -0.0305
  743loPI    C310867   7.372  10.098   5.270 -0.0634  0.0488  0.2017
  743loPI   PO410868   7.552   9.847   5.838 -0.0332  0.1393  0.0492
  743loPI   GL110869   7.492   9.922   6.265  0.4126 -0.1780 -0.3172
  743loPI   GL210870   7.513   9.639   6.336 -0.1742  0.0647 -0.3227
  743loPI   C1A10871   7.405  10.147   6.643 -0.0367  0.2167  0.1525
  743loPI   C2A10872   7.428  10.223   7.104 -0.5046 -0.1568  0.0672
  743loPI   C3A10873   7.363  10.262   7.525 -0.2949  0.1446 -0.1561
  743loPI   C4A10874   7.277  10.333   7.985 -0.1042  0.0777  0.1319
  743loPI   C5A10875   7.430  10.407   8.361 -0.2423 -0.1951  0.1772
  743loPI   C6A10876   7.594  10.687   8.639 -0.3063 -0.0823  0.0918
  743loPI   C1B10877   7.374   9.709   6.767  0.0188  0.0907  0.1538
  743loPI   C2B10878   7.237   9.732   7.324 -0.1878 -0.2535  0.0327
  743loPI   C3B10879   7.274   9.796   7.793  0.0665  0.0345  0.2475
  743loPI   C4B10880   7.315   9.918   8.227 -0.0834 -0.2143 -0.0270
  744loPI    C110881   4.266   1.580   5.845  0.2241  0.2197  0.2860
  744loPI    C210882   4.566   1.356   5.702 -0.0514 -0.0901  0.1808
  744loPI    C310883   4.567   1.752   5.646  0.2401 -0.1122  0.0133
  744loPI   PO410884   4.172   1.470   6.120 -0.1056  0.0622  0.1739
  744loPI   GL110885   4.068   1.422   6.528  0.2190 -0.1400 -0.0685
  744loPI   GL210886   4.117   1.654   6.587  0.0402 -0.1462  0.1806
  744loPI   C1A10887   3.951   1.265   6.903  0.2982  0.2045 -0.1794
  744loPI   C2A10888   3.998   1.335   7.333  0.0631 -0.1913 -0.0225
  744loPI   C3A10889   4.124   1.387   7.718 -0.0129 -0.1014  0.0905
  744loPI   C4A10890   4.246   1.368   8.139  0.2330 -0.2634  0.1554
  744loPI   C5A10891   4.468   1.550   8.389  0.1353 -0.2100 -0.1326
  744loPI   C6A10892   4.434   1.971   8.636  0.0471  0.1583  0.2611
  744loPI   C1B10893   4.067   1.777   6.943 -0.3476 -0.5684  0.0337
  744loPI   C2B10894   4.201   1.974   7.287  0.4027 -0.0732 -0.0130
  744loPI   C3B10895   4.312   1.877   7.735  0.0932 -0.1300  0.1059
  744loPI   C4B10896   4.319   1.931   8.146 -0.1793  0.2853  0.0570
  745loPI    C110897   8.566   4.485   6.142  0.1089 -0.2208  0.0376
  745loPI    C210898   8.231   4.699   6.189  0.2486 -0.0011  0.0447
  745loPI    C310899   8.270   4.455   5.874  0.0445 -0.1000  0.0945
  745loPI   PO410900   8.543   4.325   6.388 -0.1673 -0.0554 -0.1194
  745loPI   GL110901   8.404   4.144   6.771  0.2218 -0.2740 -0.2503
  745loPI   GL210902   8.149   3.961   6.828 -0.4692  0.1783 -0.1025
  745loPI   C1A10903   8.591   4.141   7.105 -0.0466 -0.0934  0.1258
  745loPI   C2A10904   8.492   4.039   7.534  0.1166 -0.1529  0.1831
  745loPI   C3A10905   8.535   3.978   7.911  0.3194 -0.2099  0.1289
  745loPI   C4A10906   8.480   3.925   8.291 -0.0375  0.3976  0.1794
  745loPI   C5A10907   8.408   3.920   8.666  0.0798  0.2663 -0.0332
  745loPI   C6A10908   8.238   4.121   8.996  0.1184  0.0065 -0.2344
  745loPI   C1B10909   8.045   3.997   7.302  0.1148 -0.0935  0.1297
  745loPI   C2B10910   8.072   3.882   7.742  0.2217 -0.0918  0.4145
  745loPI   C3B10911   8.040   3.834   8.101 -0.1832  0.0668 -0.0697
  745loPI   C4B10912   7.941   3.739   8.453 -0.0575  0.1525  0.1189
  746loPI    C110913  15.810   9.778   6.002 -0.1175 -0.1312 -0.0019
  746loPI    C210914  15.782   9.563   5.666  0.0347  0.0102 -0.1059
  746loPI    C310915  15.573   9.902   5.704  0.0885  0.0423 -0.0954
  746loPI   PO410916  15.806   9.555   6.144 -0.1257 -0.2339 -0.1515
  746loPI   GL110917  15.895   9.435   6.580  0.2773 -0.0310 -0.1572
  746loPI   GL210918  15.738   9.713   6.638  0.0358 -0.1860  0.0764
  746loPI   C1A10919  15.577   9.199   6.860 -0.1685 -0.1220 -0.2687
  746loPI   C2A10920  15.542   9.057   7.249 -0.4065  0.0639 -0.6282
  746loPI   C3A10921  15.515   9.163   7.778 -0.0024 -0.0220  0.0084
  746loPI   C4A10922  15.473   9.218   8.217 -0.0324 -0.0744  0.0522
  746loPI   C5A10923  15.803   9.314   8.505 -0.0280 -0.1027 -0.0635
  746loPI   C6A10924  16.276   9.257   8.680  0.0114 -0.1042  0.4254
  746loPI   C1B10925  15.798   9.592   7.045  0.1309 -0.0269 -0.0462
  746loPI   C2B10926  15.626   9.502   7.416  0.0386 -0.0547 -0.0236
  746loPI   C3B10927  15.562   9.687   7.862  0.0316  0.2783 -0.1127
  746loPI   C4B10928  15.736   9.780   8.254 -0.0513  0.2814  0.1542
  747loPI    C110929   0.264  13.398   6.311  0.1264  0.1288  0.2071
  747loPI    C210930  -0.103  13.492   6.182  0.1541  0.1581  0.1501
  747loPI    C310931   0.218  13.674   6.026  0.2039  0.0117  0.0798
  747loPI   PO410932   0.248  13.402   6.595  0.1443  0.0586  0.3725
  747loPI   GL110933   0.555  13.516   6.872 -0.1885 -0.0253 -0.1582
  747loPI   GL210934   0.310  13.731   7.034  0.1647  0.1065  0.2503
  747loPI   C1A10935   0.623  13.283   7.165 -0.3093 -0.2129  0.0976
  747loPI   C2A10936   0.573  13.130   7.487 -0.1427 -0.1762 -0.0340
  747loPI   C3A10937   0.721  13.077   7.899  0.6570 -0.1433  0.1827
  747loPI   C4A10938   0.709  13.140   8.296  0.0495 -0.2165 -0.0189
  747loPI   C5A10939   0.858  12.940   8.780 -0.1313  0.1456 -0.0427
  747loPI   C6A10940   0.808  12.545   9.047  0.2382 -0.2278  0.3134
  747loPI   C1B10941   0.288  13.621   7.321 -0.0578  0.0998  0.1934
  747loPI   C2B10942   0.355  13.493   7.754 -0.0372 -0.0266 -0.2556
  747loPI   C3B10943   0.387  13.550   8.242  0.1879  0.1412 -0.0913
  747loPI   C4B10944   0.415  13.322   8.701  0.3400 -0.0786  0.2047
  748loPI    C110945   3.101   4.847   5.771  0.1509 -0.2455 -0.1033
  748loPI    C210946   2.970   5.167   5.570  0.0979 -0.0579  0.2228
  748loPI    C310947   3.310   4.986   5.460 -0.0006 -0.0426 -0.1157
  748loPI   PO410948   2.882   4.832   6.009  0.2800  0.1883  0.0012
  748loPI   GL110949   2.894   4.917   6.451 -0.2135  0.2675  0.0680
  748loPI   GL210950   3.285   4.941   6.431  0.2173  0.1652 -0.3113
  748loPI   C1A10951   2.747   4.803   6.772  0.0151 -0.0318  0.0964
  748loPI   C2A10952   2.645   4.841   7.189 -0.3617 -0.1640 -0.2049
  748loPI   C3A10953   2.805   4.837   7.482  0.0229 -0.2510 -0.0003
  748loPI   C4A10954   2.653   4.641   7.797  0.1842  0.1279 -0.2060
  748loPI   C5A10955   2.659   4.660   8.192  0.1155  0.2771 -0.0019
  748loPI   C6A10956   2.819   4.424   8.607 -0.0398 -0.1590 -0.0184
  748loPI   C1B10957   3.240   4.927   6.831 -0.2164  0.2270 -0.0555
  748loPI   C2B10958   3.230   4.879   7.198  0.0034 -0.1884  0.1445
  748loPI   C3B10959   3.304   4.888   7.622  0.2491 -0.2707 -0.3578
  748loPI   C4B10960   3.088   4.899   7.928  0.0068  0.0449 -0.0202
  749loPI    C110961  12.207   8.112   5.909 -0.1013  0.1077  0.0275
  749loPI    C210962  12.542   8.309   6.004 -0.1005  0.1324 -0.0261
  749loPI    C310963  12.464   8.220   5.622 -0.0603 -0.0449  0.0059
  749loPI   PO410964  12.087   8.052   6.162 -0.0107  0.2621  0.1240
  749loPI   GL110965  12.216   7.825   6.484  0.0267 -0.0918  0.1357
  749loPI   GL210966  12.324   8.134   6.582  0.0963 -0.0945  0.1984
  749loPI   C1A10967  12.037   7.914   6.898 -0.0569  0.1632  0.3035
  749loPI   C2A10968  12.021   8.083   7.272 -0.0003  0.2483  0.3266
  749loPI   C3A10969  12.064   8.111   7.750 -0.0628 -0.1745  0.0193
  749loPI   C4A10970  11.975   8.240   8.149  0.1343 -0.1547  0.2080
  749loPI   C5A10971  11.813   8.170   8.597 -0.0965 -0.1084  0.1132
  749loPI   C6A10972  11.975   8.156   8.994 -0.0754 -0.0045 -0.0542
  749loPI   C1B10973  12.457   8.266   6.979  0.0095  0.3750  0.0250
  749loPI   C2B10974  12.512   8.247   7.315 -0.0813  0.0861  0.2765
  749loPI   C3B10975  12.580   8.295   7.704 -0.1447 -0.0409 -0.1673
  749loPI   C4B10976  12.605   8.285   8.204  0.0898 -0.0427  0.0315
  750loPI    C110977   1.635  11.360   6.125 -0.1263  0.2482  0.0788
  750loPI    C210978   1.776  11.659   5.899  0.0972  0.0582 -0.0371
  750loPI    C310979   1.700  11.302   5.734  0.1751 -0.0554  0.1689
  750loPI   PO410980   1.430  11.436   6.230  0.0427  0.0477  0.0786
  750loPI   GL110981   1.475  11.619   6.633  0.0654 -0.0113  0.1247
  750loPI   GL210982   1.745  11.430   6.684 -0.0822 -0.2756  0.0381
  750loPI   C1A10983   1.220  11.426   6.967  0.0412 -0.0011  0.1010
  750loPI   C2A10984   1.191  11.368   7.393 -0.0514  0.0434 -0.0057
  750loPI   C3A10985   1.225  11.471   7.793  0.2302  0.0292 -0.0493
  750loPI   C4A10986   1.129  11.351   8.282  0.0102 -0.2216 -0.0542
  750loPI   C5A10987   1.055  11.391   8.648  0.0368 -0.2443  0.0241
  750loPI   C6A10988   0.747  11.511   9.081  0.2467  0.0772  0.5108
  750loPI   C1B10989   1.747  11.461   7.148 -0.2691  0.2910 -0.2631
  750loPI   C2B10990   1.757  11.519   7.633  0.1949  0.0940 -0.1365
  750loPI   C3B10991   1.729  11.405   8.029  0.0823  0.0709 -0.2857
  750loPI   C4B10992   1.634  11.559   8.502 -0.5584 -0.0937  0.3063
  751loPI    C110993  11.029  16.745   6.035  0.0601 -0.1887 -0.0259
  751loPI    C210994  11.109  16.946   5.699 -0.2415 -0.0694 -0.0297
  751loPI    C310995  10.853  16.640   5.692 -0.0370 -0.2452  0.0408
  751loPI   PO410996  10.922  16.845   6.214 -0.1012 -0.1097 -0.3478
  751loPI   GL110997  10.655  16.854   6.555 -0.2870 -0.0704  0.0652
  751loPI   GL210998  10.525  17.134   6.509 -0.3725  0.0979 -0.1315
  751loPI   C1A10999  10.497  16.833   7.019 -0.1589 -0.2069  0.0781
  751loPI   C2A11000  10.481  16.800   7.476  0.0916 -0.1292  0.4577
  751loPI   C3A11001  10.502  16.715   7.932  0.1032 -0.0416 -0.2137
  751loPI   C4A11002  10.528  16.651   8.422 -0.1396  0.0125 -0.0803
  751loPI   C5A11003  10.519  16.789   8.811  0.0914 -0.0593 -0.2164
  751loPI   C6A11004  10.721  17.098   9.150 -0.2156 -0.1680 -0.0672
  751loPI   C1B11005  10.563  17.301   6.905 -0.3120  0.1717  0.0996
  751loPI   C2B11006  10.527  17.277   7.300 -0.0521  0.1538 -0.3217
  751loPI   C3B11007  10.563  17.338   7.704 -0.0282 -0.1881  0.0619
  751loPI   C4B11008  10.647  17.192   8.135  0.1072 -0.4428  0.1026
  752loPI    C111009   4.702   6.722   5.678 -0.1077 -0.0901  0.1520
  752loPI    C211010   4.372   6.728   5.451 -0.1345  0.1480  0.1950
  752loPI    C311011   4.611   7.049   5.466  0.1187 -0.0347  0.1376
  752loPI   PO411012   4.614   6.695   5.904  0.0793 -0.1114 -0.0010
  752loPI   GL111013   4.461   6.568   6.340 -0.3107 -0.1513  0.3314
  752loPI   GL211014   4.700   6.330   6.448  0.0417 -0.2809 -0.2694
  752loPI   C1A11015   4.518   6.734   6.710 -0.4657  0.1632 -0.0245
  752loPI   C2A11016   4.580   6.668   7.136 -0.4349  0.4327 -0.3362
  752loPI   C3A11017   4.624   6.647   7.519 -0.0081  0.1294  0.2467
  752loPI   C4A11018   4.550   6.667   7.896  0.0148 -0.1183 -0.1054
  752loPI   C5A11019   4.469   6.728   8.325  0.0227  0.0148 -0.1661
  752loPI   C6A11020   4.446   7.025   8.729  0.0997  0.2157 -0.0108
  752loPI   C1B11021   4.608   6.235   6.870  0.2744  0.2292  0.1892
  752loPI   C2B11022   4.470   6.121   7.291  0.0424  0.0264 -0.0935
  752loPI   C3B11023   4.512   6.140   7.659  0.3790 -0.3963  0.1378
  752loPI   C4B11024   4.339   6.213   8.077 -0.1222  0.3686  0.0898
  753loPI    C111025  12.478   9.501   5.828 -0.0980  0.0380  0.1893
  753loPI    C211026  12.140   9.696   5.739  0.0096  0.1935  0.1171
  753loPI    C311027  12.319   9.470   5.462 -0.0668  0.0625  0.1737
  753loPI   PO411028  12.513   9.353   6.149 -0.2632  0.1647 -0.2609
  753loPI   GL111029  12.255   9.224   6.523 -0.1077  0.0526  0.1471
  753loPI   GL211030  12.045   9.107   6.539  0.2961  0.4121 -0.0868
  753loPI   C1A11031  12.245   9.170   7.031 -0.2232  0.3695  0.0217
  753loPI   C2A11032  12.323   9.161   7.515  0.0732  0.0692  0.2123
  753loPI   C3A11033  12.329   9.216   7.928 -0.0072  0.1405  0.2361
  753loPI   C4A11034  12.267   9.375   8.273  0.1827  0.0263  0.0923
  753loPI   C5A11035  12.549   9.480   8.553 -0.2926  0.2058 -0.2079
  753loPI   C6A11036  12.986   9.678   8.643  0.0081 -0.0600 -0.1592
  753loPI   C1B11037  11.748   8.975   6.867  0.0207 -0.1169 -0.1947
  753loPI   C2B11038  11.768   8.911   7.240 -0.0063 -0.1571  0.1334
  753loPI   C3B11039  11.759   9.069   7.646  0.1018 -0.1077 -0.1844
  753loPI   C4B11040  11.756   9.097   8.038 -0.2303  0.2847 -0.0485
  754loPI    C111041  12.059  13.320   6.113  0.0966 -0.2863 -0.1306
  754loPI    C211042  11.718  13.307   5.903 -0.1345  0.2040  0.1970
  754loPI    C311043  12.051  13.451   5.735 -0.1772  0.0650 -0.0093
  754loPI   PO411044  11.945  13.378   6.445 -0.3428 -0.3711 -0.2491
  754loPI   GL111045  12.179  13.381   6.822  0.0470  0.2535 -0.1697
  754loPI   GL211046  12.409  13.544   6.855  0.1447 -0.0493  0.2395
  754loPI   C1A11047  12.026  13.452   7.152 -0.0038  0.1843 -0.1763
  754loPI   C2A11048  12.055  13.459   7.564  0.0531 -0.0684  0.0907
  754loPI   C3A11049  12.027  13.356   7.949  0.0661  0.0672 -0.0345
  754loPI   C4A11050  11.999  13.212   8.412  0.0679 -0.1138 -0.0887
  754loPI   C5A11051  12.054  12.899   8.656 -0.3161  0.0336 -0.3460
  754loPI   C6A11052  11.975  12.414   8.661 -0.1948  0.2939 -0.1880
  754loPI   C1B11053  12.522  13.653   7.250 -0.1040 -0.0761 -0.3953
  754loPI   C2B11054  12.521  13.556   7.688 -0.0735  0.2427  0.1754
  754loPI   C3B11055  12.519  13.495   8.161  0.3391  0.1805  0.0867
  754loPI   C4B11056  12.480  13.610   8.581 -0.3279  0.0495 -0.0197
  755loPI    C111057   5.375  13.607   6.066 -0.0463  0.1950 -0.0238
  755loPI    C211058   5.425  13.328   5.783  0.3220  0.0034  0.2211
  755loPI    C311059   5.271  13.685   5.687 -0.1926 -0.2885 -0.0902
  755loPI   PO411060   5.353  13.447   6.331  0.1893 -0.2079 -0.0447
  755loPI   GL111061   5.401  13.523   6.829  0.1393 -0.3610 -0.2914
  755loPI   GL211062   5.769  13.538   6.645 -0.1842  0.2934 -0.0728
  755loPI   C1A11063   5.522  13.479   7.184 -0.1247  0.0381 -0.0652
  755loPI   C2A11064   5.472  13.457   7.522 -0.0494 -0.0153 -0.1479
  755loPI   C3A11065   5.525  13.473   7.943  0.1998 -0.2568  0.2078
  755loPI   C4A11066   5.469  13.562   8.309  0.0263  0.0098  0.1734
  755loPI   C5A11067   5.634  13.558   8.656  0.0043  0.1014 -0.1042
  755loPI   C6A11068   5.392  13.777   9.049  0.0597  0.0454  0.1513
  755loPI   C1B11069   5.969  13.593   7.106  0.0488  0.0036 -0.2647
  755loPI   C2B11070   5.952  13.605   7.533  0.4134  0.0549  0.2975
  755loPI   C3B11071   6.048  13.596   7.974  0.1888 -0.0334  0.2256
  755loPI   C4B11072   6.091  13.522   8.407  0.0431  0.1239 -0.0635
  756loPI    C111073  10.113  14.964   6.077  0.3119  0.0496  0.0279
  756loPI    C211074   9.813  14.882   5.825  0.2535 -0.1232  0.1524
  756loPI    C311075  10.175  14.973   5.682  0.1234  0.1654 -0.0000
  756loPI   PO411076  10.007  15.142   6.224  0.3554 -0.1060 -0.1357
  756loPI   GL111077  10.041  15.399   6.612  0.1139 -0.0508 -0.0444
  756loPI   GL211078  10.311  15.282   6.737 -0.5405 -0.0208  0.1448
  756loPI   C1A11079   9.792  15.571   6.919 -0.0879 -0.5591  0.1783
  756loPI   C2A11080   9.770  15.624   7.286 -0.3299 -0.0291 -0.2675
  756loPI   C3A11081   9.865  15.603   7.682 -0.1372  0.0787 -0.0901
  756loPI   C4A11082   9.830  15.603   8.130 -0.0599 -0.2090 -0.1665
  756loPI   C5A11083   9.947  15.696   8.525  0.1108 -0.0619 -0.0234
  756loPI   C6A11084   9.949  15.885   8.887 -0.0243 -0.1919 -0.0179
  756loPI   C1B11085  10.253  15.287   7.122  0.0841  0.0073  0.1940
  756loPI   C2B11086  10.207  15.256   7.651 -0.2196  0.0538  0.0109
  756loPI   C3B11087  10.179  15.259   8.023 -0.0919  0.5073  0.5901
  756loPI   C4B11088   9.863  15.185   8.426  0.0943  0.2169  0.0168
  757loPI    C111089   8.791   0.592   5.790  0.0392 -0.2301  0.0273
  757loPI    C211090   8.603   0.659   5.444  0.0960 -0.1585  0.0101
  757loPI    C311091   8.918   0.413   5.456  0.0586 -0.2061  0.0218
  757loPI   PO411092   8.712   0.772   5.950 -0.3800  0.0295  0.0947
  757loPI   GL111093   8.739   0.717   6.414 -0.0528  0.1427  0.0561
  757loPI   GL211094   8.620   0.959   6.364  0.0838  0.0750 -0.0749
  757loPI   C1A11095   8.817   0.544   6.809  0.0701 -0.1604 -0.1156
  757loPI   C2A11096   8.850   0.426   7.293 -0.0366 -0.0217  0.0607
  757loPI   C3A11097   8.871   0.472   7.773 -0.0597 -0.1301  0.1892
  757loPI   C4A11098   8.904   0.369   8.167 -0.0192 -0.1147  0.0322
  757loPI   C5A11099   9.070   0.301   8.596 -0.1193  0.0305  0.3473
  757loPI   C6A11100   9.395   0.564   8.799 -0.0400 -0.1120  0.0880
  757loPI   C1B11101   8.488   0.941   6.790  0.0320  0.0423  0.0528
  757loPI   C2B11102   8.538   0.825   7.201 -0.1638  0.2149  0.1290
  757loPI   C3B11103   8.451   0.707   7.625 -0.0669 -0.0262  0.0846
  757loPI   C4B11104   8.518   0.728   8.129 -0.0097  0.2311  0.0195
  758loPI    C111105  16.503  10.854   6.370 -0.0344  0.0662  0.0308
  758loPI    C211106  16.840  10.787   6.165  0.1377  0.2254  0.2570
  758loPI    C311107  16.734  10.540   6.462  0.1493  0.2768  0.3040
  758loPI   PO411108  16.528  11.155   6.489  0.1522 -0.0027 -0.1372
  758loPI   GL111109  16.591  11.367   6.842  0.1908  0.1964  0.1454
  758loPI   GL211110  16.430  11.600   6.830 -0.0648 -0.0794 -0.2778
  758loPI   C1A11111  16.558  11.457   7.260  0.1617 -0.2381 -0.2687
  758loPI   C2A11112  16.555  11.452   7.648 -0.0797  0.2325  0.0501
  758loPI   C3A11113  16.609  11.359   8.101  0.3616  0.0721  0.2387
  758loPI   C4A11114  16.531  11.245   8.489 -0.2459 -0.0128  0.1471
  758loPI   C5A11115  16.266  11.425   8.777 -0.2246 -0.0761 -0.0502
  758loPI   C6A11116  16.088  11.621   9.173  0.1780 -0.0031  0.0085
  758loPI   C1B11117  16.266  11.885   7.139  0.2468  0.1229 -0.0166
  758loPI   C2B11118  16.128  11.831   7.390 -0.1302  0.0295 -0.1680
  758loPI   C3B11119  16.186  11.776   7.809  0.2138  0.1511 -0.2069
  758loPI   C4B11120  16.181  11.702   8.183 -0.0395  0.0447 -0.1351
  759loPI    C111121   6.696   6.020   5.790 -0.2151  0.3066 -0.1309
  759loPI    C211122   6.930   5.857   5.510 -0.2193  0.0407  0.0169
  759loPI    C311123   6.848   6.248   5.499  0.1638  0.1226 -0.0831
  759loPI   PO411124   6.822   5.890   6.006  0.0104 -0.2578  0.1379
  759loPI   GL111125   6.657   5.687   6.379  0.1309 -0.0179 -0.1871
  759loPI   GL211126   6.889   5.489   6.425  0.1709 -0.0209 -0.1494
  759loPI   C1A11127   6.723   5.883   6.773 -0.2762  0.2820 -0.0303
  759loPI   C2A11128   6.749   5.927   7.266 -0.2922  0.0060  0.2747
  759loPI   C3A11129   6.659   5.780   7.690  0.4753  0.1250  0.0002
  759loPI   C4A11130   6.604   5.759   8.117 -0.1497 -0.2284 -0.1441
  759loPI   C5A11131   6.516   5.897   8.571  0.0858 -0.0058  0.0188
  759loPI   C6A11132   6.759   6.101   8.905 -0.2173  0.0360  0.0689
  759loPI   C1B11133   6.939   5.466   6.879 -0.1329 -0.0300 -0.0888
  759loPI   C2B11134   6.946   5.412   7.342 -0.0166 -0.1073  0.0085
  759loPI   C3B11135   7.049   5.430   7.777 -0.1737  0.0565  0.2579
  759loPI   C4B11136   7.032   5.511   8.299 -0.0910 -0.1718 -0.2167
  760loPI    C111137  16.632  13.179   6.133 -0.0352 -0.0221  0.2091
  760loPI    C211138  16.719  12.821   5.977 -0.0737  0.0210  0.0874
  760loPI    C311139  16.966  13.130   5.920 -0.0646  0.0259  0.1514
  760loPI   PO411140  16.507  13.130   6.390 -0.0735 -0.0896 -0.1642
  760loPI   GL111141  16.475  13.309   6.878  0.0610 -0.2666  0.0013
  760loPI   GL211142  16.757  13.135   6.968 -0.0439 -0.2127  0.2735
  760loPI   C1A11143  16.268  13.612   7.134 -0.0127  0.0223  0.0578
  760loPI   C2A11144  16.233  13.614   7.627  0.2278  0.0330 -0.3075
  760loPI   C3A11145  16.230  13.573   7.984 -0.1432 -0.0458 -0.1186
  760loPI   C4A11146  16.423  13.606   8.390 -0.1110 -0.1153 -0.0462
  760loPI   C5A11147  16.563  13.681   8.764  0.2968 -0.3234  0.3994
  760loPI   C6A11148  16.728  13.678   9.128 -0.1207 -0.1962 -0.1532
  760loPI   C1B11149  16.536  13.295   7.358  0.2109  0.1240  0.1324
  760loPI   C2B11150  16.588  13.285   7.794  0.2497 -0.0480 -0.0582
  760loPI   C3B11151  16.762  13.261   8.221  0.1121 -0.0107  0.2192
  760loPI   C4B11152  16.877  13.339   8.606  0.4314 -0.0803  0.0302
  761loPI    C111153   5.529   1.050   5.941 -0.0214 -0.3385  0.2757
  761loPI    C211154   5.908   1.041   5.813 -0.1006 -0.0456  0.0072
  761loPI    C311155   5.608   1.027   5.549 -0.2718  0.2269  0.1827
  761loPI   PO411156   5.507   0.985   6.162  0.3491 -0.2713  0.2184
  761loPI   GL111157   5.665   0.892   6.546 -0.3174  0.2453  0.1455
  761loPI   GL211158   5.734   1.277   6.572 -0.0207 -0.1396 -0.0442
  761loPI   C1A11159   5.797   0.977   7.008  0.3581 -0.0440  0.0649
  761loPI   C2A11160   5.876   0.920   7.476  0.2676 -0.2889  0.3979
  761loPI   C3A11161   5.800   0.910   7.882 -0.0221  0.2105  0.2229
  761loPI   C4A11162   5.797   0.883   8.221 -0.0940  0.0258 -0.0142
  761loPI   C5A11163   5.596   0.832   8.699 -0.1801 -0.3080  0.1446
  761loPI   C6A11164   5.568   0.937   9.096 -0.1752 -0.2638 -0.0910
  761loPI   C1B11165   5.840   1.470   6.802 -0.0181  0.2804  0.2230
  761loPI   C2B11166   5.992   1.408   7.233  0.1330 -0.1232 -0.1443
  761loPI   C3B11167   6.007   1.372   7.687 -0.0368  0.0505  0.2993
  761loPI   C4B11168   5.942   1.444   8.168 -0.0911  0.1688  0.2895
  762loPI    C111169   9.550  13.196   5.916 -0.0349 -0.0921 -0.0960
  762loPI    C211170   9.765  13.001   5.640 -0.3245 -0.1478 -0.2856
  762loPI    C311171   9.611  13.361   5.557  0.1952  0.1663  0.0580
  762loPI   PO411172   9.527  12.953   6.094  0.0260  0.0364  0.1379
  762loPI   GL111173   9.687  12.924   6.412  0.1787  0.0491 -0.3267
  762loPI   GL211174   9.560  12.642   6.635 -0.1797  0.0129 -0.2158
  762loPI   C1A11175   9.693  13.128   6.759  0.3190 -0.1812  0.0623
  762loPI   C2A11176   9.610  13.191   7.192 -0.1197  0.1584 -0.1535
  762loPI   C3A11177   9.566  13.134   7.590  0.1283 -0.0317  0.1150
  762loPI   C4A11178   9.542  13.182   8.048  0.0663  0.1367 -0.0190
  762loPI   C5A11179   9.533  13.184   8.486  0.0583 -0.1025 -0.2434
  762loPI   C6A11180   9.392  13.287   8.882  0.0315  0.1274  0.1227
  762loPI   C1B11181   9.482  12.712   7.090  0.0571  0.0027 -0.2208
  762loPI   C2B11182   9.546  12.629   7.510 -0.1492 -0.1335 -0.0733
  762loPI   C3B11183   9.428  12.637   7.927 -0.0102 -0.1141 -0.1482
  762loPI   C4B11184   9.296  12.716   8.331  0.0139  0.2293 -0.3325
  763loPI    C111185   7.317   1.120   5.684  0.3100 -0.0327 -0.0882
  763loPI    C211186   6.970   1.318   5.661  0.2821 -0.1009 -0.2748
  763loPI    C311187   7.316   1.516   5.627  0.2787  0.0389  0.3738
  763loPI   PO411188   7.312   0.950   5.913  0.1209  0.0453 -0.0233
  763loPI   GL111189   7.339   0.928   6.290  0.0762 -0.1310 -0.1454
  763loPI   GL211190   7.583   1.163   6.305  0.1514  0.0328  0.1238
  763loPI   C1A11191   7.296   0.861   6.635 -0.0244  0.0093 -0.2222
  763loPI   C2A11192   7.202   0.862   7.058 -0.0243  0.1393 -0.1148
  763loPI   C3A11193   7.179   0.871   7.482 -0.2344  0.2743 -0.0353
  763loPI   C4A11194   7.177   0.824   7.853 -0.3962 -0.1873  0.0137
  763loPI   C5A11195   7.240   0.809   8.221  0.2432  0.1321  0.0595
  763loPI   C6A11196   7.191   0.714   8.568 -0.2649 -0.2400 -0.1419
  763loPI   C1B11197   7.718   1.039   6.757 -0.1733  0.1105 -0.3628
  763loPI   C2B11198   7.654   1.018   7.203 -0.2597  0.1772  0.3444
  763loPI   C3B11199   7.671   0.889   7.602 -0.1180  0.4940  0.1645
  763loPI   C4B11200   7.713   0.915   7.981  0.2415  0.1635  0.3814
  764loPI    C111201  11.981  12.884   5.920  0.1491 -0.2368  0.1003
  764loPI    C211202  11.684  12.877   5.653  0.1847  0.0299  0.0509
  764loPI    C311203  12.019  12.670   5.584  0.0485 -0.1986  0.0642
  764loPI   PO411204  11.747  12.893   6.184 -0.0550  0.0271 -0.0841
  764loPI   GL111205  11.449  12.751   6.524  0.1281 -0.0684  0.2925
  764loPI   GL211206  11.062  12.628   6.591 -0.3899 -0.1373 -0.1060
  764loPI   C1A11207  11.310  12.824   6.984  0.2548 -0.0985 -0.0124
  764loPI   C2A11208  11.270  12.710   7.387  0.0667  0.1759 -0.3912
  764loPI   C3A11209  11.330  12.718   7.865  0.1372 -0.0581 -0.0550
  764loPI   C4A11210  11.342  12.652   8.211 -0.0222  0.1628 -0.2119
  764loPI   C5A11211  11.550  12.792   8.583 -0.0951 -0.0239  0.1431
  764loPI   C6A11212  11.560  12.795   9.001 -0.0033 -0.1511  0.0737
  764loPI   C1B11213  10.870  12.585   7.055 -0.2706 -0.0911 -0.2061
  764loPI   C2B11214  10.749  12.596   7.502  0.3102 -0.0475 -0.1965
  764loPI   C3B11215  10.831  12.584   7.879 -0.1279  0.2118  0.2502
  764loPI   C4B11216  10.807  12.658   8.314 -0.0672 -0.1288 -0.1046
  765loPI    C111217   5.312  10.781   6.026 -0.4229  0.1987  0.1498
  765loPI    C211218   5.230  10.925   6.390  0.0582 -0.0081  0.3478
  765loPI    C311219   5.475  11.126   6.146 -0.0477 -0.0057  0.2427
  765loPI   PO411220   5.178  10.548   6.062 -0.3627 -0.1029 -0.0647
  765loPI   GL111221   5.222  10.303   6.350  0.1682  0.2116 -0.2207
  765loPI   GL211222   5.191  10.024   6.536 -0.2202  0.1281  0.0435
  765loPI   C1A11223   5.262  10.515   6.753 -0.2942 -0.2341 -0.1097
  765loPI   C2A11224   5.191  10.504   7.099 -0.2032 -0.2745 -0.1880
  765loPI   C3A11225   5.257  10.610   7.513  0.1970  0.1926 -0.2648
  765loPI   C4A11226   5.157  10.547   7.924  0.2137  0.1471  0.2765
  765loPI   C5A11227   5.253  10.659   8.325 -0.3270  0.3014 -0.1823
  765loPI   C6A11228   4.975  10.703   8.634  0.2589  0.1271  0.3422
  765loPI   C1B11229   5.134  10.024   6.983 -0.0704  0.1079 -0.1878
  765loPI   C2B11230   5.120  10.084   7.347 -0.1099 -0.2745 -0.2034
  765loPI   C3B11231   5.001  10.093   7.728 -0.4410  0.0428 -0.0907
  765loPI   C4B11232   5.065   9.984   8.119 -0.0029 -0.1671  0.0819
  766loPI    C111233  15.778  13.636   6.371 -0.2892  0.3358  0.1579
  766loPI    C211234  15.638  13.900   6.105 -0.0200  0.2387 -0.0852
  766loPI    C311235  15.792  13.553   5.980 -0.1900  0.0489  0.2204
  766loPI   PO411236  15.559  13.547   6.464  0.0059  0.0480 -0.4548
  766loPI   GL111237  15.437  13.657   6.884 -0.0395  0.0288 -0.1106
  766loPI   GL211238  15.284  13.839   7.036 -0.2400 -0.4602 -0.3315
  766loPI   C1A11239  15.731  13.590   7.212  0.0772  0.0624 -0.1246
  766loPI   C2A11240  15.756  13.469   7.600 -0.0700  0.0811 -0.0773
  766loPI   C3A11241  15.681  13.426   7.999 -0.0526 -0.0214  0.1350
  766loPI   C4A11242  15.892  13.521   8.347  0.0450  0.0444  0.0150
  766loPI   C5A11243  16.014  13.571   8.723  0.3171 -0.0525 -0.1073
  766loPI   C6A11244  15.880  13.909   8.955 -0.0250  0.1555 -0.0442
  766loPI   C1B11245  15.373  13.872   7.412  0.3148  0.0097 -0.1701
  766loPI   C2B11246  15.354  13.797   7.818 -0.2892 -0.1920  0.1458
  766loPI   C3B11247  15.440  13.846   8.287  0.1998  0.0255 -0.0381
  766loPI   C4B11248  15.422  13.905   8.690  0.1913  0.1615  0.1134
  767loPI    C111249  13.002   7.246   5.863  0.0739 -0.1179 -0.0791
  767loPI    C211250  13.369   7.088   5.838  0.0933 -0.0689 -0.1048
  767loPI    C311251  13.093   7.001   5.561  0.0977 -0.0747 -0.1072
  767loPI   PO411252  12.935   7.242   6.122 -0.5532  0.1370  0.0774
  767loPI   GL111253  13.081   7.173   6.472 -0.2987 -0.0576  0.0282
  767loPI   GL211254  12.984   6.987   6.584 -0.2256  0.0363 -0.1440
  767loPI   C1A11255  13.504   7.219   6.787 -0.3051  0.1041  0.1116
  767loPI   C2A11256  13.625   7.257   7.211  0.1629  0.2877  0.1865
  767loPI   C3A11257  13.678   7.234   7.596  0.2027 -0.4986 -0.0565
  767loPI   C4A11258  13.639   7.206   8.042 -0.0632  0.0844 -0.1594
  767loPI   C5A11259  13.282   7.068   8.298  0.0859  0.3079 -0.0291
  767loPI   C6A11260  13.292   7.003   8.808  0.3873  0.0794 -0.0532
  767loPI   C1B11261  13.103   7.053   6.991 -0.1148  0.2607  0.0272
  767loPI   C2B11262  13.226   7.143   7.398 -0.2370 -0.0495 -0.0128
  767loPI   C3B11263  13.164   6.942   7.766 -0.1794  0.1224 -0.0976
  767loPI   C4B11264  13.093   6.584   8.108  0.0220 -0.1919  0.1184
  768loPI    C111265   0.375  14.827   6.180 -0.2205 -0.0067  0.2317
  768loPI    C211266   0.038  14.705   6.003  0.0757 -0.1790 -0.2336
  768loPI    C311267   0.321  14.888   5.789  0.1029  0.3596  0.2385
  768loPI   PO411268   0.360  14.736   6.498  0.3322  0.1309  0.3805
  768loPI   GL111269   0.196  15.091   6.757  0.1982 -0.4043  0.2329
  768loPI   GL211270   0.556  15.071   6.926  0.2712  0.1476 -0.0979
  768loPI   C1A11271   0.161  14.908   7.210 -0.2363  0.0998 -0.0661
  768loPI   C2A11272   0.239  14.877   7.624  0.3978  0.2043  0.0712
  768loPI   C3A11273   0.272  14.928   8.024 -0.0146  0.3507 -0.0439
  768loPI   C4A11274   0.361  15.009   8.413 -0.0007 -0.0422  0.0805
  768loPI   C5A11275   0.057  14.983   8.833  0.2682  0.0204  0.0604
  768loPI   C6A11276  -0.080  15.079   9.147 -0.0397  0.3327 -0.1644
  768loPI   C1B11277   0.616  15.108   7.374  0.0687 -0.1216 -0.2710
  768loPI   C2B11278   0.653  15.096   7.784  0.0142 -0.1406  0.0954
  768loPI   C3B11279   0.746  15.139   8.178 -0.2617 -0.0726  0.1559
  768loPI   C4B11280   0.850  15.152   8.596 -0.0211 -0.0076 -0.2210
  769loPI    C111281  16.791   7.702   5.883  0.1440 -0.0020  0.1455
  769loPI    C211282  16.600   7.997   5.692 -0.0814 -0.0459  0.2987
  769loPI    C311283  16.984   7.921   5.610 -0.0907  0.1306  0.0833
  769loPI   PO411284  16.582   7.702   6.081  0.1667  0.0249  0.1719
  769loPI   GL111285  16.311   7.805   6.490  0.1340 -0.2086  0.1240
  769loPI   GL211286  16.582   7.636   6.580  0.0175 -0.0518  0.0599
  769loPI   C1A11287  16.202   7.927   6.973  0.1575 -0.0144 -0.4466
  769loPI   C2A11288  16.255   7.931   7.458 -0.2105  0.3401  0.1410
  769loPI   C3A11289  16.210   7.965   7.942 -0.1162 -0.3583  0.1054
  769loPI   C4A11290  16.272   7.866   8.331 -0.0248 -0.2480  0.1756
  769loPI   C5A11291  16.567   7.794   8.737  0.1113  0.0945  0.0592
  769loPI   C6A11292  17.058   7.782   8.565  0.0543  0.1603  0.1281
  769loPI   C1B11293  16.569   7.526   7.045  0.1365  0.2638 -0.2418
  769loPI   C2B11294  16.551   7.538   7.444 -0.1208  0.2314 -0.4040
  769loPI   C3B11295  16.544   7.566   7.907 -0.0280 -0.1044  0.0442
  769loPI   C4B11296  16.605   7.525   8.333 -0.0981  0.0106  0.0334
  770loPI    C111297  17.158  15.754   5.971  0.1622  0.1616  0.1199
  770loPI    C211298  17.344  15.844   5.628  0.0544  0.1187  0.0495
  770loPI    C311299  16.982  15.675   5.620  0.1408 -0.0772  0.1826
  770loPI   PO411300  17.158  16.026   6.117  0.1044 -0.2353  0.5722
  770loPI   GL111301  17.099  16.206   6.543 -0.0692 -0.0952  0.1421
  770loPI   GL211302  16.790  16.189   6.700  0.0364  0.0200  0.0974
  770loPI   C1A11303  17.449  16.373   6.853  0.2116  0.1620  0.0519
  770loPI   C2A11304  17.510  16.326   7.234 -0.0645  0.1086  0.0549
  770loPI   C3A11305  17.510  16.239   7.638 -0.0421 -0.0585 -0.0700
  770loPI   C4A11306  17.591  16.302   8.055 -0.2383 -0.3652 -0.1372
  770loPI   C5A11307  17.581  16.201   8.454 -0.0537 -0.2964 -0.0058
  770loPI   C6A11308  17.698  15.861   8.769  0.1806  0.1515  0.0279
  770loPI   C1B11309  17.007  16.238   7.103 -0.0229 -0.2227 -0.1246
  770loPI   C2B11310  17.022  16.312   7.486 -0.0116  0.3379  0.1747
  770loPI   C3B11311  17.087  16.228   7.932 -0.0575 -0.1484 -0.1596
  770loPI   C4B11312  17.007  16.104   8.279 -0.0948 -0.0344  0.0526
  771loPI    C111313   9.583  15.513   6.077 -0.0058  0.0464 -0.2449
  771loPI    C211314   9.402  15.160   6.126  0.0740  0.0479  0.0904
  771loPI    C311315   9.426  15.324   5.762 -0.1733 -0.1775 -0.0313
  771loPI   PO411316   9.526  15.660   6.262  0.2001  0.1365  0.3848
  771loPI   GL111317   9.294  15.876   6.576  0.2950  0.0089 -0.1789
  771loPI   GL211318   8.934  15.890   6.634  0.3400 -0.0416  0.2018
  771loPI   C1A11319   9.357  15.916   7.057 -0.2619  0.0765 -0.0686
  771loPI   C2A11320   9.394  15.983   7.415  0.1449  0.0497 -0.0030
  771loPI   C3A11321   9.481  15.985   7.809  0.2989 -0.2139  0.0995
  771loPI   C4A11322   9.470  16.051   8.227 -0.0360 -0.0144 -0.1174
  771loPI   C5A11323   9.471  15.855   8.566  0.1076 -0.1820 -0.2737
  771loPI   C6A11324   9.573  15.466   8.869  0.0025 -0.1194  0.2495
  771loPI   C1B11325   8.854  15.735   7.100 -0.0218  0.0025 -0.1562
  771loPI   C2B11326   8.870  15.794   7.515 -0.2102 -0.4532  0.1678
  771loPI   C3B11327   8.920  15.874   7.978 -0.0274  0.2045 -0.2667
  771loPI   C4B11328   8.789  15.984   8.465 -0.1551  0.0352  0.3105
  772loPI    C111329   1.843   2.815   6.235  0.0326  0.2575 -0.1819
  772loPI    C211330   1.785   2.873   5.843  0.1616  0.2672 -0.2000
  772loPI    C311331   2.157   2.835   5.987  0.1080  0.1154 -0.0993
  772loPI   PO411332   1.787   2.638   6.297  0.3687 -0.0009 -0.3618
  772loPI   GL111333   2.058   2.681   6.694 -0.0353  0.1837 -0.1231
  772loPI   GL211334   2.353   2.829   6.509  0.1398 -0.0421  0.1800
  772loPI   C1A11335   2.113   2.763   7.203 -0.0793 -0.0263  0.1035
  772loPI   C2A11336   2.047   2.584   7.580 -0.2078  0.1440 -0.2744
  772loPI   C3A11337   2.129   2.685   7.996 -0.1766 -0.1321 -0.1577
  772loPI   C4A11338   2.189   2.810   8.469  0.1619 -0.0397 -0.1856
  772loPI   C5A11339   2.570   2.538   8.696 -0.0106  0.1765 -0.3034
  772loPI   C6A11340   2.920   2.328   8.713  0.0217 -0.0712  0.4975
  772loPI   C1B11341   2.498   2.875   6.879 -0.0788  0.1831 -0.0444
  772loPI   C2B11342   2.606   2.849   7.296 -0.0584 -0.0895  0.2793
  772loPI   C3B11343   2.691   2.824   7.715 -0.2635  0.0536  0.0137
  772loPI   C4B11344   2.706   2.811   8.212 -0.1219  0.2931  0.1225
  773loPI    C111345   5.318   9.733   5.826  0.0542 -0.0604 -0.0584
  773loPI    C211346   5.330  10.119   5.722 -0.0862 -0.0347  0.0186
  773loPI    C311347   5.019   9.892   5.613  0.0020 -0.1292 -0.0370
  773loPI   PO411348   5.432   9.820   6.105 -0.1611  0.1577  0.2621
  773loPI   GL111349   5.607   9.553   6.518 -0.0784  0.1974 -0.0750
  773loPI   GL211350   5.641   9.922   6.564  0.0954 -0.0244  0.2146
  773loPI   C1A11351   5.495   9.653   6.957 -0.4429 -0.3190 -0.1249
  773loPI   C2A11352   5.495   9.691   7.409 -0.0153  0.1206 -0.0386
  773loPI   C3A11353   5.385   9.710   7.884  0.1139  0.2563 -0.2507
  773loPI   C4A11354   5.415   9.659   8.271 -0.0814  0.0631 -0.1045
  773loPI   C5A11355   5.393   9.706   8.691 -0.2245  0.0845  0.0911
  773loPI   C6A11356   5.625   9.313   8.837  0.2451  0.0529  0.0717
  773loPI   C1B11357   5.613  10.139   6.806  0.0094 -0.0538  0.0268
  773loPI   C2B11358   5.617  10.166   7.230  0.1365 -0.5752  0.4359
  773loPI   C3B11359   5.527  10.173   7.717 -0.0110 -0.1455 -0.1424
  773loPI   C4B11360   5.518  10.253   8.150  0.1689  0.0298  0.0594
  774loPI    C111361  16.395   5.512   5.666  0.2937  0.0673  0.0396
  774loPI    C211362  16.461   5.138   5.538  0.1859  0.0681 -0.0196
  774loPI    C311363  16.104   5.310   5.480  0.1279  0.0626  0.2977
  774loPI   PO411364  16.531   5.528   5.893 -0.2049  0.1976  0.3548
  774loPI   GL111365  16.459   5.351   6.305 -0.1960 -0.1739  0.0745
  774loPI   GL211366  16.382   5.024   6.471 -0.1508 -0.0047 -0.0284
  774loPI   C1A11367  16.467   5.692   6.676 -0.2459  0.1739  0.0397
  774loPI   C2A11368  16.463   5.784   7.120 -0.0117 -0.1649  0.3243
  774loPI   C3A11369  16.530   5.711   7.552  0.0471  0.0793  0.4835
  774loPI   C4A11370  16.611   5.791   7.977 -0.2897  0.2319  0.0342
  774loPI   C5A11371  16.730   5.762   8.367 -0.1073 -0.0158  0.2314
  774loPI   C6A11372  16.725   5.764   8.818  0.0400 -0.0798 -0.0477
  774loPI   C1B11373  16.259   5.180   6.925  0.1510 -0.0077 -0.0844
  774loPI   C2B11374  16.347   5.232   7.455  0.1313  0.1407  0.0542
  774loPI   C3B11375  16.359   5.298   7.785  0.1663 -0.1364 -0.2063
  774loPI   C4B11376  16.442   5.301   8.255 -0.0374 -0.2488  0.0980
  775loPI    C111377  11.111   8.801   6.071 -0.0027  0.1116  0.0814
  775loPI    C211378  11.419   8.546   6.091 -0.0327  0.0681 -0.0051
  775loPI    C311379  11.127   8.487   5.824 -0.0569  0.1744 -0.0026
  775loPI   PO411380  11.021   8.845   6.304 -0.1338 -0.1926 -0.1260
  775loPI   GL111381  10.993   8.547   6.650  0.0409  0.3259 -0.0245
  775loPI   GL211382  11.376   8.545   6.711 -0.0896 -0.0800  0.0778
  775loPI   C1A11383  10.807   8.737   7.068 -0.4412 -0.0848  0.0543
  775loPI   C2A11384  10.840   8.823   7.537 -0.0197 -0.0540  0.1901
  775loPI   C3A11385  10.751   8.791   7.928  0.2400  0.0333  0.3124
  775loPI   C4A11386  10.806   8.882   8.396  0.3235  0.0544  0.0530
  775loPI   C5A11387  10.684   9.304   8.711 -0.1002 -0.1114 -0.0235
  775loPI   C6A11388  10.990   9.510   8.940 -0.1310 -0.1853  0.0984
  775loPI   C1B11389  11.741   8.442   6.985  0.3037 -0.0123  0.1146
  775loPI   C2B11390  11.655   8.398   7.442  0.2487  0.1855  0.2838
  775loPI   C3B11391  11.699   8.556   7.809  0.2982 -0.3476 -0.0337
  775loPI   C4B11392  11.646   8.608   8.199  0.1846  0.2171 -0.1574
  776loPI    C111393  12.177   5.809   6.219  0.0315  0.1469 -0.1163
  776loPI    C211394  12.491   5.911   5.994  0.2244 -0.1109  0.0312
  776loPI    C311395  12.174   6.153   6.015  0.1770 -0.1071 -0.5602
  776loPI   PO411396  12.382   5.675   6.433 -0.1510 -0.1767 -0.0617
  776loPI   GL111397  12.653   5.706   6.737 -0.3323  0.2272 -0.0884
  776loPI   GL211398  12.591   6.016   6.743 -0.0893 -0.1215  0.2715
  776loPI   C1A11399  12.607   5.773   7.182  0.2845  0.0133  0.0194
  776loPI   C2A11400  12.610   5.781   7.620  0.0360 -0.0110  0.3118
  776loPI   C3A11401  12.819   5.579   7.928  0.1017 -0.2132 -0.1849
  776loPI   C4A11402  12.814   5.602   8.443  0.1268  0.0907  0.5655
  776loPI   C5A11403  12.802   5.516   8.844 -0.0532  0.0527 -0.1175
  776loPI   C6A11404  12.859   5.743   9.199 -0.2409  0.0580 -0.0065
  776loPI   C1B11405  12.589   6.236   7.011 -0.1249 -0.1957 -0.1431
  776loPI   C2B11406  12.775   6.199   7.379 -0.2867  0.1592 -0.2277
  776loPI   C3B11407  12.757   6.355   7.743  0.3385  0.1654 -0.2884
  776loPI   C4B11408  12.539   6.518   8.133 -0.3377  0.3397 -0.0081
  777loPI    C111409   9.125   3.757   6.369  0.1295 -0.1795  0.1356
  777loPI    C211410   8.910   3.431   6.284 -0.0117 -0.0317 -0.0861
  777loPI    C311411   9.183   3.563   6.024 -0.0590  0.1111 -0.0642
  777loPI   PO411412   9.235   3.718   6.557  0.0910 -0.2129  0.1158
  777loPI   GL111413   9.413   3.476   6.871 -0.1625 -0.0944 -0.0487
  777loPI   GL211414   9.551   3.130   6.902 -0.0127 -0.3103 -0.0594
  777loPI   C1A11415   9.151   3.333   7.253 -0.1468 -0.1774  0.0534
  777loPI   C2A11416   9.216   3.297   7.695  0.1828  0.1673 -0.5281
  777loPI   C3A11417   9.206   3.309   7.994  0.0778 -0.3827  0.3559
  777loPI   C4A11418   9.142   3.305   8.413  0.4593 -0.0519  0.0361
  777loPI   C5A11419   8.959   3.272   8.782 -0.0594 -0.0170  0.0707
  777loPI   C6A11420   8.550   3.299   8.929  0.0581 -0.2903 -0.0105
  777loPI   C1B11421   9.550   3.036   7.284  0.0683 -0.0845 -0.1105
  777loPI   C2B11422   9.559   2.975   7.785  0.1332  0.4102  0.0447
  777loPI   C3B11423   9.589   2.881   8.303  0.0243 -0.0181 -0.0127
  777loPI   C4B11424   9.462   2.963   8.706 -0.1936 -0.1561 -0.2014
  778loPI    C111425   4.834  14.794   6.009  0.0011  0.0117  0.2476
  778loPI    C211426   4.982  15.138   5.867  0.1673 -0.2188 -0.1527
  778loPI    C311427   4.891  14.840   5.616  0.2476 -0.5552  0.2081
  778loPI   PO411428   4.931  14.933   6.376 -0.0761  0.4143 -0.2512
  778loPI   GL111429   4.829  14.608   6.809  0.0433 -0.2698  0.1714
  778loPI   GL211430   4.985  14.317   6.790  0.1237 -0.1530  0.0915
  778loPI   C1A11431   4.826  14.762   7.158 -0.1664  0.0292 -0.0590
  778loPI   C2A11432   4.851  14.733   7.640 -0.1525  0.3290 -0.0828
  778loPI   C3A11433   4.869  14.766   8.111 -0.0671  0.0535  0.1395
  778loPI   C4A11434   4.961  14.943   8.471  0.2840  0.1642 -0.1343
  778loPI   C5A11435   4.883  15.114   8.811 -0.0283 -0.2707 -0.0050
  778loPI   C6A11436   4.838  15.559   9.093  0.1299 -0.0662 -0.3163
  778loPI   C1B11437   4.819  14.269   7.214  0.0725  0.0207  0.0751
  778loPI   C2B11438   4.668  14.147   7.562  0.1554 -0.0998  0.0250
  778loPI   C3B11439   4.694  14.229   8.040 -0.0826  0.0154 -0.0776
  778loPI   C4B11440   4.706  14.505   8.504  0.1140 -0.2527 -0.1040
  779loPI    C111441   1.076   9.846   6.150  0.1778 -0.0376 -0.0984
  779loPI    C211442   0.988   9.489   5.993 -0.2065 -0.0195  0.0652
  779loPI    C311443   0.943   9.820   5.774  0.1206 -0.0643 -0.0764
  779loPI   PO411444   0.993   9.706   6.452 -0.1509 -0.1122 -0.0273
  779loPI   GL111445   0.764   9.597   6.827  0.0148  0.0743  0.0885
  779loPI   GL211446   0.676   9.420   7.065  0.1255 -0.2055 -0.1316
  779loPI   C1A11447   0.710   9.849   7.221  0.1772 -0.2473 -0.0427
  779loPI   C2A11448   0.758   9.829   7.604 -0.1115  0.0610  0.2057
  779loPI   C3A11449   0.674   9.786   8.067  0.0467  0.0493  0.0411
  779loPI   C4A11450   0.625   9.889   8.417  0.0426 -0.0106  0.0707
  779loPI   C5A11451   0.791  10.192   8.745  0.3430 -0.1387  0.0380
  779loPI   C6A11452   1.163  10.381   8.759  0.0744  0.1656  0.1517
  779loPI   C1B11453   0.632   9.364   7.538  0.0244 -0.1136 -0.1402
  779loPI   C2B11454   0.567   9.281   7.986 -0.0726 -0.2910 -0.0534
  779loPI   C3B11455   0.589   9.314   8.349  0.0197 -0.0740 -0.3138
  779loPI   C4B11456   1.011   9.478   8.563 -0.0975  0.1472 -0.0141
  780loPI    C111457   3.175   5.999   6.153  0.1749  0.0246  0.1031
  780loPI    C211458   3.014   6.095   5.800  0.1071 -0.2371  0.0607
  780loPI    C311459   3.119   6.383   6.057  0.1238 -0.0461 -0.1570
  780loPI   PO411460   3.272   5.770   6.215  0.0554 -0.0659 -0.0482
  780loPI   GL111461   3.341   5.421   6.517  0.0388  0.0749  0.3190
  780loPI   GL211462   3.575   5.348   6.377  0.0522 -0.0085  0.2183
  780loPI   C1A11463   3.365   5.468   6.993  0.1829  0.3320 -0.1767
  780loPI   C2A11464   3.366   5.472   7.406  0.0023 -0.1524  0.1080
  780loPI   C3A11465   3.404   5.337   7.875  0.0486 -0.1639 -0.1890
  780loPI   C4A11466   3.242   5.269   8.290 -0.2525  0.2509  0.0327
  780loPI   C5A11467   3.130   5.167   8.672 -0.0429 -0.0192  0.0723
  780loPI   C6A11468   2.731   4.927   8.836  0.0224 -0.1857 -0.2606
  780loPI   C1B11469   3.732   4.999   6.726 -0.1303 -0.3214 -0.5415
  780loPI   C2B11470   3.704   5.041   7.146 -0.0177 -0.1300 -0.2026
  780loPI   C3B11471   3.802   5.023   7.503 -0.0773  0.3374  0.0187
  780loPI   C4B11472   3.747   5.021   7.943  0.0646  0.2279  0.2671
  781loPI    C111473  12.970  10.072   5.574 -0.0451 -0.1502 -0.0867
  781loPI    C211474  13.169  10.272   5.291 -0.0342  0.1557  0.1321
  781loPI    C311475  12.771  10.303   5.315 -0.0644 -0.0927 -0.0211
  781loPI   PO411476  13.122  10.111   5.930 -0.2119 -0.1734  0.0766
  781loPI   GL111477  13.166  10.041   6.397 -0.2086 -0.4805 -0.0207
  781loPI   GL211478  13.061  10.213   6.494 -0.0859 -0.4248  0.0128
  781loPI   C1A11479  13.358   9.941   6.791  0.2175 -0.0483  0.1846
  781loPI   C2A11480  13.405   9.852   7.153 -0.0648  0.0942  0.1413
  781loPI   C3A11481  13.372   9.963   7.576 -0.1509 -0.0907 -0.0245
  781loPI   C4A11482  13.370  10.084   7.955  0.0710  0.2146 -0.1045
  781loPI   C5A11483  13.550  10.495   8.174  0.0399  0.2487  0.1800
  781loPI   C6A11484  13.962  10.593   8.373  0.0650 -0.2059  0.1018
  781loPI   C1B11485  12.978  10.342   6.957 -0.2263  0.0765  0.1841
  781loPI   C2B11486  13.183  10.272   7.285  0.0407  0.0591 -0.2934
  781loPI   C3B11487  13.084  10.335   7.596  0.1595 -0.4375 -0.1596
  781loPI   C4B11488  13.055  10.449   8.042  0.1652 -0.0640  0.0700
  782loPI    C111489   7.217  10.269   5.888 -0.1122 -0.0662  0.0740
  782loPI    C211490   6.835  10.162   5.839 -0.0292 -0.3328 -0.0081
  782loPI    C311491   7.030  10.348   5.544 -0.1148 -0.1318  0.0602
  782loPI   PO411492   7.230  10.381   6.072  0.2463 -0.1807 -0.0874
  782loPI   GL111493   6.926  10.301   6.412  0.0776  0.1114 -0.2370
  782loPI   GL211494   6.949   9.986   6.394 -0.1231 -0.0588 -0.0755
  782loPI   C1A11495   7.092  10.509   6.746  0.1041 -0.0113 -0.1855
  782loPI   C2A11496   7.076  10.567   7.222  0.1913 -0.0554 -0.2856
  782loPI   C3A11497   7.039  10.618   7.646 -0.2635  0.2643 -0.1599
  782loPI   C4A11498   6.946  10.683   8.133 -0.0473  0.1015  0.0240
  782loPI   C5A11499   7.031  10.755   8.537  0.4368 -0.1028  0.0563
  782loPI   C6A11500   6.958  10.731   9.062 -0.0723 -0.0503 -0.1019
  782loPI   C1B11501   6.995   9.993   6.846  0.1086  0.3300 -0.3225
  782loPI   C2B11502   6.903  10.143   7.047  0.2523  0.1654  0.0558
  782loPI   C3B11503   6.892  10.091   7.453  0.0590 -0.1233  0.0924
  782loPI   C4B11504   6.873  10.109   7.910 -0.0741 -0.0636  0.1570
  783loPI    C111505   0.414   0.934   5.613  0.2673 -0.1328  0.3138
  783loPI    C211506   0.250   0.743   5.303 -0.1398  0.0309  0.4224
  783loPI    C311507   0.645   0.723   5.363 -0.0791 -0.1503  0.0008
  783loPI   PO411508   0.121   0.801   5.824  0.1756 -0.0086  0.0763
  783loPI   GL111509   0.098   0.923   6.254 -0.0844 -0.2485  0.1723
  783loPI   GL211510   0.192   1.248   6.448 -0.0637  0.2470 -0.1105
  783loPI   C1A11511   0.067   0.813   6.657 -0.1497 -0.1787 -0.1702
  783loPI   C2A11512   0.103   0.846   7.016  0.1805 -0.1286  0.0123
  783loPI   C3A11513   0.101   0.818   7.408 -0.0797  0.0403 -0.0561
  783loPI   C4A11514   0.100   0.717   7.809  0.1695  0.1987 -0.0159
  783loPI   C5A11515   0.169   0.804   8.233 -0.1303  0.0984 -0.0283
  783loPI   C6A11516  -0.078   0.907   8.609 -0.0306 -0.1711 -0.0436
  783loPI   C1B11517   0.313   1.375   6.786 -0.0562 -0.4068 -0.1266
  783loPI   C2B11518   0.229   1.330   7.309 -0.1384  0.1952  0.1355
  783loPI   C3B11519   0.306   1.165   7.752 -0.2007 -0.1874  0.1503
  783loPI   C4B11520   0.345   1.301   8.166 -0.0661 -0.2601  0.1728
  784loPI    C111521   6.868   9.273   5.997  0.1151 -0.0216  0.0438
  784loPI    C211522   6.922   8.948   5.770  0.2323 -0.0298  0.0824
  784loPI    C311523   6.994   9.311   5.619  0.0117 -0.0146  0.0098
  784loPI   PO411524   6.732   9.158   6.163  0.2204  0.1452 -0.0178
  784loPI   GL111525   6.821   8.967   6.472  0.3369 -0.1228  0.0407
  784loPI   GL211526   7.053   8.774   6.669 -0.0191  0.1334  0.2847
  784loPI   C1A11527   6.672   9.053   6.879  0.2252 -0.3256  0.0726
  784loPI   C2A11528   6.662   9.118   7.260 -0.0803 -0.0537 -0.0289
  784loPI   C3A11529   6.628   9.044   7.661 -0.2042 -0.4054 -0.2798
  784loPI   C4A11530   6.801   9.197   8.053  0.1780  0.1393  0.0217
  784loPI   C5A11531   6.825   9.202   8.384  0.3788 -0.2198 -0.0230
  784loPI   C6A11532   6.572   9.286   8.668 -0.1759  0.1559 -0.0101
  784loPI   C1B11533   6.968   8.735   7.096  0.2666  0.1669  0.1386
  784loPI   C2B11534   6.986   8.797   7.504 -0.1098  0.0484  0.0555
  784loPI   C3B11535   7.139   8.694   7.867  0.2955  0.3894  0.2781
  784loPI   C4B11536   7.156   8.885   8.244  0.0033  0.0980  0.3546
  785loPI    C111537   3.519   3.229   5.719  0.0907  0.0426 -0.2603
  785loPI    C211538   3.605   3.549   5.495 -0.1634  0.2314 -0.0940
  785loPI    C311539   3.226   3.428   5.533 -0.0942  0.0498  0.0323
  785loPI   PO411540   3.714   3.263   5.906  0.1665  0.1481  0.2204
  785loPI   GL111541   3.777   3.324   6.271 -0.2076  0.0260 -0.1215
  785loPI   GL211542   3.798   3.620   6.443 -0.2349  0.1714  0.2064
  785loPI   C1A11543   3.602   3.132   6.683  0.0323 -0.0131  0.3175
  785loPI   C2A11544   3.662   3.110   7.059  0.1721 -0.0127  0.0586
  785loPI   C3A11545   3.699   3.102   7.415 -0.1273  0.0410  0.2605
  785loPI   C4A11546   3.612   3.104   7.903  0.2283 -0.2439  0.2941
  785loPI   C5A11547   3.415   3.179   8.324  0.0729  0.0330 -0.1201
  785loPI   C6A11548   3.032   3.206   8.574 -0.0127 -0.1151 -0.0798
  785loPI   C1B11549   3.749   3.589   6.798 -0.0021 -0.2413 -0.0649
  785loPI   C2B11550   3.738   3.664   7.241  0.2084  0.2881  0.1158
  785loPI   C3B11551   3.688   3.598   7.682  0.1755  0.1887  0.0542
  785loPI   C4B11552   3.725   3.624   8.137 -0.0261  0.2035  0.0860
  786loPI    C111553  14.298   8.620   5.791  0.0769  0.3465 -0.2790
  786loPI    C211554  13.939   8.741   5.661 -0.0465  0.1584 -0.1175
  786loPI    C311555  14.134   8.451   5.467 -0.0675  0.1295 -0.0958
  786loPI   PO411556  14.344   8.768   6.054  0.5195 -0.0943 -0.1675
  786loPI   GL111557  14.555   8.735   6.380 -0.0133  0.1463 -0.0869
  786loPI   GL211558  14.301   8.996   6.501 -0.1414  0.1923 -0.0896
  786loPI   C1A11559  14.637   8.745   6.754  0.0602  0.0327  0.1604
  786loPI   C2A11560  14.639   8.839   7.168  0.0239  0.1670  0.0889
  786loPI   C3A11561  14.609   8.882   7.557  0.1525 -0.2687  0.0094
  786loPI   C4A11562  14.522   8.955   7.997 -0.0827 -0.4615  0.3785
  786loPI   C5A11563  14.331   8.911   8.426 -0.2679 -0.0741  0.0387
  786loPI   C6A11564  13.979   8.811   8.590  0.1050  0.0547 -0.1076
  786loPI   C1B11565  14.292   9.174   6.892 -0.2534 -0.0635  0.1220
  786loPI   C2B11566  14.163   9.260   7.326  0.0676 -0.2883  0.4453
  786loPI   C3B11567  14.113   9.185   7.733 -0.1573 -0.1888 -0.0531
  786loPI   C4B11568  14.193   9.335   8.202  0.0734 -0.0196  0.1654
  787loPI    C111569  17.198  10.468   6.188  0.0511  0.1209  0.0453
  787loPI    C211570  17.516  10.472   5.946  0.1059  0.1704  0.1177
  787loPI    C311571  17.148  10.512   5.793  0.1276  0.0222  0.0243
  787loPI   PO411572  17.310  10.523   6.418  0.0141 -0.1435 -0.1429
  787loPI   GL111573  17.191  10.531   6.811 -0.0604 -0.1183  0.0611
  787loPI   GL211574  16.938  10.542   6.899 -0.1574 -0.1157  0.1310
  787loPI   C1A11575  17.303  10.632   7.237  0.1565  0.0248 -0.0936
  787loPI   C2A11576  17.381  10.652   7.728 -0.1843  0.0639 -0.0211
  787loPI   C3A11577  17.334  10.613   8.147  0.0182  0.1504 -0.2655
  787loPI   C4A11578  17.166  10.468   8.497 -0.1195  0.0043  0.2541
  787loPI   C5A11579  16.936  10.251   8.813  0.1690 -0.1540  0.2524
  787loPI   C6A11580  16.851   9.835   8.908 -0.0064 -0.0492 -0.0295
  787loPI   C1B11581  16.718  10.522   7.274  0.1216 -0.0382 -0.0294
  787loPI   C2B11582  16.728  10.480   7.619 -0.0954  0.1027 -0.1018
  787loPI   C3B11583  16.822  10.506   8.094 -0.1219 -0.1756  0.1845
  787loPI   C4B11584  16.622  10.385   8.501  0.0050 -0.1523 -0.1672
  788loPI    C111585   7.468   7.680   6.249 -0.1543 -0.1197 -0.0060
  788loPI    C211586   7.098   7.831   6.266 -0.0631  0.1142 -0.0524
  788loPI    C311587   7.286   7.801   5.914  0.0518  0.2187 -0.0005
  788loPI   PO411588   7.595   7.810   6.416  0.2265 -0.0227 -0.1149
  788loPI   GL111589   7.727   7.831   6.811  0.1847 -0.4557 -0.1447
  788loPI   GL211590   7.762   7.533   6.923  0.0331  0.3546 -0.1743
  788loPI   C1A11591   7.774   7.903   7.302  0.0327 -0.0464 -0.1102
  788loPI   C2A11592   7.681   7.891   7.735  0.1728  0.0244 -0.0721
  788loPI   C3A11593   7.725   7.886   8.237 -0.0033 -0.1779  0.1077
  788loPI   C4A11594   7.732   7.697   8.618 -0.3980  0.3379  0.0421
  788loPI   C5A11595   7.728   7.187   8.748  0.0410  0.0015 -0.1601
  788loPI   C6A11596   7.585   6.736   8.745  0.3768 -0.1503  0.1132
  788loPI   C1B11597   7.753   7.381   7.331 -0.3172 -0.0694  0.0347
  788loPI   C2B11598   7.771   7.378   7.688  0.1170 -0.1645  0.2610
  788loPI   C3B11599   7.564   7.408   8.136  0.0407 -0.0123 -0.1035
  788loPI   C4B11600   7.271   7.544   8.442  0.3685  0.0749 -0.1500
  789loPI    C111601   9.018   4.851   6.183  0.1020  0.0766 -0.0827
  789loPI    C211602   9.189   4.550   5.981  0.0552  0.0379 -0.0648
  789loPI    C311603   9.311   4.926   5.921  0.2359 -0.0023  0.0428
  789loPI   PO411604   8.917   4.708   6.447  0.0595 -0.1648 -0.2475
  789loPI   GL111605   8.980   4.494   6.753  0.4090 -0.1598  0.2062
  789loPI   GL211606   8.977   4.044   6.799 -0.1276  0.1581 -0.0092
  789loPI   C1A11607   8.766   4.647   7.072  0.1772 -0.0934  0.0182
  789loPI   C2A11608   8.653   4.503   7.427 -0.1710  0.3861  0.2999
  789loPI   C3A11609   8.647   4.513   7.914 -0.1579 -0.0533 -0.0018
  789loPI   C4A11610   8.643   4.429   8.348 -0.0303 -0.0399  0.2634
  789loPI   C5A11611   8.584   4.419   8.738 -0.2727  0.0354  0.0789
  789loPI   C6A11612   8.399   4.602   9.083  0.3178  0.0707  0.0932
  789loPI   C1B11613   9.085   4.244   7.218 -0.0894  0.1325  0.1268
  789loPI   C2B11614   8.962   4.157   7.573  0.0917  0.0428 -0.0490
  789loPI   C3B11615   9.019   4.093   7.924 -0.2309 -0.0545  0.1124
  789loPI   C4B11616   9.003   4.102   8.336  0.0129  0.0369  0.2692
  790loPI    C111617   9.468   1.779   6.086 -0.2111  0.1440  0.0867
  790loPI    C211618   9.755   1.517   5.991 -0.1342  0.1034  0.4177
  790loPI    C311619   9.787   1.899   5.877 -0.0813  0.0418  0.2232
  790loPI   PO411620   9.192   1.653   6.105 -0.0594 -0.0698 -0.0962
  790loPI   GL111621   8.891   1.439   6.460 -0.2291 -0.0929 -0.1859
  790loPI   GL211622   8.708   1.391   6.650 -0.0386 -0.0005  0.1617
  790loPI   C1A11623   9.006   1.037   6.716  0.1130 -0.1987  0.2774
  790loPI   C2A11624   9.017   0.936   7.117  0.1562  0.1077  0.1680
  790loPI   C3A11625   8.950   0.930   7.572 -0.1986  0.1803  0.0231
  790loPI   C4A11626   9.038   0.930   8.005 -0.2094  0.3206 -0.0821
  790loPI   C5A11627   9.083   0.804   8.385  0.3034  0.1374  0.3117
  790loPI   C6A11628   9.059   1.112   8.714  0.1624 -0.0699  0.1427
  790loPI   C1B11629   8.635   1.357   7.038 -0.0150  0.0716 -0.1479
  790loPI   C2B11630   8.615   1.287   7.371  0.0327  0.1597 -0.1896
  790loPI   C3B11631   8.624   1.217   7.863  0.1100 -0.0459  0.0040
  790loPI   C4B11632   8.675   1.123   8.388  0.1023  0.2714  0.1360
  791loPI    C111633   6.711   5.425   5.841  0.1054  0.0100 -0.3222
  791loPI    C211634   6.630   5.188   5.528 -0.3266 -0.2338 -0.0369
  791loPI    C311635   6.469   5.554   5.550 -0.1242 -0.1328 -0.1975
  791loPI   PO411636   6.687   5.287   6.034 -0.1476 -0.3393  0.1501
  791loPI   GL111637   6.414   5.184   6.382  0.1514 -0.3151 -0.1797
  791loPI   GL211638   6.172   5.202   6.327  0.2983  0.2956 -0.1036
  791loPI   C1A11639   6.459   5.340   6.720 -0.1101 -0.0603  0.1344
  791loPI   C2A11640   6.518   5.443   7.140 -0.0341 -0.3513  0.1208
  791loPI   C3A11641   6.540   5.284   7.652  0.1247 -0.0009  0.0962
  791loPI   C4A11642   6.501   5.251   8.021 -0.5180  0.0213  0.1168
  791loPI   C5A11643   6.504   5.387   8.428 -0.0232 -0.2099 -0.0436
  791loPI   C6A11644   6.518   5.389   8.881  0.0258  0.1793 -0.0346
  791loPI   C1B11645   6.018   5.155   6.716 -0.1319 -0.1589 -0.0376
  791loPI   C2B11646   6.061   5.308   7.082  0.0432  0.0854 -0.0322
  791loPI   C3B11647   5.951   5.206   7.520 -0.1128 -0.1187  0.2141
  791loPI   C4B11648   6.045   5.167   7.851 -0.1123 -0.2054  0.2807
  792loPI    C111649  11.656  16.769   5.963 -0.3230  0.2129  0.0835
  792loPI    C211650  11.996  16.682   5.770 -0.2340  0.2832  0.2064
  792loPI    C311651  11.663  16.764   5.563 -0.2506 -0.0703  0.0862
  792loPI   PO411652  11.592  16.596   6.212  0.1076  0.0430  0.3514
  792loPI   GL111653  11.257  16.528   6.465 -0.2040  0.0749 -0.3475
  792loPI   GL211654  10.938  16.501   6.556  0.1456  0.0377 -0.0197
  792loPI   C1A11655  11.284  16.230   6.841 -0.0385  0.1942  0.0700
  792loPI   C2A11656  11.396  16.174   7.256 -0.1274  0.2859 -0.0653
  792loPI   C3A11657  11.374  16.023   7.711 -0.2385 -0.0249 -0.1652
  792loPI   C4A11658  11.261  15.925   8.121  0.1135 -0.0905  0.0528
  792loPI   C5A11659  11.258  15.919   8.572 -0.0371 -0.2516 -0.0061
  792loPI   C6A11660  11.447  15.687   8.911  0.1369  0.0559 -0.2914
  792loPI   C1B11661  10.880  16.502   7.000 -0.0212  0.2571  0.0369
  792loPI   C2B11662  10.892  16.504   7.454 -0.1431 -0.4588 -0.0581
  792loPI   C3B11663  10.994  16.335   7.902  0.2450 -0.1961  0.3466
  792loPI   C4B11664  10.884  16.252   8.342 -0.2053 -0.0328 -0.2497
  793loPI    C111665  15.492   3.668   5.820  0.2007  0.0768  0.0063
  793loPI    C211666  15.244   3.630   5.508  0.1305  0.1665  0.0507
  793loPI    C311667  15.567   3.395   5.537 -0.0330 -0.0589  0.0722
  793loPI   PO411668  15.238   3.757   6.028  0.1560  0.0193  0.4006
  793loPI   GL111669  15.223   4.037   6.402  0.2580 -0.1890 -0.0007
  793loPI   GL211670  15.517   4.065   6.523  0.0990 -0.1753 -0.0119
  793loPI   C1A11671  14.921   4.033   6.780  0.0348  0.2928  0.0346
  793loPI   C2A11672  14.995   3.931   7.151  0.0726  0.1446 -0.1681
  793loPI   C3A11673  15.053   3.894   7.529  0.4710 -0.0777  0.0203
  793loPI   C4A11674  15.131   3.988   7.952  0.3050 -0.0198  0.0403
  793loPI   C5A11675  15.137   3.981   8.328  0.0296 -0.0524 -0.3116
  793loPI   C6A11676  14.936   4.167   8.670  0.1090  0.2336  0.4227
  793loPI   C1B11677  15.483   4.109   6.992 -0.1580 -0.0881  0.1018
  793loPI   C2B11678  15.526   4.140   7.364 -0.1009 -0.0992 -0.1753
  793loPI   C3B11679  15.569   4.172   7.808  0.1057  0.1238  0.0031
  793loPI   C4B11680  15.649   4.133   8.249  0.1270  0.1160  0.1252
  794loPI    C111681   2.777   0.744   5.675  0.0531  0.0715 -0.1597
  794loPI    C211682   2.714   1.126   5.779 -0.0331  0.0395 -0.0926
  794loPI    C311683   2.833   1.036   5.407  0.2883  0.1561 -0.0208
  794loPI   PO411684   2.642   0.652   5.983 -0.1481  0.1934  0.5018
  794loPI   GL111685   2.606   0.707   6.386  0.0919  0.2946  0.0352
  794loPI   GL211686   2.666   0.498   6.508  0.0443 -0.2543  0.1516
  794loPI   C1A11687   2.503   0.866   6.752 -0.1252 -0.1522 -0.2230
  794loPI   C2A11688   2.545   0.868   7.200 -0.1438  0.0924  0.2901
  794loPI   C3A11689   2.565   0.930   7.633  0.0085  0.0804  0.4109
  794loPI   C4A11690   2.700   1.067   8.081 -0.0762  0.1226  0.1826
  794loPI   C5A11691   2.552   1.076   8.603 -0.2329  0.1639  0.4460
  794loPI   C6A11692   2.351   1.018   8.978 -0.0540 -0.0084 -0.1204
  794loPI   C1B11693   2.835   0.491   6.898  0.0570 -0.0041  0.1176
  794loPI   C2B11694   2.861   0.483   7.276 -0.1085 -0.0688 -0.0065
  794loPI   C3B11695   2.933   0.624   7.696  0.0862  0.0860 -0.0149
  794loPI   C4B11696   2.968   0.567   8.136  0.0175 -0.0689  0.0152
  795loPI    C111697  16.423   2.354   5.988 -0.3121 -0.0869  0.0262
  795loPI    C211698  16.499   2.642   5.721  0.1409  0.0928  0.3372
  795loPI    C311699  16.691   2.292   5.698 -0.1730 -0.0717  0.1507
  795loPI   PO411700  16.454   2.430   6.300 -0.0623  0.0197  0.0353
  795loPI   GL111701  16.368   2.370   6.739  0.0117 -0.0956 -0.1652
  795loPI   GL211702  16.373   2.086   6.731 -0.2913  0.1706 -0.0998
  795loPI   C1A11703  16.498   2.461   7.158  0.0169  0.0635 -0.0157
  795loPI   C2A11704  16.570   2.499   7.586  0.1735  0.0733  0.2039
  795loPI   C3A11705  16.503   2.566   7.939 -0.2262 -0.2019  0.1452
  795loPI   C4A11706  16.649   2.566   8.448 -0.2122 -0.1003 -0.1476
  795loPI   C5A11707  16.742   2.754   8.892  0.1851  0.1202  0.2338
  795loPI   C6A11708  17.137   2.788   9.042 -0.0267 -0.2046 -0.3383
  795loPI   C1B11709  16.336   1.928   7.100  0.1224  0.0786 -0.1566
  795loPI   C2B11710  16.452   2.020   7.475 -0.0825  0.1212  0.0513
  795loPI   C3B11711  16.413   2.009   7.915  0.1438 -0.1592  0.0553
  795loPI   C4B11712  16.403   2.128   8.343 -0.5809 -0.4264 -0.0289
  796loPI    C111713  11.972   3.994   6.487 -0.0520  0.1088  0.0057
  796loPI    C211714  12.317   4.178   6.403  0.2372 -0.2857  0.2920
  796loPI    C311715  12.254   3.804   6.276 -0.1458 -0.1700  0.1265
  796loPI   PO411716  11.888   4.076   6.653  0.0230 -0.0609 -0.1281
  796loPI   GL111717  11.981   4.247   7.010 -0.0385 -0.1051  0.2141
  796loPI   GL211718  11.810   3.915   7.095  0.0110 -0.2319  0.2764
  796loPI   C1A11719  12.055   4.320   7.492 -0.2349 -0.1620 -0.1363
  796loPI   C2A11720  12.142   4.245   7.889  0.1293  0.2908  0.0755
  796loPI   C3A11721  12.280   4.267   8.289  0.1762 -0.1186 -0.1724
  796loPI   C4A11722  12.633   4.049   8.604 -0.1750 -0.1644 -0.4114
  796loPI   C5A11723  13.055   4.075   8.794 -0.0916  0.0977 -0.1237
  796loPI   C6A11724  13.426   4.350   8.766  0.0124 -0.1597 -0.1886
  796loPI   C1B11725  11.671   4.012   7.424  0.1930 -0.0373  0.0907
  796loPI   C2B11726  11.678   3.996   7.847 -0.0975 -0.0936 -0.0699
  796loPI   C3B11727  11.648   3.882   8.156  0.1102  0.2206 -0.0310
  796loPI   C4B11728  11.925   4.002   8.513 -0.2738  0.3617 -0.0447
  797loPI    C111729  16.977   0.010   5.967 -0.0786  0.1093 -0.1979
  797loPI    C211730  16.697  -0.031   6.250  0.0298  0.1018 -0.0907
  797loPI    C311731  16.590   0.022   5.868 -0.1168  0.0079 -0.0633
  797loPI   PO411732  17.181  -0.144   6.116  0.0562  0.0205  0.1931
  797loPI   GL111733  17.266  -0.190   6.596 -0.0080 -0.3568  0.2214
  797loPI   GL211734  17.452  -0.437   6.776  0.0929  0.1143  0.2364
  797loPI   C1A11735  17.139  -0.153   7.034 -0.2047  0.1079  0.1500
  797loPI   C2A11736  17.248  -0.176   7.468 -0.0455  0.0810 -0.1212
  797loPI   C3A11737  17.313  -0.186   7.939  0.1316 -0.1188  0.2052
  797loPI   C4A11738  17.311  -0.231   8.396  0.1667  0.2023 -0.0374
  797loPI   C5A11739  17.566  -0.149   8.699  0.0246 -0.3035 -0.3043
  797loPI   C6A11740  17.741   0.307   8.891 -0.1750  0.2006  0.1346
  797loPI   C1B11741  17.608  -0.541   7.166 -0.2236  0.0389  0.0389
  797loPI   C2B11742  17.635  -0.583   7.561 -0.0360  0.1660  0.2111
  797loPI   C3B11743  17.719  -0.512   7.940 -0.1693 -0.2245 -0.0767
  797loPI   C4B11744  17.646  -0.552   8.347 -0.0118  0.2944 -0.2146
  798loPI    C111745   0.733  16.253   5.793 -0.1055 -0.2707  0.1688
  798loPI    C211746   0.910  16.139   5.453 -0.0004  0.0338  0.1178
  798loPI    C311747   0.522  16.237   5.454 -0.0225 -0.0531  0.1048
  798loPI   PO411748   0.721  16.060   6.115  0.0243  0.0396 -0.2884
  798loPI   GL111749   0.978  16.098   6.523 -0.0208 -0.3250  0.1287
  798loPI   GL211750   1.215  15.949   6.355 -0.0597  0.3051 -0.0464
  798loPI   C1A11751   0.935  16.069   7.015  0.0873  0.0925 -0.1867
  798loPI   C2A11752   1.048  16.083   7.461  0.1070 -0.1321  0.0529
  798loPI   C3A11753   1.044  16.010   7.823  0.3691  0.2250 -0.0535
  798loPI   C4A11754   1.061  16.071   8.223 -0.0432 -0.0189  0.2443
  798loPI   C5A11755   0.788  15.906   8.639  0.0478 -0.0258 -0.1430
  798loPI   C6A11756   0.825  15.575   9.002 -0.2053  0.0733 -0.0850
  798loPI   C1B11757   1.428  15.997   6.808 -0.0136  0.0780  0.0914
  798loPI   C2B11758   1.482  16.156   7.270 -0.3599 -0.0469 -0.0866
  798loPI   C3B11759   1.505  16.185   7.744 -0.1741  0.2765  0.1716
  798loPI   C4B11760   1.528  16.263   8.232 -0.1361 -0.1313  0.1213
  799loPI    C111761  12.486  12.971   5.957  0.0329  0.1712  0.0442
  799loPI    C211762  12.561  13.315   5.767  0.0759  0.0725 -0.1192
  799loPI    C311763  12.408  13.004   5.566 -0.0453  0.0237  0.0465
  799loPI   PO411764  12.666  12.867   6.194 -0.0989  0.2890 -0.0022
  799loPI   GL111765  12.616  12.760   6.687  0.0197 -0.2220 -0.3336
  799loPI   GL211766  12.399  12.957   6.843  0.1155 -0.1659  0.1016
  799loPI   C1A11767  12.795  12.697   7.135 -0.2909 -0.3078 -0.1296
  799loPI   C2A11768  12.694  12.641   7.618  0.2267 -0.0678  0.1554
  799loPI   C3A11769  12.755  12.624   8.041  0.1366  0.4033  0.1192
  799loPI   C4A11770  12.900  12.582   8.375 -0.0138 -0.0182 -0.2294
  799loPI   C5A11771  13.304  12.302   8.544 -0.2637 -0.0489 -0.1343
  799loPI   C6A11772  13.643  12.226   8.862  0.3269 -0.0970 -0.0532
  799loPI   C1B11773  12.389  12.957   7.347 -0.2091  0.1347 -0.1926
  799loPI   C2B11774  12.369  13.081   7.751 -0.0495  0.4559 -0.0227
  799loPI   C3B11775  12.347  12.982   8.161  0.0460 -0.1110 -0.2590
  799loPI   C4B11776  12.416  12.714   8.371  0.2070  0.1988  0.1482
  800loPI    C111777  14.931   5.790   5.945 -0.1560 -0.1622  0.2659
  800loPI    C211778  15.104   5.503   5.727 -0.1748 -0.0303  0.0746
  800loPI    C311779  14.808   5.721   5.571 -0.1021  0.1516  0.1875
  800loPI   PO411780  15.136   5.888   6.070  0.1200  0.1951  0.0642
  800loPI   GL111781  15.255   5.810   6.407 -0.3104 -0.2302  0.2262
  800loPI   GL211782  14.984   5.737   6.563 -0.0731 -0.1685 -0.1198
  800loPI   C1A11783  15.570   5.939   6.671 -0.2001 -0.1244  0.2458
  800loPI   C2A11784  15.530   6.055   7.051 -0.1963  0.0627 -0.0120
  800loPI   C3A11785  15.652   6.032   7.504  0.2712  0.0395  0.1843
  800loPI   C4A11786  15.687   6.000   7.956  0.0243  0.1779 -0.2084
  800loPI   C5A11787  15.791   6.007   8.442  0.2244  0.2774 -0.0609
  800loPI   C6A11788  15.598   6.077   8.791  0.0976  0.0041 -0.2394
  800loPI   C1B11789  15.034   5.945   6.862 -0.0981  0.0180  0.0137
  800loPI   C2B11790  15.004   6.039   7.358 -0.1466  0.3514 -0.4712
  800loPI   C3B11791  15.170   5.873   7.773 -0.1321  0.2249 -0.2261
  800loPI   C4B11792  15.308   5.805   8.293 -0.3066  0.3511  0.1437
  801loPI    C111793   4.103  15.556   6.130 -0.0010  0.2835 -0.1505
  801loPI    C211794   4.007  15.370   5.789  0.2475 -0.0426 -0.0480
  801loPI    C311795   4.317  15.622   5.799  0.0799  0.1701 -0.1214
  801loPI   PO411796   4.136  15.354   6.297  0.0182 -0.2746  0.0807
  801loPI   GL111797   4.194  15.309   6.720 -0.1204  0.0566 -0.1254
  801loPI   GL211798   4.513  15.401   6.648  0.4816 -0.1223  0.1658
  801loPI   C1A11799   4.181  15.424   7.162  0.1662 -0.2554  0.1775
  801loPI   C2A11800   4.224  15.418   7.594 -0.6284  0.0969  0.1148
  801loPI   C3A11801   4.164  15.488   8.095  0.0695 -0.1147 -0.0094
  801loPI   C4A11802   4.145  15.587   8.507  0.3753 -0.2087  0.0563
  801loPI   C5A11803   3.807  15.740   8.748 -0.0093 -0.0385  0.0967
  801loPI   C6A11804   3.789  15.756   9.179 -0.1083 -0.1154 -0.0368
  801loPI   C1B11805   4.618  15.509   7.002 -0.1357  0.0296  0.0924
  801loPI   C2B11806   4.712  15.575   7.490  0.2407 -0.1730 -0.1012
  801loPI   C3B11807   4.718  15.650   7.935  0.0166 -0.2252  0.0105
  801loPI   C4B11808   4.612  15.845   8.330  0.0370 -0.2669 -0.2234
  802loPI    C111809   3.684  10.211   5.514  0.2878 -0.1800 -0.2641
  802loPI    C211810   3.416  10.221   5.217  0.1413 -0.0983 -0.1306
  802loPI    C311811   3.771  10.400   5.172 -0.0312  0.2561 -0.1129
  802loPI   PO411812   3.537  10.237   5.729  0.3096  0.2814 -0.0638
  802loPI   GL111813   3.639  10.029   6.213  0.4019 -0.1430 -0.0404
  802loPI   GL211814   3.731   9.792   6.309  0.1948  0.0830 -0.2672
  802loPI   C1A11815   3.711  10.154   6.708  0.0660 -0.0278  0.3756
  802loPI   C2A11816   3.818  10.226   7.163  0.3759 -0.0173  0.2462
  802loPI   C3A11817   3.708  10.201   7.623  0.2314 -0.2240 -0.2672
  802loPI   C4A11818   3.707  10.103   8.007  0.1480  0.0193  0.0327
  802loPI   C5A11819   3.644  10.138   8.455  0.0587  0.2290 -0.1268
  802loPI   C6A11820   3.594  10.201   8.855 -0.0669 -0.0090  0.0670
  802loPI   C1B11821   3.661   9.663   6.688 -0.1038  0.5217  0.1309
  802loPI   C2B11822   3.618   9.731   7.150  0.0201 -0.0190 -0.0347
  802loPI   C3B11823   3.626   9.684   7.592 -0.2096  0.2106 -0.1890
  802loPI   C4B11824   3.570   9.650   8.013  0.0705  0.3507  0.2108
  803loPI    C111825   5.760   9.830   5.602 -0.1928 -0.1996  0.0599
  803loPI    C211826   5.727  10.108   5.317  0.0793 -0.1625  0.0616
  803loPI    C311827   5.442   9.831   5.361 -0.2520  0.1814  0.1334
  803loPI   PO411828   5.828   9.976   5.840  0.2029 -0.2247  0.1061
  803loPI   GL111829   5.968   9.901   6.195 -0.1338 -0.2137 -0.0063
  803loPI   GL211830   6.030   9.678   6.310 -0.1191 -0.0919  0.3478
  803loPI   C1A11831   6.089  10.165   6.508  0.0220 -0.0132  0.0385
  803loPI   C2A11832   6.094  10.248   6.937 -0.1130 -0.2482  0.1578
  803loPI   C3A11833   6.067  10.332   7.396  0.1857  0.2778  0.0104
  803loPI   C4A11834   6.014  10.332   7.812  0.4587 -0.0516  0.0909
  803loPI   C5A11835   6.062  10.310   8.303  0.2879 -0.3471 -0.2303
  803loPI   C6A11836   6.069  10.587   8.695  0.3016 -0.0656 -0.3896
  803loPI   C1B11837   5.985   9.751   6.842 -0.0940  0.3450  0.0544
  803loPI   C2B11838   5.994   9.763   7.255  0.1457  0.1111  0.0466
  803loPI   C3B11839   5.905   9.787   7.664 -0.0915 -0.0904  0.0441
  803loPI   C4B11840   5.862   9.829   8.079  0.0871  0.0622  0.2492
  804loPI    C111841   6.254   0.125   5.834  0.1560 -0.2590 -0.1092
  804loPI    C211842   6.075  -0.230   5.795 -0.2402 -0.0905  0.1164
  804loPI    C311843   5.995   0.063   5.535 -0.2485 -0.0323  0.1843
  804loPI   PO411844   6.181   0.272   6.117  0.2347  0.1655  0.0874
  804loPI   GL111845   6.242   0.173   6.533 -0.1024  0.2231 -0.0217
  804loPI   GL211846   6.552   0.308   6.626 -0.1988  0.3854  0.2467
  804loPI   C1A11847   6.087   0.067   6.805 -0.1663 -0.0754  0.1630
  804loPI   C2A11848   6.127   0.020   7.253 -0.2139 -0.1129 -0.0633
  804loPI   C3A11849   6.100   0.025   7.711  0.1809 -0.1312 -0.1450
  804loPI   C4A11850   6.041   0.078   8.147  0.0558 -0.0532 -0.0028
  804loPI   C5A11851   6.166   0.100   8.507  0.0935 -0.2857 -0.0769
  804loPI   C6A11852   6.083  -0.129   8.930 -0.1002 -0.3327  0.0458
  804loPI   C1B11853   6.597   0.215   7.017 -0.1370 -0.1094 -0.1599
  804loPI   C2B11854   6.560   0.163   7.484 -0.1348 -0.0364 -0.3481
  804loPI   C3B11855   6.583   0.189   7.883 -0.0405 -0.0042 -0.0919
  804loPI   C4B11856   6.617   0.185   8.304  0.0201  0.0713  0.2124
  805loPI    C111857   0.338   1.418   5.735 -0.2009  0.0512  0.1140
  805loPI    C211858   0.495   1.701   5.499 -0.2535 -0.1362 -0.1493
  805loPI    C311859   0.190   1.477   5.368 -0.0657 -0.4673 -0.0321
  805loPI   PO411860   0.314   1.610   6.121 -0.0335  0.1068  0.0617
  805loPI   GL111861   0.321   1.819   6.535 -0.0945  0.0411  0.1811
  805loPI   GL211862   0.631   1.716   6.576  0.0039 -0.0904  0.2545
  805loPI   C1A11863   0.401   1.843   6.980  0.0297 -0.1597  0.0728
  805loPI   C2A11864   0.468   1.697   7.439 -0.0294 -0.0725 -0.1930
  805loPI   C3A11865   0.521   1.689   7.804  0.2141 -0.2211 -0.2257
  805loPI   C4A11866   0.428   1.737   8.251 -0.1876  0.1828 -0.0535
  805loPI   C5A11867   0.316   1.858   8.694 -0.3006 -0.2217 -0.1976
  805loPI   C6A11868   0.166   1.684   9.134 -0.2037  0.0858 -0.3607
  805loPI   C1B11869   0.730   1.444   6.996  0.0065  0.0865  0.0762
  805loPI   C2B11870   0.812   1.403   7.387 -0.0438 -0.1700 -0.0470
  805loPI   C3B11871   0.899   1.364   7.858 -0.0559  0.2155 -0.0609
  805loPI   C4B11872   0.872   1.405   8.344  0.1108  0.2322 -0.1057
  806loPI    C111873   0.750   5.586   5.995 -0.3925  0.1644  0.1088
  806loPI    C211874   0.827   5.415   5.642 -0.0945 -0.1196  0.3053
  806loPI    C311875   0.716   5.799   5.659  0.2321 -0.0018 -0.0727
  806loPI   PO411876   0.971   5.514   6.093  0.0249 -0.2313 -0.3540
  806loPI   GL111877   1.053   5.391   6.403  0.3340 -0.0604  0.1885
  806loPI   GL211878   1.294   5.337   6.551  0.0654  0.0256  0.2740
  806loPI   C1A11879   0.915   5.469   6.864  0.1125  0.1750 -0.2840
  806loPI   C2A11880   0.915   5.250   7.242  0.1204  0.1164  0.2786
  806loPI   C3A11881   0.954   5.243   7.693  0.0970 -0.0915 -0.0289
  806loPI   C4A11882   1.063   5.198   8.234 -0.0174 -0.1221  0.2967
  806loPI   C5A11883   0.986   5.088   8.591 -0.2155 -0.1221  0.1834
  806loPI   C6A11884   0.612   5.043   8.762  0.2403 -0.1381  0.2791
  806loPI   C1B11885   1.430   5.369   6.977  0.1581 -0.1004 -0.0669
  806loPI   C2B11886   1.447   5.385   7.338 -0.1040  0.1792  0.2305
  806loPI   C3B11887   1.463   5.318   7.794  0.0311  0.2028 -0.0137
  806loPI   C4B11888   1.470   5.474   8.205 -0.1274  0.0122  0.1242
  807loPI    C111889  11.078   1.656   6.146  0.1969  0.0085  0.1402
  807loPI    C211890  11.075   1.357   5.881  0.0631  0.0131  0.1355
  807loPI    C311891  11.180   1.725   5.765 -0.0378  0.0243  0.0782
  807loPI   PO411892  11.055   1.535   6.408 -0.0244  0.0751 -0.3091
  807loPI   GL111893  10.810   1.491   6.694 -0.2126  0.1657  0.0689
  807loPI   GL211894  10.986   1.259   6.868 -0.3242 -0.1998 -0.1105
  807loPI   C1A11895  10.730   1.769   7.069  0.0930  0.3049  0.0092
  807loPI   C2A11896  10.709   1.710   7.555  0.0953  0.0428  0.0642
  807loPI   C3A11897  10.713   1.703   7.935 -0.3474 -0.0573 -0.2209
  807loPI   C4A11898  10.743   1.708   8.269 -0.0095 -0.2957  0.1108
  807loPI   C5A11899  10.856   1.950   8.632  0.3025  0.0791 -0.1948
  807loPI   C6A11900  11.042   2.278   9.045 -0.0827  0.0938 -0.3112
  807loPI   C1B11901  11.002   1.379   7.240 -0.1287 -0.1592  0.3132
  807loPI   C2B11902  11.152   1.441   7.736 -0.2459 -0.1168 -0.2920
  807loPI   C3B11903  11.136   1.354   8.186 -0.1134 -0.0401 -0.2915
  807loPI   C4B11904  10.969   1.396   8.599 -0.2601  0.1529  0.0889
  808loPI    C111905   0.119   3.099   6.112  0.0097 -0.1150  0.0782
  808loPI    C211906  -0.171   2.828   6.070 -0.2197  0.1375  0.0046
  808loPI    C311907   0.007   2.982   5.747 -0.1500  0.1389  0.0435
  808loPI   PO411908   0.246   2.998   6.266  0.2142 -0.1804 -0.4169
  808loPI   GL111909   0.570   3.108   6.578  0.0533 -0.2605  0.1442
  808loPI   GL211910   0.370   3.206   6.739 -0.1240  0.2619  0.0930
  808loPI   C1A11911   0.823   3.237   6.901  0.2085 -0.1361  0.0742
  808loPI   C2A11912   0.789   3.288   7.288  0.0826 -0.0973 -0.0857
  808loPI   C3A11913   0.835   3.356   7.745 -0.2141  0.0362 -0.3102
  808loPI   C4A11914   0.927   3.325   8.141  0.0310  0.0971 -0.0584
  808loPI   C5A11915   1.076   3.531   8.509  0.2631 -0.2093  0.0204
  808loPI   C6A11916   0.953   3.602   8.994  0.0246  0.3536  0.1872
  808loPI   C1B11917   0.263   3.190   7.105 -0.0818 -0.5346  0.1440
  808loPI   C2B11918   0.332   3.238   7.536 -0.2741 -0.0112 -0.1907
  808loPI   C3B11919   0.387   3.231   8.050 -0.1314 -0.0369 -0.1687
  808loPI   C4B11920   0.543   3.323   8.485 -0.0550  0.2365 -0.0805
  809loPI    C111921   2.055  15.036   6.004  0.0385 -0.0737  0.0645
  809loPI    C211922   2.352  15.007   5.737  0.0229  0.0375  0.0346
  809loPI    C311923   1.992  14.852   5.654  0.0192  0.0684 -0.0073
  809loPI   PO411924   2.118  15.368   6.132 -0.1869  0.2076  0.0552
  809loPI   GL111925   1.933  15.656   6.401 -0.0272  0.4340 -0.1729
  809loPI   GL211926   1.747  15.934   6.453 -0.1151  0.1004 -0.0291
  809loPI   C1A11927   2.191  15.742   6.828 -0.2816  0.1398 -0.1400
  809loPI   C2A11928   2.294  15.766   7.244 -0.1769 -0.2433  0.0288
  809loPI   C3A11929   2.416  15.932   7.578  0.0406  0.2257  0.0373
  809loPI   C4A11930   2.407  15.988   8.013 -0.3123 -0.3128  0.0184
  809loPI   C5A11931   2.416  16.008   8.409  0.0624  0.2203 -0.0186
  809loPI   C6A11932   2.193  16.410   8.527 -0.0258 -0.3928  0.1339
  809loPI   C1B11933   1.887  16.139   6.833 -0.1395  0.0809  0.0735
  809loPI   C2B11934   1.986  16.254   7.263 -0.1178 -0.0622  0.0107
  809loPI   C3B11935   2.069  16.304   7.614  0.0487 -0.0219  0.1102
  809loPI   C4B11936   2.029  16.376   8.013 -0.0740  0.1003  0.2136
  810loPI    C111937  13.204   8.803   5.927  0.1221 -0.1187  0.0587
  810loPI    C211938  13.441   9.121   5.979  0.2342 -0.1816 -0.0627
  810loPI    C311939  13.442   8.925   5.630 -0.1490 -0.0589 -0.1372
  810loPI   PO411940  13.130   8.772   6.240  0.2708  0.3046  0.1956
  810loPI   GL111941  13.027   8.912   6.649  0.1815 -0.0759 -0.2818
  810loPI   GL211942  12.767   9.126   6.605 -0.0467  0.1087  0.0733
  810loPI   C1A11943  13.144   8.948   7.078  0.0780 -0.0568  0.0276
  810loPI   C2A11944  13.109   8.964   7.560 -0.0118  0.1394 -0.0691
  810loPI   C3A11945  13.190   8.990   8.078  0.2131 -0.1126 -0.2954
  810loPI   C4A11946  13.220   9.175   8.487 -0.1161 -0.0227  0.0258
  810loPI   C5A11947  13.335   9.142   8.939  0.1340  0.3024  0.1933
  810loPI   C6A11948  13.280   8.879   9.178  0.1751  0.0433 -0.1027
  810loPI   C1B11949  12.779   9.328   6.924 -0.1406 -0.0433 -0.4799
  810loPI   C2B11950  12.710   9.370   7.248  0.1803  0.2741  0.0771
  810loPI   C3B11951  12.796   9.353   7.687  0.1716  0.0824 -0.0817
  810loPI   C4B11952  12.785   9.440   8.077  0.2139 -0.1832  0.1879
  811loPI    C111953   4.514   2.529   5.638 -0.1429 -0.0791 -0.0073
  811loPI    C211954   4.597   2.201   5.424  0.0533 -0.0371  0.0027
  811loPI    C311955   4.447   2.525   5.244 -0.2887 -0.1834  0.0178
  811loPI   PO411956   4.633   2.614   5.796 -0.0191 -0.2703  0.1520
  811loPI   GL111957   4.742   2.601   6.242 -0.0131  0.0147  0.1660
  811loPI   GL211958   4.531   2.814   6.254  0.0307 -0.1082 -0.0039
  811loPI   C1A11959   4.782   2.521   6.723  0.2065 -0.0366  0.0480
  811loPI   C2A11960   4.867   2.470   7.084 -0.1977  0.1982  0.0170
  811loPI   C3A11961   4.986   2.585   7.435 -0.2011 -0.0606 -0.0565
  811loPI   C4A11962   4.884   2.552   7.849  0.1616  0.2985 -0.1194
  811loPI   C5A11963   4.912   2.510   8.283  0.1965  0.1909  0.0440
  811loPI   C6A11964   4.784   2.475   8.732  0.1064 -0.1608  0.3444
  811loPI   C1B11965   4.420   2.852   6.637  0.0353 -0.2264  0.0068
  811loPI   C2B11966   4.458   2.950   7.131 -0.1017  0.3305 -0.0332
  811loPI   C3B11967   4.512   2.946   7.668  0.1145  0.0637 -0.2315
  811loPI   C4B11968   4.587   2.849   8.107  0.0232 -0.0048 -0.2392
  812loPI    C111969  13.718  13.299   6.168 -0.0342 -0.0682  0.0261
  812loPI    C211970  13.711  13.658   5.993  0.2164 -0.1523 -0.1634
  812loPI    C311971  13.407  13.404   5.941  0.0412  0.0272 -0.0337
  812loPI   PO411972  13.722  13.362   6.377 -0.1372 -0.3404 -0.0048
  812loPI   GL111973  13.618  13.500   6.857  0.1574  0.1740 -0.2777
  812loPI   GL211974  13.364  13.410   6.787  0.1188 -0.1096 -0.0820
  812loPI   C1A11975  13.770  13.540   7.289 -0.1289  0.0535  0.1278
  812loPI   C2A11976  13.806  13.483   7.746 -0.0277 -0.1286  0.0919
  812loPI   C3A11977  13.915  13.461   8.209  0.2988 -0.2770  0.1416
  812loPI   C4A11978  13.849  13.363   8.732  0.3236 -0.1947  0.3714
  812loPI   C5A11979  14.121  13.467   8.996  0.0934  0.2674  0.0351
  812loPI   C6A11980  14.575  13.692   9.000  0.1694  0.2354  0.0125
  812loPI   C1B11981  13.300  13.409   7.234  0.0703 -0.0210 -0.1287
  812loPI   C2B11982  13.328  13.354   7.621 -0.0234  0.0568  0.0250
  812loPI   C3B11983  13.303  13.326   8.061 -0.2024 -0.1642 -0.0228
  812loPI   C4B11984  13.398  13.280   8.412  0.0116 -0.1121  0.1507
  813loPI    C111985  12.692   6.426   6.127  0.2242  0.0039  0.0326
  813loPI    C211986  12.535   6.352   5.767 -0.1737  0.1166  0.1777
  813loPI    C311987  12.911   6.242   5.847 -0.0842  0.0800 -0.2651
  813loPI   PO411988  12.567   6.355   6.248  0.2122 -0.0548 -0.4781
  813loPI   GL111989  12.657   6.588   6.675  0.1801 -0.0758 -0.1997
  813loPI   GL211990  12.923   6.441   6.665  0.1795 -0.1390  0.0611
  813loPI   C1A11991  12.665   6.706   7.114  0.1300  0.2922 -0.1340
  813loPI   C2A11992  12.790   6.867   7.492  0.0116 -0.1381  0.1148
  813loPI   C3A11993  12.700   6.868   7.908 -0.3725 -0.3324  0.1537
  813loPI   C4A11994  12.645   7.071   8.278 -0.1893 -0.7267  0.1129
  813loPI   C5A11995  12.988   7.334   8.637  0.2112  0.2926 -0.1027
  813loPI   C6A11996  13.389   7.466   8.606 -0.1670 -0.3136 -0.1012
  813loPI   C1B11997  13.127   6.477   7.102  0.2738 -0.0752  0.1051
  813loPI   C2B11998  13.190   6.434   7.481 -0.3390 -0.2261 -0.2534
  813loPI   C3B11999  13.440   6.291   7.809 -0.1253 -0.2730 -0.2135
  813loPI   C4B12000  13.380   6.176   8.265  0.2196  0.1379  0.3086
  814loPI    C112001  11.904  15.294   6.052 -0.3245 -0.1834 -0.1150
  814loPI    C212002  12.179  15.114   5.824 -0.1785  0.0050 -0.0896
  814loPI    C312003  12.002  15.450   5.697  0.0575  0.2293  0.1610
  814loPI   PO412004  11.924  15.237   6.306 -0.0199  0.0893 -0.0535
  814loPI   GL112005  11.900  14.942   6.640 -0.0122 -0.0539 -0.0874
  814loPI   GL212006  12.006  14.640   6.623 -0.0497 -0.0167 -0.1049
  814loPI   C1A12007  11.819  14.925   7.021  0.1882 -0.1123 -0.0249
  814loPI   C2A12008  11.871  14.830   7.491 -0.0074  0.3409 -0.0412
  814loPI   C3A12009  11.793  14.780   7.908 -0.2083  0.1639  0.2475
  814loPI   C4A12010  11.952  14.730   8.279  0.0156  0.0062 -0.2286
  814loPI   C5A12011  12.001  14.929   8.666  0.2410  0.3259  0.0068
  814loPI   C6A12012  12.336  15.063   9.027 -0.0543 -0.3712  0.3174
  814loPI   C1B12013  12.185  14.636   6.941 -0.1521 -0.0848  0.0391
  814loPI   C2B12014  12.245  14.464   7.369 -0.0565 -0.1542  0.4499
  814loPI   C3B12015  12.236  14.498   7.786 -0.0984 -0.0582 -0.1095
  814loPI   C4B12016  12.359  14.420   8.204  0.3938 -0.1007  0.1052
  815loPI    C112017   7.477   5.902   5.876  0.0133  0.0936  0.0121
  815loPI    C212018   7.730   5.646   6.050 -0.0271  0.0913  0.0678
  815loPI    C312019   7.592   5.572   5.681 -0.0194  0.0455  0.0740
  815loPI   PO412020   7.584   6.128   5.958  0.0165 -0.1667  0.0875
  815loPI   GL112021   7.335   6.254   6.413  0.1650 -0.3096 -0.1298
  815loPI   GL212022   7.254   5.879   6.297  0.0751 -0.2617  0.1652
  815loPI   C1A12023   7.511   6.266   6.880 -0.0082 -0.1803  0.0524
  815loPI   C2A12024   7.643   6.083   7.245 -0.2370  0.1636  0.0059
  815loPI   C3A12025   7.756   6.010   7.652  0.0009  0.3224  0.0735
  815loPI   C4A12026   7.863   6.436   7.875 -0.1768  0.1162  0.0468
  815loPI   C5A12027   7.893   6.547   8.218  0.4071  0.0230 -0.0930
  815loPI   C6A12028   8.013   6.790   8.571 -0.0609 -0.0297  0.0910
  815loPI   C1B12029   7.233   5.804   6.657  0.0690  0.0193  0.3380
  815loPI   C2B12030   7.177   6.009   7.105  0.2919  0.4072  0.1026
  815loPI   C3B12031   7.115   5.903   7.534 -0.0165  0.3146 -0.0433
  815loPI   C4B12032   7.064   5.897   7.969 -0.0167  0.2956 -0.2266
  816loPI    C112033   9.342  14.812   5.679  0.3002 -0.0661 -0.0832
  816loPI    C212034   9.574  14.523   5.528  0.1363 -0.2178 -0.0486
  816loPI    C312035   9.310  14.710   5.293 -0.0027 -0.3394  0.0090
  816loPI   PO412036   9.175  14.728   5.908  0.0090 -0.1420 -0.1130
  816loPI   GL112037   9.205  14.473   6.225 -0.0308 -0.0171 -0.1883
  816loPI   GL212038   9.206  14.777   6.416  0.0064  0.0270  0.0483
  816loPI   C1A12039   9.078  14.380   6.735 -0.2316  0.1491 -0.0047
  816loPI   C2A12040   9.034  14.429   7.228 -0.2306  0.0910  0.1327
  816loPI   C3A12041   9.074  14.410   7.782  0.0210 -0.0638 -0.0916
  816loPI   C4A12042   9.104  14.513   8.156 -0.2117  0.0961  0.3584
  816loPI   C5A12043   9.073  14.612   8.560  0.3339  0.0161  0.0058
  816loPI   C6A12044   9.149  14.825   8.850 -0.1986 -0.0582  0.2060
  816loPI   C1B12045   9.116  14.979   6.770  0.3642 -0.0314 -0.0573
  816loPI   C2B12046   9.157  14.916   7.146 -0.0382 -0.0674  0.3382
  816loPI   C3B12047   9.089  14.890   7.613  0.1936 -0.0433  0.2317
  816loPI   C4B12048   9.227  14.986   8.019 -0.1211  0.1113  0.1829
  817loPI    C112049  15.477   6.964   5.754  0.2407  0.0922  0.2044
  817loPI    C212050  15.690   6.684   5.564  0.2496  0.2040  0.0472
  817loPI    C312051  15.446   6.924   5.357 -0.0075  0.0983  0.2212
  817loPI   PO412052  15.532   6.905   6.031 -0.0512 -0.1006 -0.1190
  817loPI   GL112053  15.706   7.091   6.429  0.1672  0.3691  0.0054
  817loPI   GL212054  15.432   7.233   6.456 -0.0858  0.0752 -0.2359
  817loPI   C1A12055  15.852   7.031   6.860 -0.5484 -0.3397  0.1398
  817loPI   C2A12056  15.984   6.884   7.278 -0.1349 -0.2649  0.0211
  817loPI   C3A12057  15.889   6.979   7.615  0.1056  0.0132 -0.1972
  817loPI   C4A12058  15.977   6.916   8.099 -0.0370  0.0100  0.1738
  817loPI   C5A12059  15.997   7.024   8.553 -0.2569  0.0485 -0.3600
  817loPI   C6A12060  15.905   6.990   9.004 -0.3874 -0.1819 -0.1348
  817loPI   C1B12061  15.464   7.366   6.918 -0.2312  0.0523  0.1981
  817loPI   C2B12062  15.615   7.312   7.279  0.2214 -0.0686 -0.2045
  817loPI   C3B12063  15.566   7.348   7.750 -0.1280  0.3072  0.3057
  817loPI   C4B12064  15.597   7.289   8.064 -0.1269 -0.0960  0.1708
  818loPI    C112065   7.990   3.045   6.050 -0.2218 -0.0530  0.0466
  818loPI    C212066   7.818   3.350   6.243 -0.1310 -0.0375  0.1036
  818loPI    C312067   7.856   3.361   5.845 -0.1989 -0.0100  0.0977
  818loPI   PO412068   7.908   2.894   6.310 -0.1868 -0.2805  0.1335
  818loPI   GL112069   7.772   2.757   6.711 -0.2181  0.1035  0.0998
  818loPI   GL212070   7.709   2.486   6.783 -0.3384 -0.0667 -0.1079
  818loPI   C1A12071   7.667   2.902   7.062  0.0255  0.1006  0.0223
  818loPI   C2A12072   7.728   2.820   7.510 -0.2343 -0.1444 -0.0958
  818loPI   C3A12073   7.710   2.895   7.862 -0.0478  0.1288  0.0770
  818loPI   C4A12074   7.787   2.865   8.318 -0.1548  0.1753 -0.0269
  818loPI   C5A12075   7.855   3.231   8.580  0.0813 -0.1611 -0.3021
  818loPI   C6A12076   8.063   3.551   8.864 -0.0881  0.0561 -0.0047
  818loPI   C1B12077   7.604   2.325   7.140 -0.0188 -0.1636 -0.0303
  818loPI   C2B12078   7.621   2.310   7.643  0.0987  0.1155  0.5155
  818loPI   C3B12079   7.609   2.423   8.004  0.2062 -0.1241  0.1289
  818loPI   C4B12080   7.626   2.341   8.395  0.1273 -0.1157 -0.1233
  819loPI    C112081  14.174   4.611   6.190 -0.1478  0.0922 -0.0286
  819loPI    C212082  13.802   4.602   6.043 -0.0981 -0.0308 -0.1492
  819loPI    C312083  14.098   4.419   5.847  0.0006 -0.0538  0.0194
  819loPI   PO412084  14.148   4.593   6.430  0.0406  0.2013 -0.0985
  819loPI   GL112085  14.068   4.397   6.853 -0.1920 -0.1026 -0.0336
  819loPI   GL212086  13.741   4.515   6.809  0.0539  0.2726 -0.2626
  819loPI   C1A12087  14.151   4.357   7.202  0.0362 -0.1334  0.1847
  819loPI   C2A12088  14.282   4.187   7.573 -0.0888  0.2133 -0.0090
  819loPI   C3A12089  14.272   4.244   8.078  0.1263  0.3898  0.0776
  819loPI   C4A12090  14.466   4.342   8.518 -0.0489 -0.0857  0.2091
  819loPI   C5A12091  14.695   4.745   8.755  0.1989  0.0810 -0.1093
  819loPI   C6A12092  14.760   4.686   9.119 -0.0460  0.0894 -0.0630
  819loPI   C1B12093  13.644   4.214   7.123 -0.1603  0.0860 -0.0955
  819loPI   C2B12094  13.716   4.159   7.607  0.1063  0.2945  0.3734
  819loPI   C3B12095  13.792   4.101   7.996 -0.2866  0.1586 -0.0722
  819loPI   C4B12096  13.896   4.196   8.480  0.0499  0.1335 -0.0969
  820loPI    C112097   8.654  14.423   5.712  0.3097 -0.3209 -0.0098
  820loPI    C212098   8.826  14.764   5.595  0.0840 -0.1606  0.1181
  820loPI    C312099   8.851  14.439   5.364 -0.1116  0.0730 -0.2419
  820loPI   PO412100   8.727  14.324   6.010 -0.0888  0.0252  0.1408
  820loPI   GL112101   8.718  14.531   6.379  0.0964 -0.1597 -0.0824
  820loPI   GL212102   8.645  14.247   6.590  0.0354  0.0472 -0.0361
  820loPI   C1A12103   8.722  14.694   6.920 -0.0794 -0.1005 -0.2989
  820loPI   C2A12104   8.640  14.822   7.292 -0.1522 -0.0164  0.0278
  820loPI   C3A12105   8.617  14.851   7.798 -0.3481 -0.3467  0.1828
  820loPI   C4A12106   8.649  14.699   8.183 -0.2289  0.1723 -0.2155
  820loPI   C5A12107   8.606  14.699   8.632  0.1553  0.2760 -0.1504
  820loPI   C6A12108   8.524  14.462   8.860 -0.0325  0.0001 -0.1146
  820loPI   C1B12109   8.551  14.222   6.986 -0.3630 -0.1125 -0.0199
  820loPI   C2B12110   8.612  14.354   7.440 -0.1640  0.1608  0.3311
  820loPI   C3B12111   8.561  14.297   7.829  0.1522  0.1525  0.0734
  820loPI   C4B12112   8.471  14.252   8.374  0.1736 -0.1241 -0.2453
  821loPI    C112113   6.666   9.724   5.635 -0.0226  0.2392 -0.0148
  821loPI    C212114   7.036   9.810   5.509  0.0314  0.0519  0.0119
  821loPI    C312115   6.720   9.904   5.282  0.1007  0.1284 -0.0535
  821loPI   PO412116   6.674   9.692   5.864  0.1187 -0.0722  0.1000
  821loPI   GL112117   6.540   9.615   6.275 -0.3770  0.0507  0.1393
  821loPI   GL212118   6.393   9.321   6.510 -0.3500  0.3214  0.2648
  821loPI   C1A12119   6.498   9.831   6.671  0.0355 -0.0134 -0.0124
  821loPI   C2A12120   6.478   9.946   7.068 -0.0549 -0.0657 -0.1334
  821loPI   C3A12121   6.351   9.957   7.542  0.0238  0.1491 -0.0785
  821loPI   C4A12122   6.386  10.017   7.921 -0.2859  0.0244  0.3046
  821loPI   C5A12123   6.579  10.038   8.298  0.1019 -0.2913  0.2429
  821loPI   C6A12124   6.990  10.224   8.415 -0.3029 -0.2655 -0.0419
  821loPI   C1B12125   6.379   9.447   7.012  0.1712 -0.3717 -0.1731
  821loPI   C2B12126   6.292   9.431   7.510 -0.0923  0.1079  0.0985
  821loPI   C3B12127   6.289   9.353   7.909  0.3019 -0.2040  0.3132
  821loPI   C4B12128   6.398   9.529   8.279  0.3399 -0.3039  0.1502
  822loPI    C112129   0.724   2.896   6.156  0.0420 -0.1045  0.1462
  822loPI    C212130   0.931   3.195   5.989  0.1798 -0.2615  0.0317
  822loPI    C312131   0.561   3.112   5.861  0.1842 -0.2125 -0.0132
  822loPI   PO412132   0.901   2.823   6.334  0.0805  0.0117  0.0687
  822loPI   GL112133   1.376   2.772   6.561  0.0631  0.0570  0.1630
  822loPI   GL212134   1.199   2.889   6.755 -0.0896  0.0894  0.3206
  822loPI   C1A12135   1.632   2.642   6.933  0.3401 -0.3443  0.1362
  822loPI   C2A12136   1.573   2.526   7.393 -0.3853 -0.2262 -0.0651
  822loPI   C3A12137   1.614   2.482   7.860  0.0943 -0.0462  0.1217
  822loPI   C4A12138   1.572   2.564   8.346 -0.0563 -0.0659 -0.1052
  822loPI   C5A12139   1.671   2.812   8.614  0.2184 -0.0990 -0.0375
  822loPI   C6A12140   1.872   3.046   8.793 -0.1249 -0.0040 -0.2105
  822loPI   C1B12141   1.210   2.918   7.272  0.0005  0.2112  0.4828
  822loPI   C2B12142   1.247   2.823   7.608 -0.0701 -0.0816  0.0864
  822loPI   C3B12143   1.262   2.855   8.019  0.3160 -0.3205 -0.0258
  822loPI   C4B12144   1.222   3.065   8.448  0.0460 -0.0286 -0.0751
  823loPI    C112145  12.320  12.508   6.018  0.0562  0.0070 -0.0048
  823loPI    C212146  12.240  12.225   5.747 -0.2267  0.3264 -0.2643
  823loPI    C312147  12.499  12.517   5.661  0.1158  0.1167  0.0275
  823loPI   PO412148  12.350  12.417   6.288 -0.0811 -0.0908  0.2099
  823loPI   GL112149  12.191  12.460   6.643  0.0735  0.0370 -0.2126
  823loPI   GL212150  11.872  12.468   6.532 -0.0007  0.3009  0.2136
  823loPI   C1A12151  12.131  12.595   7.087 -0.0455 -0.3988 -0.3431
  823loPI   C2A12152  12.131  12.476   7.581 -0.0972 -0.2772  0.0416
  823loPI   C3A12153  12.263  12.402   8.001 -0.2285  0.0807  0.0334
  823loPI   C4A12154  12.297  12.148   8.452 -0.1473 -0.1106 -0.2718
  823loPI   C5A12155  12.344  12.023   8.765  0.2479  0.0128 -0.2077
  823loPI   C6A12156  12.212  11.712   9.218 -0.0376 -0.1762 -0.0704
  823loPI   C1B12157  11.687  12.483   6.927  0.3023  0.0903  0.0702
  823loPI   C2B12158  11.671  12.331   7.376 -0.0490  0.2491 -0.0842
  823loPI   C3B12159  11.706  12.312   7.853  0.2959 -0.0783  0.3240
  823loPI   C4B12160  11.785  12.247   8.213 -0.2189  0.4091  0.0964
  824loPI    C112161   6.399  16.238   5.936  0.1186 -0.0898  0.0226
  824loPI    C212162   6.146  16.014   5.721  0.1016 -0.0107 -0.0402
  824loPI    C312163   6.513  16.094   5.581  0.0598  0.1140 -0.0804
  824loPI   PO412164   6.296  16.189   6.244  0.1539  0.0803 -0.2841
  824loPI   GL112165   6.113  16.412   6.560  0.0962  0.1629 -0.1783
  824loPI   GL212166   5.851  16.535   6.691 -0.0345 -0.0340  0.1300
  824loPI   C1A12167   6.347  16.539   6.882 -0.1014 -0.0391 -0.1733
  824loPI   C2A12168   6.344  16.534   7.207 -0.2253 -0.0268 -0.2975
  824loPI   C3A12169   6.366  16.549   7.634 -0.0508  0.0030 -0.1225
  824loPI   C4A12170   6.314  16.519   8.090  0.4711 -0.1208 -0.3232
  824loPI   C5A12171   6.320  16.496   8.529 -0.1301  0.1828 -0.0511
  824loPI   C6A12172   6.451  16.702   8.792 -0.1408 -0.1048 -0.0536
  824loPI   C1B12173   5.759  16.400   7.093  0.0658 -0.0045 -0.0377
  824loPI   C2B12174   5.730  16.459   7.521 -0.1655  0.0826 -0.1205
  824loPI   C3B12175   5.796  16.436   8.013  0.0088  0.0862  0.1836
  824loPI   C4B12176   5.797  16.239   8.405  0.0096  0.0027  0.0525
  825loPI    C112177  15.434  10.997   6.191  0.0167 -0.3168  0.0549
  825loPI    C212178  15.666  10.905   5.878  0.1532 -0.0517  0.0754
  825loPI    C312179  15.275  10.825   5.867  0.1752 -0.1361 -0.1219
  825loPI   PO412180  15.629  10.831   6.399 -0.0551 -0.2098  0.2926
  825loPI   GL112181  15.788  10.999   6.702  0.0423  0.0579 -0.2700
  825loPI   GL212182  16.087  11.175   6.731 -0.2324 -0.0898 -0.0707
  825loPI   C1A12183  15.891  10.954   7.146 -0.0032 -0.2702 -0.1030
  825loPI   C2A12184  15.874  10.787   7.541 -0.0372 -0.0835  0.2460
  825loPI   C3A12185  15.979  10.703   7.968  0.1704 -0.0834  0.0608
  825loPI   C4A12186  15.812  10.657   8.409  0.0994 -0.1906  0.2341
  825loPI   C5A12187  15.930  10.661   8.882  0.2083  0.2578  0.0287
  825loPI   C6A12188  15.860  10.851   9.207 -0.2401  0.1465  0.2168
  825loPI   C1B12189  16.113  11.374   7.081 -0.0410  0.2755 -0.0571
  825loPI   C2B12190  16.072  11.330   7.481 -0.0993  0.0555  0.1324
  825loPI   C3B12191  16.035  11.258   7.835 -0.0251  0.0988 -0.1523
  825loPI   C4B12192  16.136  11.158   8.193 -0.0833 -0.2771 -0.2628
  826loPI    C112193   9.688   7.140   6.176  0.1908  0.0624  0.2231
  826loPI    C212194  10.057   7.239   6.056  0.0937 -0.0380 -0.1696
  826loPI    C312195   9.742   7.315   5.821 -0.1453  0.0923  0.1839
  826loPI   PO412196   9.666   7.236   6.468 -0.1232  0.1631 -0.1074
  826loPI   GL112197   9.536   7.683   6.655  0.1821  0.3269 -0.0532
  826loPI   GL212198   9.221   7.887   6.667 -0.1064  0.1141  0.0731
  826loPI   C1A12199   9.637   7.533   7.082  0.1990  0.2279 -0.1783
  826loPI   C2A12200   9.523   7.506   7.549  0.1609  0.1227  0.0441
  826loPI   C3A12201   9.473   7.556   7.995  0.0318  0.1230  0.1806
  826loPI   C4A12202   9.698   7.643   8.294 -0.0422 -0.3289  0.0964
  826loPI   C5A12203  10.115   7.855   8.409  0.1442  0.2114 -0.2040
  826loPI   C6A12204  10.469   7.578   8.269 -0.2332 -0.0639  0.2008
  826loPI   C1B12205   9.291   7.928   7.100 -0.0764 -0.3126  0.1562
  826loPI   C2B12206   9.286   8.016   7.557 -0.2872 -0.1412  0.1670
  826loPI   C3B12207   9.595   8.044   7.895  0.0665  0.2094  0.0016
  826loPI   C4B12208   9.561   8.139   8.392  0.0366 -0.2970  0.0555
  827loPI    C112209   5.126  15.691   5.796 -0.0194 -0.1031  0.2566
  827loPI    C212210   4.815  15.525   5.606 -0.1225  0.2428  0.1138
  827loPI    C312211   5.188  15.455   5.479 -0.1663  0.1502  0.0345
  827loPI   PO412212   5.059  15.590   6.050 -0.0501 -0.0353  0.1807
  827loPI   GL112213   5.035  15.557   6.566  0.2889  0.0658  0.1443
  827loPI   GL212214   5.031  15.297   6.789  0.2300  0.1683 -0.0868
  827loPI   C1A12215   5.252  15.761   6.838  0.0640  0.2020  0.2481
  827loPI   C2A12216   5.241  15.781   7.339 -0.0290  0.1000 -0.0264
  827loPI   C3A12217   5.202  15.787   7.829 -0.0428 -0.0039 -0.1716
  827loPI   C4A12218   5.068  15.867   8.178 -0.0588  0.1178 -0.0561
  827loPI   C5A12219   4.949  16.225   8.446 -0.1062  0.0272 -0.0902
  827loPI   C6A12220   4.930  16.675   8.515 -0.1776  0.0191  0.0952
  827loPI   C1B12221   5.081  15.206   7.204 -0.0077  0.1236 -0.1442
  827loPI   C2B12222   5.091  15.230   7.617 -0.1485  0.1636  0.0441
  827loPI   C3B12223   5.090  15.342   8.066  0.0752 -0.1915 -0.2509
  827loPI   C4B12224   5.005  15.452   8.460 -0.2736 -0.6079  0.0959
  828loPI    C112225   0.141  12.944   6.119  0.0005 -0.1276 -0.0426
  828loPI    C212226   0.295  12.862   5.759  0.0706  0.1685 -0.0825
  828loPI    C312227   0.116  13.213   5.824 -0.4850 -0.1182 -0.0013
  828loPI   PO412228   0.228  12.766   6.274  0.1606  0.0330  0.0701
  828loPI   GL112229   0.139  12.936   6.646  0.2662  0.3263  0.2326
  828loPI   GL212230   0.286  12.998   6.970 -0.1048  0.0196 -0.2059
  828loPI   C1A12231  -0.179  12.881   6.945  0.0358 -0.0916 -0.3604
  828loPI   C2A12232  -0.326  12.860   7.355  0.0469 -0.0686 -0.0004
  828loPI   C3A12233  -0.339  12.819   7.793  0.2956 -0.0840 -0.2721
  828loPI   C4A12234  -0.284  12.867   8.271 -0.1896  0.1217  0.0642
  828loPI   C5A12235  -0.155  12.877   8.708 -0.0172  0.1951  0.0416
  828loPI   C6A12236   0.101  13.071   9.065  0.1384  0.0807  0.1593
  828loPI   C1B12237   0.119  13.073   7.375  0.0117 -0.2119  0.0819
  828loPI   C2B12238   0.109  13.004   7.779  0.0811  0.2325 -0.2684
  828loPI   C3B12239   0.271  12.963   8.287 -0.1815 -0.1057  0.0406
  828loPI   C4B12240   0.335  12.806   8.716 -0.0809  0.1532  0.2082
  829loPI    C112241  14.628   7.489   5.614  0.0622  0.1372  0.1681
  829loPI    C212242  14.307   7.276   5.724 -0.0105  0.1813  0.0437
  829loPI    C312243  14.266   7.582   5.469  0.1364  0.1627 -0.0035
  829loPI   PO412244  14.736   7.589   5.903 -0.1724  0.1162 -0.1959
  829loPI   GL112245  14.714   7.686   6.286  0.0939  0.0309 -0.0429
  829loPI   GL212246  14.455   7.657   6.454  0.1191 -0.1732 -0.1512
  829loPI   C1A12247  14.816   7.916   6.844  0.2100  0.0480  0.0832
  829loPI   C2A12248  14.792   7.962   7.260 -0.0023  0.1454 -0.0806
  829loPI   C3A12249  14.830   7.998   7.689 -0.0658  0.0041 -0.0718
  829loPI   C4A12250  14.788   8.085   8.144  0.2131  0.1952  0.2223
  829loPI   C5A12251  14.800   7.819   8.527 -0.1721 -0.2340  0.1856
  829loPI   C6A12252  14.721   7.672   8.973 -0.0937 -0.2776  0.1333
  829loPI   C1B12253  14.508   7.499   6.768 -0.3556  0.3986 -0.0122
  829loPI   C2B12254  14.608   7.500   7.197 -0.1530  0.1573  0.1317
  829loPI   C3B12255  14.685   7.548   7.621 -0.1563  0.2466 -0.3062
  829loPI   C4B12256  14.676   7.586   8.081 -0.2968  0.0424  0.1368
  830loPI    C112257  11.081  12.419   5.982 -0.0726  0.0138  0.0892
  830loPI    C212258  11.425  12.617   6.025  0.0418 -0.1355 -0.1194
  830loPI    C312259  11.215  12.654   5.687 -0.1949  0.0257  0.0425
  830loPI   PO412260  11.114  12.292   6.206 -0.3633  0.0759 -0.0525
  830loPI   GL112261  11.283  12.123   6.601 -0.1465 -0.2590 -0.0663
  830loPI   GL212262  11.610  12.080   6.666  0.2307 -0.1007 -0.2959
  830loPI   C1A12263  11.256  12.279   6.989  0.0944  0.2249 -0.1823
  830loPI   C2A12264  11.175  12.232   7.515  0.1164  0.2215  0.0387
  830loPI   C3A12265  11.198  12.244   7.932 -0.1258 -0.2570 -0.0031
  830loPI   C4A12266  11.081  12.268   8.429 -0.1001  0.0051  0.0036
  830loPI   C5A12267  11.050  12.601   8.761 -0.2292  0.1992  0.3623
  830loPI   C6A12268  10.931  13.020   8.898 -0.1774  0.1892  0.2959
  830loPI   C1B12269  11.552  11.826   7.006  0.1001  0.0219  0.1738
  830loPI   C2B12270  11.555  11.891   7.462  0.6961  0.2447 -0.0402
  830loPI   C3B12271  11.517  11.855   7.923  0.2262  0.0870  0.0264
  830loPI   C4B12272  11.391  11.874   8.312  0.3038  0.2606  0.1257
  831loPI    C112273   8.007  12.160   6.096 -0.0131 -0.0275  0.2415
  831loPI    C212274   7.699  12.055   6.330 -0.0309 -0.2374  0.1268
  831loPI    C312275   7.737  11.895   5.966  0.0028  0.0786 -0.0119
  831loPI   PO412276   8.265  12.098   6.262 -0.2190  0.4653 -0.3089
  831loPI   GL112277   8.049  11.846   6.584  0.0450 -0.1041  0.0092
  831loPI   GL212278   8.328  11.825   6.659 -0.1042 -0.2212  0.0704
  831loPI   C1A12279   7.825  11.782   6.863  0.0631  0.0966 -0.0445
  831loPI   C2A12280   7.746  11.765   7.335 -0.1256 -0.4143 -0.0407
  831loPI   C3A12281   7.684  11.787   7.766 -0.0162 -0.1824 -0.0591
  831loPI   C4A12282   7.862  11.811   8.192  0.0932 -0.1759 -0.2714
  831loPI   C5A12283   7.966  11.783   8.677 -0.0280  0.2400 -0.0093
  831loPI   C6A12284   8.154  11.739   9.029  0.1060 -0.2791  0.0626
  831loPI   C1B12285   8.250  11.810   7.099  0.1522  0.1948 -0.0255
  831loPI   C2B12286   8.197  11.841   7.567 -0.3581 -0.1136 -0.0019
  831loPI   C3B12287   8.281  11.901   7.938 -0.1780 -0.1326 -0.2226
  831loPI   C4B12288   8.316  12.000   8.385 -0.0093 -0.0741  0.0206
  832loPI    C112289   1.516  16.031   6.004  0.0589  0.1611  0.0361
  832loPI    C212290   1.373  16.182   5.663 -0.1645 -0.1183  0.0028
  832loPI    C312291   1.638  15.882   5.654 -0.1107 -0.0731  0.0743
  832loPI   PO412292   1.655  16.271   6.113 -0.0952 -0.0932 -0.1656
  832loPI   GL112293   1.534  16.549   6.432 -0.1702  0.1395  0.1884
  832loPI   GL212294   1.651  16.850   6.248  0.1024 -0.1217 -0.1587
  832loPI   C1A12295   1.506  16.468   6.823  0.1600  0.2970  0.1855
  832loPI   C2A12296   1.665  16.626   7.230 -0.1018 -0.0032 -0.1045
  832loPI   C3A12297   1.696  16.633   7.716  0.1154 -0.1239  0.2646
  832loPI   C4A12298   1.684  16.718   8.180 -0.0687  0.0011  0.0932
  832loPI   C5A12299   1.647  16.548   8.636 -0.1922  0.0927 -0.3709
  832loPI   C6A12300   1.932  16.552   8.972 -0.0373  0.0689 -0.1936
  832loPI   C1B12301   1.743  17.056   6.577  0.2376 -0.0799 -0.0509
  832loPI   C2B12302   1.723  17.075   6.961  0.1423  0.0017  0.0820
  832loPI   C3B12303   1.779  17.066   7.405  0.3492 -0.0988  0.0117
  832loPI   C4B12304   1.843  17.112   7.753  0.1587  0.0803  0.0284
  833loPI    C112305  15.176   0.651   5.859  0.1696 -0.0434 -0.1608
  833loPI    C212306  15.113   0.344   6.108  0.0741 -0.0073 -0.1402
  833loPI    C312307  15.225   0.276   5.730 -0.0971 -0.0736 -0.1801
  833loPI   PO412308  15.427   0.792   6.130  0.1184  0.2794  0.1776
  833loPI   GL112309  15.539   0.937   6.508 -0.0023 -0.0873 -0.1725
  833loPI   GL212310  15.500   1.209   6.587  0.2715  0.1144  0.0296
  833loPI   C1A12311  15.499   0.715   6.830  0.1300  0.0101  0.2040
  833loPI   C2A12312  15.677   0.771   7.179  0.0084 -0.0158 -0.0862
  833loPI   C3A12313  15.615   0.772   7.517 -0.0013  0.0930  0.0837
  833loPI   C4A12314  15.603   0.732   7.954  0.1142 -0.0696 -0.0801
  833loPI   C5A12315  15.681   0.725   8.296  0.0112  0.2646 -0.2424
  833loPI   C6A12316  15.977   0.768   8.626  0.2036  0.0532  0.0484
  833loPI   C1B12317  15.603   1.315   6.958 -0.0025  0.0437 -0.1724
  833loPI   C2B12318  15.743   1.250   7.345  0.1316 -0.0762 -0.0233
  833loPI   C3B12319  15.774   1.357   7.695 -0.1872  0.0630  0.1405
  833loPI   C4B12320  15.791   1.306   8.085  0.2213 -0.4541  0.0524
  834loPI    C112321  11.225   8.020   6.213  0.1338  0.3166  0.2597
  834loPI    C212322  11.202   7.665   6.395 -0.1388  0.1114 -0.1596
  834loPI    C312323  11.422   7.705   6.064 -0.0477  0.3545 -0.0711
  834loPI   PO412324  11.253   8.188   6.414 -0.1586  0.4423 -0.0574
  834loPI   GL112325  11.260   8.113   6.856 -0.1620  0.0719 -0.1643
  834loPI   GL212326  11.448   7.867   6.941  0.1731 -0.0544 -0.1843
  834loPI   C1A12327  11.181   8.382   7.171  0.1046 -0.1520 -0.0997
  834loPI   C2A12328  11.219   8.428   7.664  0.0581  0.0703  0.2002
  834loPI   C3A12329  11.151   8.450   7.991 -0.1147 -0.2006  0.1048
  834loPI   C4A12330  11.153   8.488   8.319  0.1105  0.1968  0.0584
  834loPI   C5A12331  10.961   8.439   8.730 -0.1478 -0.1465  0.0073
  834loPI   C6A12332  10.739   8.824   8.903 -0.0015 -0.0673  0.2115
  834loPI   C1B12333  11.588   7.859   7.448  0.0741 -0.1794  0.2415
  834loPI   C2B12334  11.583   8.039   7.784 -0.0779  0.0538  0.1604
  834loPI   C3B12335  11.507   8.128   8.185 -0.1249 -0.1587  0.0168
  834loPI   C4B12336  11.208   8.074   8.560 -0.0773 -0.1266  0.3522
  835loPI    C112337   2.385   3.330   5.509  0.1176  0.1001 -0.0642
  835loPI    C212338   2.722   3.348   5.723 -0.0260  0.0287  0.1711
  835loPI    C312339   2.735   3.393   5.326  0.2599  0.0252  0.1781
  835loPI   PO412340   2.159   3.278   5.770  0.0858 -0.2466  0.1108
  835loPI   GL112341   2.098   3.234   6.316  0.0742 -0.1104 -0.0184
  835loPI   GL212342   1.846   3.288   6.434 -0.0399 -0.0906 -0.1419
  835loPI   C1A12343   2.267   3.321   6.731  0.1132 -0.0866 -0.2522
  835loPI   C2A12344   2.200   3.245   7.171  0.1365 -0.2933  0.1019
  835loPI   C3A12345   2.241   3.132   7.606  0.1998  0.0131  0.1006
  835loPI   C4A12346   2.295   3.193   8.009 -0.1407 -0.1983 -0.1596
  835loPI   C5A12347   2.155   3.352   8.442  0.2356 -0.3417  0.1853
  835loPI   C6A12348   2.291   3.711   8.669 -0.2282 -0.1538  0.3215
  835loPI   C1B12349   1.692   3.104   6.825 -0.4434 -0.0816 -0.1604
  835loPI   C2B12350   1.691   3.054   7.291  0.1980 -0.2745 -0.0222
  835loPI   C3B12351   1.763   2.979   7.733 -0.1078  0.1112  0.0712
  835loPI   C4B12352   1.793   3.020   8.142  0.1165  0.0991 -0.1427
  836loPI    C112353   8.014   0.247   5.805 -0.0216  0.1296 -0.1495
  836loPI    C212354   8.401   0.290   5.712  0.0414 -0.1196 -0.0121
  836loPI    C312355   8.178   0.022   5.517 -0.0573  0.0068 -0.0744
  836loPI   PO412356   7.988   0.211   5.979 -0.3085  0.0166  0.0171
  836loPI   GL112357   7.796   0.278   6.350 -0.1962 -0.1474 -0.0503
  836loPI   GL212358   7.507   0.387   6.515  0.0095 -0.0159  0.2449
  836loPI   C1A12359   7.919   0.153   6.781 -0.0929 -0.2787 -0.2351
  836loPI   C2A12360   7.931   0.148   7.156 -0.2341  0.2617 -0.0305
  836loPI   C3A12361   7.893   0.118   7.654  0.0773 -0.1390  0.0603
  836loPI   C4A12362   7.897   0.125   8.107  0.2109 -0.2516  0.0579
  836loPI   C5A12363   7.882   0.255   8.632  0.4208  0.0087  0.4662
  836loPI   C6A12364   8.126   0.287   8.933  0.1953 -0.0083  0.0442
  836loPI   C1B12365   7.589   0.550   6.989  0.2523  0.1394 -0.0487
  836loPI   C2B12366   7.533   0.460   7.485  0.0603 -0.0190  0.0329
  836loPI   C3B12367   7.549   0.460   7.861  0.1021 -0.0282  0.0143
  836loPI   C4B12368   7.529   0.439   8.322 -0.1025  0.0069  0.0727
  837loPI    C112369   8.048   3.768   6.347 -0.3286 -0.1020 -0.1281
  837loPI    C212370   8.267   3.965   6.076  0.0810 -0.0216  0.2512
  837loPI    C312371   8.310   3.569   6.119 -0.1018 -0.0600  0.0917
  837loPI   PO412372   7.767   3.837   6.379 -0.2011  0.1652  0.0627
  837loPI   GL112373   7.664   4.038   6.815 -0.0441 -0.1597  0.0230
  837loPI   GL212374   7.761   4.382   6.953  0.1050  0.0938  0.0318
  837loPI   C1A12375   7.530   3.853   7.091  0.3174 -0.0216 -0.1596
  837loPI   C2A12376   7.592   3.806   7.566 -0.0771  0.0193 -0.0682
  837loPI   C3A12377   7.565   3.732   8.034  0.1915  0.1221 -0.1371
  837loPI   C4A12378   7.434   3.715   8.454  0.1782 -0.1034  0.2863
  837loPI   C5A12379   7.130   3.812   8.750  0.1594 -0.2423 -0.0852
  837loPI   C6A12380   7.017   4.168   8.799  0.1111 -0.0239 -0.2473
  837loPI   C1B12381   7.614   4.337   7.402 -0.0691 -0.2253 -0.0419
  837loPI   C2B12382   7.547   4.214   7.810 -0.0470 -0.2447  0.0094
  837loPI   C3B12383   7.676   4.214   8.266  0.1225 -0.0044 -0.1148
  837loPI   C4B12384   7.516   4.152   8.682  0.2769  0.2328 -0.0516
  838loPI    C112385  15.373   6.430   5.813 -0.0775 -0.2795  0.0897
  838loPI    C212386  15.133   6.171   5.626  0.1745 -0.2171 -0.3332
  838loPI    C312387  15.144   6.554   5.510 -0.1390 -0.0221  0.2375
  838loPI   PO412388  15.347   6.386   6.050  0.0897 -0.0423  0.0732
  838loPI   GL112389  15.515   6.331   6.386  0.0444  0.0248  0.0252
  838loPI   GL212390  15.191   6.316   6.508 -0.4566 -0.1666  0.0829
  838loPI   C1A12391  15.723   6.538   6.742 -0.2523  0.1916  0.0072
  838loPI   C2A12392  15.826   6.448   7.214  0.1874 -0.0149  0.0545
  838loPI   C3A12393  15.848   6.441   7.688  0.0119  0.0983 -0.1164
  838loPI   C4A12394  15.808   6.435   8.094  0.1977  0.2709  0.2063
  838loPI   C5A12395  15.732   6.513   8.522 -0.3562 -0.0875  0.0622
  838loPI   C6A12396  15.643   6.566   8.882 -0.1133  0.2181 -0.1194
  838loPI   C1B12397  15.226   6.428   6.902  0.1665 -0.3482 -0.0877
  838loPI   C2B12398  15.339   6.402   7.287  0.2311  0.0101 -0.0987
  838loPI   C3B12399  15.282   6.365   7.734  0.0389  0.1757  0.1676
  838loPI   C4B12400  15.341   6.361   8.153  0.2408 -0.0017  0.2296
  839loPI    C112401   0.450   3.927   5.777  0.0986 -0.1814 -0.0914
  839loPI    C212402   0.768   3.685   5.791  0.1122 -0.1792 -0.3183
  839loPI    C312403   0.762   3.992   5.535  0.0726  0.0314 -0.0699
  839loPI   PO412404   0.349   3.901   6.062 -0.0546 -0.0545  0.3141
  839loPI   GL112405   0.301   3.828   6.457  0.1863 -0.1469  0.0670
  839loPI   GL212406   0.028   3.649   6.330 -0.0276  0.0141  0.1140
  839loPI   C1A12407   0.244   4.103   6.799 -0.0633 -0.0925 -0.0258
  839loPI   C2A12408   0.074   4.073   7.239 -0.0404 -0.1937  0.1860
  839loPI   C3A12409   0.175   4.080   7.627  0.2649 -0.0598  0.2642
  839loPI   C4A12410   0.176   4.155   8.102  0.1045 -0.2400 -0.0578
  839loPI   C5A12411   0.437   4.188   8.375 -0.1499 -0.0213 -0.1679
  839loPI   C6A12412   0.824   4.177   8.614  0.0714  0.2089  0.0761
  839loPI   C1B12413   0.021   3.588   6.746  0.2664  0.2363 -0.0872
  839loPI   C2B12414  -0.054   3.619   7.176  0.0414 -0.2078  0.2106
  839loPI   C3B12415  -0.070   3.686   7.563  0.2629  0.2917  0.3411
  839loPI   C4B12416   0.021   3.619   7.958  0.0590 -0.0555  0.0941
  840loPI    C112417   1.723   7.059   5.860  0.1539  0.2735 -0.2855
  840loPI    C212418   1.688   6.665   5.796  0.1912  0.2256 -0.0223
  840loPI    C312419   1.434   6.920   5.620  0.1444  0.0820 -0.1657
  840loPI   PO412420   1.712   6.996   6.179 -0.0207 -0.2615  0.1868
  840loPI   GL112421   1.834   7.031   6.518  0.0664 -0.0949 -0.2994
  840loPI   GL212422   1.949   7.254   6.579  0.0611 -0.0481  0.0681
  840loPI   C1A12423   1.888   6.910   6.960  0.1563 -0.2263 -0.2346
  840loPI   C2A12424   1.840   6.842   7.383  0.1361  0.2241  0.2635
  840loPI   C3A12425   1.942   6.783   7.817  0.2208 -0.0721 -0.0413
  840loPI   C4A12426   1.889   6.793   8.252 -0.0636  0.0484 -0.0053
  840loPI   C5A12427   2.084   6.913   8.738  0.0047  0.0320 -0.2018
  840loPI   C6A12428   2.225   6.831   9.200  0.0151 -0.3762 -0.0081
  840loPI   C1B12429   1.975   7.358   7.025 -0.1387 -0.0616  0.2886
  840loPI   C2B12430   2.002   7.291   7.483 -0.0896 -0.2487  0.0445
  840loPI   C3B12431   2.076   7.344   7.894  0.0251 -0.2559  0.1775
  840loPI   C4B12432   2.100   7.284   8.317  0.2052 -0.0728  0.1729
  841loPI    C112433  13.333   9.677   5.903  0.1650  0.2082  0.0658
  841loPI    C212434  13.716   9.605   5.812  0.1231 -0.1359  0.1480
  841loPI    C312435  13.424   9.438   5.595  0.0182  0.0523  0.1419
  841loPI   PO412436  13.314   9.610   6.212  0.2364  0.0552  0.2535
  841loPI   GL112437  13.309   9.366   6.514 -0.0046  0.0700  0.0148
  841loPI   GL212438  13.072   9.599   6.629 -0.0145  0.1366  0.2283
  841loPI   C1A12439  13.243   9.390   7.019 -0.1367 -0.1418  0.1018
  841loPI   C2A12440  13.344   9.482   7.514  0.2103 -0.0718  0.0519
  841loPI   C3A12441  13.240   9.429   7.915  0.2760 -0.0136 -0.0973
  841loPI   C4A12442  13.343   9.601   8.259  0.1914 -0.0582 -0.2283
  841loPI   C5A12443  13.358  10.082   8.453 -0.1522 -0.0625  0.2823
  841loPI   C6A12444  13.498  10.364   8.653  0.4791  0.3623  0.3048
  841loPI   C1B12445  12.874   9.830   6.980 -0.0211 -0.1369 -0.0183
  841loPI   C2B12446  12.922   9.800   7.325 -0.0082 -0.0923 -0.2153
  841loPI   C3B12447  12.935   9.835   7.737  0.2354  0.1128  0.1610
  841loPI   C4B12448  12.940   9.967   8.092  0.0806  0.0747 -0.1893
  842loPI    C112449  11.252  10.097   5.848  0.0543 -0.0413  0.1064
  842loPI    C212450  10.965  10.301   5.659 -0.0265 -0.2227  0.0306
  842loPI    C312451  11.346  10.337   5.542 -0.0352 -0.0888  0.0415
  842loPI   PO412452  11.138  10.177   6.141  0.2442  0.2077 -0.2846
  842loPI   GL112453  10.959  10.356   6.504 -0.0802 -0.0160 -0.1819
  842loPI   GL212454  10.945   9.991   6.532  0.0828  0.0326 -0.1300
  842loPI   C1A12455  11.215  10.322   6.919  0.0939  0.0198 -0.0878
  842loPI   C2A12456  11.293  10.278   7.405  0.2100 -0.0271  0.0613
  842loPI   C3A12457  11.194  10.348   7.779 -0.0931  0.0365 -0.1586
  842loPI   C4A12458  11.130  10.422   8.187  0.1509  0.0781  0.2568
  842loPI   C5A12459  11.162  10.522   8.588  0.1017  0.1145 -0.3082
  842loPI   C6A12460  11.320  10.447   8.984  0.0142 -0.0648 -0.3309
  842loPI   C1B12461  11.103   9.832   6.939  0.3356  0.0458 -0.3009
  842loPI   C2B12462  11.152   9.753   7.247 -0.0209  0.1001 -0.0351
  842loPI   C3B12463  11.044   9.811   7.662  0.2672 -0.1119 -0.0954
  842loPI   C4B12464  11.046   9.846   8.141 -0.1975  0.2700 -0.0475
  843loPI    C112465   0.761   0.572   5.905  0.1773  0.1161  0.1422
  843loPI    C212466   0.880   0.192   5.944 -0.0036  0.0628  0.1893
  843loPI    C312467   0.870   0.363   5.582  0.0197  0.0036  0.1606
  843loPI   PO412468   0.544   0.610   6.033  0.1006 -0.3800  0.1262
  843loPI   GL112469   0.583   0.773   6.446  0.2805 -0.1742 -0.2580
  843loPI   GL212470   0.359   0.462   6.471 -0.1916 -0.0118  0.0940
  843loPI   C1A12471   0.617   0.900   6.866 -0.2740 -0.0169 -0.2944
  843loPI   C2A12472   0.622   0.968   7.221  0.4278 -0.1394 -0.2154
  843loPI   C3A12473   0.706   0.926   7.643  0.0749 -0.0786 -0.2276
  843loPI   C4A12474   0.730   0.958   8.092  0.0437 -0.3063 -0.1241
  843loPI   C5A12475   0.859   0.944   8.513 -0.0791  0.0018  0.3008
  843loPI   C6A12476   0.791   0.678   8.930 -0.0489 -0.2053 -0.0227
  843loPI   C1B12477   0.504   0.429   6.907  0.0358 -0.1523 -0.3701
  843loPI   C2B12478   0.474   0.434   7.260 -0.2369  0.0546  0.1635
  843loPI   C3B12479   0.508   0.444   7.632 -0.0207  0.2352 -0.3646
  843loPI   C4B12480   0.594   0.485   8.030  0.1476  0.2931  0.0531
  844loPI    C112481   0.279  10.921   6.301 -0.0359  0.1028 -0.0400
  844loPI    C212482  -0.007  10.978   6.027  0.0458  0.0571 -0.1356
  844loPI    C312483   0.362  11.120   5.964  0.0693  0.0313 -0.0571
  844loPI   PO412484   0.191  11.047   6.529  0.1182  0.1822 -0.2263
  844loPI   GL112485   0.500  11.112   6.890  0.0358 -0.0599  0.0631
  844loPI   GL212486   0.537  10.802   7.117  0.0622  0.1860 -0.3183
  844loPI   C1A12487   0.722  11.200   7.296  0.4307  0.3305  0.1924
  844loPI   C2A12488   0.724  11.267   7.749  0.2688  0.1087 -0.0964
  844loPI   C3A12489   0.664  11.176   8.190  0.2062 -0.1556 -0.3243
  844loPI   C4A12490   0.513  11.241   8.557  0.0499 -0.0194  0.0084
  844loPI   C5A12491   0.359  11.364   8.878  0.0142 -0.0147 -0.1404
  844loPI   C6A12492   0.264  11.412   9.304 -0.2621 -0.0338  0.0065
  844loPI   C1B12493   0.445  10.706   7.486 -0.0249  0.0219  0.1493
  844loPI   C2B12494   0.483  10.734   7.931  0.0755  0.1531  0.2413
  844loPI   C3B12495   0.484  10.758   8.399  0.4572  0.2262  0.0138
  844loPI   C4B12496   0.514  10.568   8.857 -0.0181 -0.3243  0.3464
  845loPI    C112497   8.001   9.918   5.550  0.1975 -0.0934  0.0949
  845loPI    C212498   8.012   9.528   5.460 -0.3090 -0.0279 -0.2984
  845loPI    C312499   8.118   9.800   5.186  0.0445  0.1178 -0.0254
  845loPI   PO412500   8.061   9.901   5.817  0.0748  0.3082  0.1609
  845loPI   GL112501   8.009   9.889   6.273  0.1464  0.1473 -0.0668
  845loPI   GL212502   8.028  10.183   6.440 -0.0965 -0.1425 -0.0374
  845loPI   C1A12503   7.874   9.828   6.704 -0.2731  0.1705 -0.1145
  845loPI   C2A12504   7.866   9.855   7.057  0.0932 -0.1387  0.1438
  845loPI   C3A12505   7.741   9.828   7.433 -0.0207 -0.0678  0.0490
  845loPI   C4A12506   7.734  10.072   7.892 -0.2917  0.0019 -0.1685
  845loPI   C5A12507   7.832  10.112   8.330  0.0053  0.0451 -0.4866
  845loPI   C6A12508   7.732  10.188   8.741 -0.0403 -0.0987  0.1801
  845loPI   C1B12509   8.005  10.327   6.849  0.0529 -0.0838 -0.2111
  845loPI   C2B12510   7.897  10.283   7.274  0.0302  0.3390 -0.2763
  845loPI   C3B12511   7.954  10.426   7.618  0.2965  0.3315 -0.1957
  845loPI   C4B12512   7.987  10.510   8.087  0.0181 -0.0474 -0.0639
  846loPI    C112513   4.029   9.560   5.426  0.1232  0.1335 -0.1935
  846loPI    C212514   4.199   9.388   5.108  0.0967  0.1908 -0.2388
  846loPI    C312515   4.068   9.765   5.085  0.0128  0.1650 -0.1876
  846loPI   PO412516   4.192   9.522   5.637 -0.0653 -0.0761 -0.2701
  846loPI   GL112517   4.338   9.365   6.013 -0.1340  0.1021  0.1244
  846loPI   GL212518   4.025   9.421   6.082  0.0905  0.3437  0.1804
  846loPI   C1A12519   4.511   9.335   6.351  0.2341  0.1099 -0.1327
  846loPI   C2A12520   4.499   9.381   6.806 -0.1504  0.1887  0.3013
  846loPI   C3A12521   4.437   9.470   7.225  0.0070 -0.2842  0.4208
  846loPI   C4A12522   4.412   9.438   7.596 -0.0167  0.0487  0.0504
  846loPI   C5A12523   4.430   9.338   8.071 -0.2384 -0.1232 -0.2392
  846loPI   C6A12524   4.576   9.401   8.518  0.2749 -0.1564 -0.0532
  846loPI   C1B12525   3.891   9.256   6.412 -0.1273 -0.2480 -0.2589
  846loPI   C2B12526   3.995   9.306   6.873 -0.2375 -0.1134 -0.4057
  846loPI   C3B12527   3.966   9.362   7.324  0.1070 -0.0733 -0.2917
  846loPI   C4B12528   3.907   9.294   7.773  0.3294 -0.1331  0.1212
  847loPI    C112529  14.937  10.034   6.098 -0.2210  0.0980 -0.1480
  847loPI    C212530  15.197  10.212   5.852 -0.1918 -0.0535 -0.2283
  847loPI    C312531  14.935   9.947   5.707 -0.0745 -0.2573 -0.0737
  847loPI   PO412532  14.860  10.204   6.242  0.1094 -0.2328 -0.0052
  847loPI   GL112533  14.865  10.469   6.583 -0.0864 -0.0359  0.0575
  847loPI   GL212534  14.616  10.306   6.709 -0.1869 -0.0798 -0.1471
  847loPI   C1A12535  14.993  10.459   7.016  0.0665 -0.2249 -0.2224
  847loPI   C2A12536  14.943  10.398   7.490  0.0520 -0.0864  0.1975
  847loPI   C3A12537  14.904  10.424   7.891 -0.3182 -0.0947  0.0019
  847loPI   C4A12538  14.847  10.458   8.317 -0.3165 -0.3203 -0.0186
  847loPI   C5A12539  14.471  10.690   8.556 -0.0838 -0.1715  0.1524
  847loPI   C6A12540  14.370  11.068   8.771 -0.1525  0.1776 -0.1094
  847loPI   C1B12541  14.509  10.308   7.022  0.2979 -0.0983 -0.1316
  847loPI   C2B12542  14.459  10.251   7.402  0.2737 -0.0427 -0.1982
  847loPI   C3B12543  14.381  10.279   7.799  0.0837  0.0346 -0.0022
  847loPI   C4B12544  14.371  10.215   8.261  0.1317  0.2010  0.1503
  848loPI    C112545  12.737  10.331   6.147  0.1971  0.2274 -0.1156
  848loPI    C212546  12.600  10.491   5.807  0.1509  0.2322 -0.0948
  848loPI    C312547  12.789  10.721   6.073  0.1469  0.2377 -0.0967
  848loPI   PO412548  12.554  10.195   6.262  0.0943 -0.1932  0.1056
  848loPI   GL112549  12.607   9.929   6.556  0.1411 -0.0003  0.0339
  848loPI   GL212550  12.549   9.656   6.612 -0.0110 -0.1456  0.0415
  848loPI   C1A12551  12.503  10.251   6.842  0.1147 -0.1625 -0.1233
  848loPI   C2A12552  12.555  10.125   7.238 -0.2132  0.1972 -0.0016
  848loPI   C3A12553  12.542  10.127   7.705  0.0652 -0.0298 -0.0461
  848loPI   C4A12554  12.581  10.310   7.993  0.0245  0.2713  0.0229
  848loPI   C5A12555  12.692  10.316   8.456 -0.1109  0.0359  0.1466
  848loPI   C6A12556  12.832  10.191   8.803  0.0480 -0.1560 -0.0387
  848loPI   C1B12557  12.409   9.710   7.014  0.0548  0.1027  0.1053
  848loPI   C2B12558  12.477   9.683   7.528 -0.0344  0.2898 -0.0392
  848loPI   C3B12559  12.362   9.731   7.952 -0.2928  0.1655  0.2191
  848loPI   C4B12560  12.411   9.948   8.386 -0.0900  0.0318  0.0153
  849loPI    C112561   7.014  13.494   5.787  0.1746 -0.2643 -0.0966
  849loPI    C212562   6.914  13.670   5.442 -0.0089 -0.0824  0.0463
  849loPI    C312563   7.298  13.590   5.523  0.0708  0.1937 -0.0497
  849loPI   PO412564   6.862  13.667   6.003  0.1768 -0.1036  0.2307
  849loPI   GL112565   6.952  13.670   6.506  0.0676 -0.0745 -0.1923
  849loPI   GL212566   7.038  13.892   6.726 -0.0623  0.3821  0.2629
  849loPI   C1A12567   6.844  13.263   6.846 -0.1579  0.0614  0.1759
  849loPI   C2A12568   6.909  13.251   7.243  0.0719  0.1525  0.1933
  849loPI   C3A12569   6.896  13.352   7.716 -0.1046 -0.0673  0.0658
  849loPI   C4A12570   6.875  13.387   8.228 -0.0603  0.0654  0.1363
  849loPI   C5A12571   6.609  13.668   8.543 -0.2260 -0.3475 -0.3165
  849loPI   C6A12572   6.672  14.003   8.855  0.1971 -0.2654  0.1911
  849loPI   C1B12573   7.055  13.863   7.177  0.1475 -0.2178 -0.1624
  849loPI   C2B12574   7.055  13.899   7.600 -0.3252  0.2182  0.0401
  849loPI   C3B12575   6.957  13.847   8.004  0.0532  0.1626  0.0220
  849loPI   C4B12576   7.024  13.901   8.403  0.2279 -0.1638  0.3334
  850loPI    C112577   2.693  14.347   6.316 -0.2001  0.0049 -0.1323
  850loPI    C212578   2.763  13.992   6.145 -0.0618  0.0653 -0.2031
  850loPI    C312579   3.040  14.159   6.380 -0.2320  0.0049  0.0440
  850loPI   PO412580   2.470  14.319   6.388  0.3513  0.1023 -0.3000
  850loPI   GL112581   2.271  14.263   6.701 -0.1135 -0.3144  0.0720
  850loPI   GL212582   2.258  14.525   6.833 -0.0797 -0.0408 -0.0328
  850loPI   C1A12583   2.324  13.978   7.060  0.0036 -0.1591  0.1317
  850loPI   C2A12584   2.358  14.069   7.566  0.1682  0.0710 -0.5263
  850loPI   C3A12585   2.410  13.947   7.985 -0.0335 -0.0669 -0.0453
  850loPI   C4A12586   2.437  13.978   8.376  0.0221 -0.0850  0.3389
  850loPI   C5A12587   2.805  14.114   8.614 -0.1352 -0.0865 -0.0816
  850loPI   C6A12588   2.954  14.553   8.606 -0.2831  0.2129 -0.0361
  850loPI   C1B12589   2.147  14.524   7.196 -0.0521  0.0165  0.1411
  850loPI   C2B12590   1.998  14.505   7.624  0.2137 -0.2746 -0.4836
  850loPI   C3B12591   2.174  14.491   7.956 -0.1563  0.0449 -0.0581
  850loPI   C4B12592   2.555  14.552   8.259 -0.0219  0.1692  0.1477
  851loPI    C112593   3.909  17.031   5.692 -0.3090 -0.1768 -0.0273
  851loPI    C212594   3.852  17.343   5.448  0.4473 -0.1175 -0.1543
  851loPI    C312595   3.810  16.970   5.310 -0.3817 -0.0922 -0.0222
  851loPI   PO412596   3.937  17.123   5.905 -0.1086  0.0182 -0.0291
  851loPI   GL112597   3.983  17.153   6.381  0.2146  0.1125 -0.2776
  851loPI   GL212598   4.191  17.330   6.474  0.1283 -0.2831 -0.1534
  851loPI   C1A12599   3.675  17.239   6.832  0.1116 -0.0591  0.0439
  851loPI   C2A12600   3.592  17.276   7.238  0.2568 -0.1179 -0.0307
  851loPI   C3A12601   3.740  17.186   7.720  0.1158 -0.1561  0.0466
  851loPI   C4A12602   3.643  17.223   8.169  0.1469 -0.2115  0.0221
  851loPI   C5A12603   3.332  17.011   8.419  0.3194  0.2015 -0.0038
  851loPI   C6A12604   2.955  17.064   8.713  0.0589  0.3069 -0.3068
  851loPI   C1B12605   4.121  17.352   6.950 -0.2105  0.2735 -0.1615
  851loPI   C2B12606   4.148  17.308   7.301 -0.1207  0.2574  0.0530
  851loPI   C3B12607   4.188  17.298   7.690  0.1159 -0.0844  0.0250
  851loPI   C4B12608   4.160  17.396   8.070 -0.1572  0.1708 -0.2645
  852loPI    C112609  11.952   2.163   5.978  0.4417 -0.0054  0.0681
  852loPI    C212610  11.905   2.547   5.879  0.2928 -0.0513 -0.0431
  852loPI    C312611  11.882   2.264   5.598 -0.0130 -0.1742  0.1007
  852loPI   PO412612  12.049   2.187   6.208 -0.0142 -0.0585 -0.0042
  852loPI   GL112613  12.008   2.118   6.554 -0.0820 -0.3347  0.1893
  852loPI   GL212614  11.804   1.923   6.724  0.0531  0.0899 -0.0065
  852loPI   C1A12615  12.074   2.467   6.826 -0.0219 -0.0039  0.3381
  852loPI   C2A12616  12.124   2.438   7.281 -0.0821  0.3150  0.0002
  852loPI   C3A12617  12.179   2.415   7.731 -0.2230 -0.0157  0.3591
  852loPI   C4A12618  12.305   2.174   8.118  0.2175  0.0424  0.0489
  852loPI   C5A12619  12.126   2.020   8.505 -0.3476 -0.1260  0.1229
  852loPI   C6A12620  11.786   1.842   8.593  0.4262  0.0345 -0.0149
  852loPI   C1B12621  11.962   2.017   7.055  0.0244  0.1098 -0.2751
  852loPI   C2B12622  12.082   1.925   7.464 -0.1509  0.1145 -0.2253
  852loPI   C3B12623  12.147   1.854   7.801 -0.1549 -0.0406 -0.2346
  852loPI   C4B12624  12.082   1.637   8.171  0.2395  0.0845  0.1910
  853loPI    C112625  16.788   6.292   5.717  0.0394  0.3599  0.2493
  853loPI    C212626  17.138   6.286   5.523 -0.1584 -0.2200 -0.1175
  853loPI    C312627  16.797   6.319   5.318 -0.3470 -0.2033  0.1922
  853loPI   PO412628  16.899   6.441   5.983 -0.0745 -0.1482 -0.4751
  853loPI   GL112629  16.710   6.575   6.411  0.1003 -0.0786  0.3026
  853loPI   GL212630  16.929   6.271   6.475 -0.1510 -0.0783 -0.0085
  853loPI   C1A12631  16.784   6.706   6.848  0.2223  0.1085 -0.1537
  853loPI   C2A12632  16.722   6.656   7.335 -0.0865 -0.1934 -0.0302
  853loPI   C3A12633  16.817   6.677   7.777 -0.2864  0.0436  0.4523
  853loPI   C4A12634  16.808   6.749   8.249  0.1522  0.1687  0.1271
  853loPI   C5A12635  17.021   6.619   8.589  0.2369 -0.0285  0.0023
  853loPI   C6A12636  17.408   6.455   8.745 -0.0024 -0.3569 -0.1763
  853loPI   C1B12637  17.077   6.298   6.949 -0.2978  0.0221  0.1594
  853loPI   C2B12638  17.136   6.235   7.405 -0.1686  0.3319 -0.2036
  853loPI   C3B12639  17.204   6.383   7.916 -0.0247  0.2173  0.2222
  853loPI   C4B12640  17.315   6.387   8.275  0.0489 -0.2509 -0.0072
  854loPI    C112641   3.032   3.806   5.857  0.1075 -0.0826 -0.0532
  854loPI    C212642   3.022   3.480   6.088  0.1331 -0.0928 -0.0665
  854loPI    C312643   3.373   3.636   5.978  0.1210 -0.0323 -0.0204
  854loPI   PO412644   2.778   3.917   5.999  0.2500  0.4598 -0.1976
  854loPI   GL112645   2.726   3.854   6.444 -0.1113  0.0680 -0.1145
  854loPI   GL212646   2.626   3.687   6.551  0.3259 -0.0552  0.0215
  854loPI   C1A12647   2.892   3.963   6.907 -0.2100 -0.1317  0.0927
  854loPI   C2A12648   2.911   3.964   7.351 -0.1405  0.1461 -0.0113
  854loPI   C3A12649   2.870   3.782   7.810 -0.1392 -0.1467  0.2724
  854loPI   C4A12650   2.962   3.849   8.220  0.0436  0.1029 -0.1067
  854loPI   C5A12651   3.181   3.722   8.480  0.2181 -0.1246 -0.0580
  854loPI   C6A12652   3.509   3.618   8.586 -0.0703  0.0488 -0.1515
  854loPI   C1B12653   2.429   3.794   6.970 -0.0791  0.2091 -0.1798
  854loPI   C2B12654   2.323   3.645   7.388 -0.1405  0.1384 -0.0320
  854loPI   C3B12655   2.385   3.672   7.789  0.2830  0.2506 -0.1671
  854loPI   C4B12656   2.476   3.668   8.194  0.0326 -0.1158 -0.0024
  855loPI    C112657  10.619  12.413   5.926  0.1299 -0.1023  0.0648
  855loPI    C212658  10.506  12.179   5.622  0.0108  0.0057  0.0252
  855loPI    C312659  10.762  12.479   5.558  0.1076 -0.0686  0.0621
  855loPI   PO412660  10.473  12.594   6.093  0.0616  0.1023  0.0829
  855loPI   GL112661  10.594  12.448   6.466 -0.2979 -0.2003 -0.0174
  855loPI   GL212662  10.775  12.204   6.592  0.0261  0.0336  0.0035
  855loPI   C1A12663  10.403  12.439   6.870 -0.0249 -0.0194  0.2877
  855loPI   C2A12664  10.391  12.463   7.197 -0.1401  0.0429 -0.0730
  855loPI   C3A12665  10.296  12.510   7.608  0.0746  0.4083 -0.0250
  855loPI   C4A12666  10.356  12.453   8.019  0.2242  0.0479  0.0870
  855loPI   C5A12667  10.181  12.466   8.431 -0.1818  0.0574 -0.1155
  855loPI   C6A12668  10.265  12.637   8.769 -0.1280 -0.0961 -0.1411
  855loPI   C1B12669  10.788  12.069   6.933  0.2394  0.0276  0.0744
  855loPI   C2B12670  10.719  12.095   7.315  0.0366  0.0258 -0.1281
  855loPI   C3B12671  10.666  12.124   7.722 -0.3049  0.0810 -0.1629
  855loPI   C4B12672  10.722  12.100   8.142  0.1525  0.1250  0.0162
  856loPI    C112673  14.736  14.147   5.933  0.0651 -0.3967 -0.1291
  856loPI    C212674  14.804  14.266   5.558 -0.4194 -0.1092 -0.1343
  856loPI    C312675  14.429  14.240   5.694 -0.2518 -0.2739  0.3127
  856loPI   PO412676  14.849  14.299   6.117  0.1957  0.1339  0.2301
  856loPI   GL112677  14.745  14.221   6.533  0.0134 -0.1755 -0.0420
  856loPI   GL212678  14.973  14.187   6.794  0.0554  0.0587 -0.0284
  856loPI   C1A12679  14.547  14.088   7.021 -0.0800 -0.1570  0.0416
  856loPI   C2A12680  14.602  14.096   7.476  0.0998 -0.1901 -0.1290
  856loPI   C3A12681  14.557  14.111   7.841  0.0065  0.1058  0.0137
  856loPI   C4A12682  14.496  14.066   8.223 -0.1576 -0.1111 -0.3025
  856loPI   C5A12683  14.529  14.163   8.637 -0.0310  0.1176  0.0187
  856loPI   C6A12684  14.345  14.159   9.040  0.2881  0.2214 -0.1446
  856loPI   C1B12685  14.997  14.246   7.204 -0.0926  0.2045  0.0568
  856loPI   C2B12686  15.063  14.248   7.652  0.0686  0.2517 -0.0399
  856loPI   C3B12687  14.985  14.230   8.205  0.1618  0.1218 -0.0165
  856loPI   C4B12688  14.990  14.202   8.563  0.1588 -0.1227 -0.1553
  857loPI    C112689  12.001  16.301   6.093 -0.2353 -0.1808 -0.0927
  857loPI    C212690  12.114  16.067   5.789 -0.3510 -0.4952  0.1021
  857loPI    C312691  11.765  16.261   5.772 -0.1224 -0.0953 -0.1873
  857loPI   PO412692  11.972  16.195   6.312  0.0858 -0.0652  0.0269
  857loPI   GL112693  12.037  16.025   6.762  0.0785  0.0767 -0.2123
  857loPI   GL212694  11.646  15.965   6.594 -0.1316  0.1785  0.0900
  857loPI   C1A12695  12.134  16.058   7.150  0.1571 -0.0212 -0.1232
  857loPI   C2A12696  12.140  15.889   7.469  0.1155 -0.2192 -0.0707
  857loPI   C3A12697  12.105  15.753   7.910 -0.1011 -0.3153 -0.1512
  857loPI   C4A12698  12.204  15.799   8.300  0.2881 -0.0462  0.3992
  857loPI   C5A12699  12.042  15.937   8.623  0.0922  0.1508 -0.0271
  857loPI   C6A12700  11.723  16.237   8.807  0.0723  0.1153 -0.0503
  857loPI   C1B12701  11.647  15.848   7.021 -0.3571 -0.3654 -0.0237
  857loPI   C2B12702  11.647  15.703   7.500 -0.1783 -0.1447 -0.1801
  857loPI   C3B12703  11.623  15.610   7.863 -0.2356  0.0383  0.0950
  857loPI   C4B12704  11.696  15.636   8.276  0.0938  0.1752 -0.0433
  858loPI    C112705  17.126   3.477   5.779 -0.1757  0.0602 -0.1301
  858loPI    C212706  17.525   3.504   5.771 -0.1758  0.1135  0.0215
  858loPI    C312707  17.301   3.813   5.651 -0.1722  0.0285 -0.2090
  858loPI   PO412708  17.048   3.398   6.005  0.0544 -0.1993 -0.2056
  858loPI   GL112709  16.828   3.436   6.387 -0.1037  0.3175 -0.0107
  858loPI   GL212710  17.159   3.206   6.531  0.1130 -0.0089  0.1393
  858loPI   C1A12711  16.827   3.473   6.810  0.0521 -0.1582 -0.1118
  858loPI   C2A12712  16.751   3.470   7.267 -0.2354 -0.2617  0.2104
  858loPI   C3A12713  16.802   3.470   7.633  0.0870 -0.1012 -0.2156
  858loPI   C4A12714  16.913   3.548   8.112  0.0969  0.2069  0.1275
  858loPI   C5A12715  16.638   3.513   8.530  0.2033  0.2992 -0.0024
  858loPI   C6A12716  16.497   3.155   8.783 -0.1773  0.1899  0.1473
  858loPI   C1B12717  17.101   2.977   6.963 -0.0002 -0.3045  0.0392
  858loPI   C2B12718  17.143   3.170   7.437  0.1089  0.3699 -0.1555
  858loPI   C3B12719  17.192   3.161   7.898  0.4985 -0.2788  0.3392
  858loPI   C4B12720  17.355   3.272   8.381  0.0922  0.0674 -0.1182
  859loPI    C112721   2.793  10.055   5.811  0.1121 -0.2616 -0.1871
  859loPI    C212722   2.433   9.924   5.695  0.0622 -0.1658 -0.1420
  859loPI    C312723   2.579  10.265   5.546  0.0318 -0.0825  0.0164
  859loPI   PO412724   2.828   9.818   5.952 -0.0216 -0.1524  0.0473
  859loPI   GL112725   2.771   9.622   6.249  0.0919 -0.1356  0.0741
  859loPI   GL212726   2.859   9.370   6.479  0.2895 -0.1767 -0.3399
  859loPI   C1A12727   2.730   9.891   6.589 -0.0677  0.1562  0.1146
  859loPI   C2A12728   2.732   9.947   7.026  0.1260  0.0909  0.2307
  859loPI   C3A12729   2.735   9.900   7.475  0.0627 -0.1416  0.2228
  859loPI   C4A12730   2.718   9.862   7.864  0.1623 -0.0184 -0.2777
  859loPI   C5A12731   2.729   9.763   8.333 -0.0719 -0.2285  0.0319
  859loPI   C6A12732   2.778   9.928   8.735  0.0591  0.0233  0.1273
  859loPI   C1B12733   2.940   9.175   6.943 -0.1430  0.1738 -0.1126
  859loPI   C2B12734   2.966   9.016   7.432 -0.0793  0.2444  0.2135
  859loPI   C3B12735   2.944   9.063   7.887  0.0391  0.0536  0.1118
  859loPI   C4B12736   2.982   8.943   8.288 -0.0500 -0.1856 -0.0072
  860loPI    C112737   8.108  10.379   5.591 -0.0937 -0.1721 -0.0249
  860loPI    C212738   8.461  10.521   5.468 -0.1467  0.0088  0.0298
  860loPI    C312739   8.418  10.131   5.543 -0.0074 -0.0419 -0.1480
  860loPI   PO412740   8.024  10.585   5.801 -0.0540 -0.3920 -0.1651
  860loPI   GL112741   8.015  10.721   6.290  0.0646  0.1660 -0.2474
  860loPI   GL212742   7.687  10.579   6.416  0.0652 -0.0830 -0.1121
  860loPI   C1A12743   8.014  10.871   6.827 -0.3035 -0.0457  0.3195
  860loPI   C2A12744   8.030  10.897   7.256  0.0828 -0.1089  0.0481
  860loPI   C3A12745   8.043  10.957   7.692  0.0227 -0.1558 -0.1596
  860loPI   C4A12746   8.024  10.972   8.089  0.1508  0.1216  0.0434
  860loPI   C5A12747   7.940  10.966   8.455 -0.1292 -0.1033  0.0163
  860loPI   C6A12748   7.957  11.191   8.821 -0.0307  0.1793  0.0199
  860loPI   C1B12749   7.516  10.626   6.886 -0.2286  0.2360  0.1919
  860loPI   C2B12750   7.572  10.697   7.289  0.0073 -0.1683 -0.3328
  860loPI   C3B12751   7.562  10.740   7.688 -0.0505 -0.0091 -0.1001
  860loPI   C4B12752   7.578  10.809   8.103  0.0327  0.0829  0.0822
  861loPI    C112753   0.653   5.023   5.940  0.1595  0.1372  0.2012
  861loPI    C212754   0.444   5.129   5.615  0.4391  0.1068  0.0077
  861loPI    C312755   0.597   4.760   5.643  0.2664  0.0511  0.2566
  861loPI   PO412756   0.547   5.177   6.100  0.1141 -0.2609 -0.0251
  861loPI   GL112757   0.572   5.243   6.504  0.0238  0.0470 -0.3483
  861loPI   GL212758   0.346   5.121   6.588  0.0452 -0.0033  0.0117
  861loPI   C1A12759   0.419   5.542   6.840 -0.0611 -0.1282 -0.2032
  861loPI   C2A12760   0.502   5.599   7.297  0.0947  0.0119  0.3391
  861loPI   C3A12761   0.562   5.515   7.645  0.2253 -0.1103 -0.0121
  861loPI   C4A12762   0.555   5.568   8.041  0.0205 -0.1280  0.2125
  861loPI   C5A12763   0.573   5.669   8.500  0.2018  0.1381 -0.0281
  861loPI   C6A12764   0.442   5.476   8.909 -0.4294  0.1335  0.2591
  861loPI   C1B12765   0.420   5.101   6.992  0.1460  0.0151  0.1910
  861loPI   C2B12766   0.453   5.089   7.374  0.2926 -0.2869 -0.2374
  861loPI   C3B12767   0.417   5.096   7.840  0.2509 -0.0795  0.0217
  861loPI   C4B12768   0.563   5.083   8.252  0.0876 -0.1979  0.1107
  862loPI    C112769   3.935  13.002   6.085  0.0211  0.2362 -0.0949
  862loPI    C212770   4.046  12.693   5.857 -0.1601  0.0579  0.0540
  862loPI    C312771   3.713  12.897   5.769 -0.1729  0.0560  0.0978
  862loPI   PO412772   3.873  12.978   6.369  0.0432  0.1148 -0.0559
  862loPI   GL112773   3.833  13.035   6.687  0.1822  0.2161  0.1909
  862loPI   GL212774   3.500  12.877   6.719 -0.0932  0.1307  0.1383
  862loPI   C1A12775   3.893  13.039   7.159  0.0466 -0.0043 -0.1236
  862loPI   C2A12776   4.006  13.012   7.582 -0.3574 -0.1217  0.1830
  862loPI   C3A12777   3.973  13.181   7.987 -0.1147  0.0765  0.3397
  862loPI   C4A12778   3.954  13.090   8.371  0.0677  0.0950 -0.1224
  862loPI   C5A12779   3.955  12.664   8.495  0.0273 -0.2571 -0.0098
  862loPI   C6A12780   3.932  12.352   8.790 -0.1449  0.0130 -0.1080
  862loPI   C1B12781   3.384  12.917   7.179 -0.1392 -0.1948 -0.0132
  862loPI   C2B12782   3.473  12.960   7.620 -0.0338  0.1560 -0.2712
  862loPI   C3B12783   3.556  12.972   8.006  0.0328  0.0861  0.0894
  862loPI   C4B12784   3.436  12.874   8.435  0.0256 -0.1845 -0.1891
  863loPI    C112785   8.237  15.663   5.949  0.1002  0.2818  0.1267
  863loPI    C212786   8.474  15.357   5.846 -0.2316  0.0093  0.1532
  863loPI    C312787   8.591  15.734   5.776  0.0286 -0.1323 -0.2052
  863loPI   PO412788   8.140  15.582   6.175  0.0247 -0.0843  0.2222
  863loPI   GL112789   8.442  15.366   6.330 -0.1698 -0.1610 -0.0125
  863loPI   GL212790   8.392  15.081   6.454 -0.0082  0.1884  0.3375
  863loPI   C1A12791   8.400  15.565   6.808  0.1916 -0.2925 -0.1305
  863loPI   C2A12792   8.406  15.614   7.260  0.2080  0.2683  0.2193
  863loPI   C3A12793   8.350  15.686   7.690  0.2553  0.0300 -0.0183
  863loPI   C4A12794   8.478  15.639   8.194  0.0794  0.1329 -0.0985
  863loPI   C5A12795   8.422  15.641   8.581 -0.0611  0.0324 -0.4393
  863loPI   C6A12796   8.477  15.578   9.083  0.3022 -0.0227  0.0504
  863loPI   C1B12797   8.364  15.026   6.876  0.0479  0.2321 -0.0307
  863loPI   C2B12798   8.294  15.174   7.259  0.3221 -0.1390  0.0587
  863loPI   C3B12799   8.334  15.202   7.694  0.1033  0.2646 -0.0716
  863loPI   C4B12800   8.367  15.099   8.120  0.0682 -0.1014 -0.1976
  864loPI    C112801  13.558   2.871   5.896 -0.0765 -0.0039  0.0349
  864loPI    C212802  13.724   2.614   5.639  0.1632  0.0673  0.1159
  864loPI    C312803  13.364   2.769   5.562  0.1822 -0.0021 -0.1183
  864loPI   PO412804  13.657   2.743   6.137  0.2730  0.2643 -0.1544
  864loPI   GL112805  13.750   2.795   6.536  0.0783 -0.1746 -0.4349
  864loPI   GL212806  13.477   2.884   6.759  0.4058  0.1082  0.1565
  864loPI   C1A12807  14.071   2.961   6.858 -0.2923  0.1525 -0.0740
  864loPI   C2A12808  14.251   2.837   7.240 -0.0558  0.0113  0.2525
  864loPI   C3A12809  14.231   2.826   7.593 -0.2055 -0.2395  0.0145
  864loPI   C4A12810  14.299   2.848   8.029 -0.0570  0.1026  0.1357
  864loPI   C5A12811  14.361   2.859   8.451 -0.1806 -0.0048  0.0480
  864loPI   C6A12812  14.381   2.975   8.900  0.2698  0.1182  0.4538
  864loPI   C1B12813  13.657   2.815   7.082 -0.0429  0.1863 -0.1696
  864loPI   C2B12814  13.774   2.744   7.530  0.1572 -0.0461  0.3014
  864loPI   C3B12815  13.718   2.683   7.875 -0.0952  0.0265  0.0505
  864loPI   C4B12816  13.746   2.596   8.340  0.3006 -0.0422 -0.2899
  865loPI    C112817  15.845   0.849   5.873  0.0232 -0.1839 -0.0473
  865loPI    C212818  15.618   0.574   5.692  0.2983 -0.3741 -0.1106
  865loPI    C312819  15.821   0.841   5.474 -0.1895  0.0705 -0.0427
  865loPI   PO412820  15.967   0.648   6.093 -0.1413 -0.1650  0.4282
  865loPI   GL112821  15.999   0.685   6.501 -0.2641 -0.0354  0.0801
  865loPI   GL212822  15.871   0.459   6.564  0.0496 -0.1278  0.3272
  865loPI   C1A12823  16.085   0.938   6.924  0.0725  0.3200 -0.0385
  865loPI   C2A12824  16.117   0.851   7.317  0.1550 -0.3464  0.1288
  865loPI   C3A12825  16.108   1.007   7.722  0.0309 -0.1273 -0.1074
  865loPI   C4A12826  16.134   0.938   8.173  0.1575  0.0249 -0.3698
  865loPI   C5A12827  16.398   1.093   8.527 -0.2164  0.2897 -0.0254
  865loPI   C6A12828  16.520   1.394   8.777 -0.1525  0.0062  0.0507
  865loPI   C1B12829  15.879   0.393   6.964 -0.0036 -0.2858  0.0537
  865loPI   C2B12830  15.938   0.376   7.376 -0.0228  0.0698 -0.0760
  865loPI   C3B12831  16.023   0.507   7.700  0.5963  0.1337  0.1082
  865loPI   C4B12832  15.971   0.384   8.061 -0.0201 -0.0645 -0.1508
  866loPI    C112833   6.563  17.083   5.958 -0.0898  0.0296  0.1279
  866loPI    C212834   6.842  17.347   5.846 -0.1714 -0.0413 -0.2597
  866loPI    C312835   6.802  17.003   5.647 -0.3226 -0.1765 -0.0014
  866loPI   PO412836   6.499  17.224   6.189 -0.0592  0.2612 -0.2239
  866loPI   GL112837   6.616  17.112   6.566  0.0725 -0.0539  0.0738
  866loPI   GL212838   6.323  17.026   6.629 -0.1635  0.0834 -0.1054
  866loPI   C1A12839   6.909  17.110   6.859 -0.1099  0.0051  0.2039
  866loPI   C2A12840   6.942  17.220   7.279 -0.0249  0.0234  0.0012
  866loPI   C3A12841   6.907  17.149   7.665 -0.1190 -0.0726 -0.1341
  866loPI   C4A12842   6.901  17.156   8.161  0.0118  0.0415 -0.0692
  866loPI   C5A12843   6.860  17.099   8.549  0.1838 -0.0251  0.0461
  866loPI   C6A12844   6.600  17.174   8.919 -0.0139 -0.2515 -0.1956
  866loPI   C1B12845   6.483  17.002   7.091  0.1210 -0.1258  0.0675
  866loPI   C2B12846   6.471  17.005   7.501 -0.1232  0.3196 -0.3115
  866loPI   C3B12847   6.446  16.966   7.903  0.1610 -0.0179 -0.0153
  866loPI   C4B12848   6.421  17.017   8.351 -0.1552  0.1081 -0.0249
  867loPI    C112849  13.254  16.783   6.214  0.0126 -0.0748  0.0312
  867loPI    C212850  13.251  16.742   5.817  0.0982  0.0843  0.0135
  867loPI    C312851  13.274  17.106   5.980  0.3339  0.0048  0.1628
  867loPI   PO412852  13.441  16.631   6.335 -0.0921 -0.0788 -0.1637
  867loPI   GL112853  13.315  16.499   6.777  0.5060 -0.0980  0.1123
  867loPI   GL212854  13.032  16.461   6.709  0.1214  0.0452  0.2246
  867loPI   C1A12855  13.315  16.666   7.142 -0.0989 -0.4049 -0.0483
  867loPI   C2A12856  13.366  16.727   7.574 -0.2838  0.0484  0.0316
  867loPI   C3A12857  13.495  16.992   7.890  0.1967  0.0653  0.0541
  867loPI   C4A12858  13.485  17.018   8.332  0.0380 -0.1904  0.0061
  867loPI   C5A12859  13.426  17.172   8.732 -0.2337 -0.1672 -0.3095
  867loPI   C6A12860  13.261  17.176   9.121 -0.1703  0.1795  0.0869
  867loPI   C1B12861  12.796  16.583   7.020 -0.0451  0.1034  0.0727
  867loPI   C2B12862  12.789  16.548   7.326 -0.2059 -0.1764  0.1612
  867loPI   C3B12863  12.838  16.506   7.737  0.0604  0.0876 -0.0411
  867loPI   C4B12864  12.746  16.374   8.158  0.1021  0.0198 -0.1036
  868loPI    C112865  11.954   8.538   5.979 -0.1117 -0.2595 -0.2292
  868loPI    C212866  12.188   8.608   5.662  0.0535  0.2526 -0.0055
  868loPI    C312867  11.813   8.746   5.667 -0.0484 -0.0149 -0.0978
  868loPI   PO412868  12.171   8.651   6.166  0.0828  0.0516 -0.3584
  868loPI   GL112869  12.380   8.620   6.586  0.1185  0.2548  0.2340
  868loPI   GL212870  12.102   8.652   6.783  0.2900 -0.0391  0.0297
  868loPI   C1A12871  12.601   8.805   6.931  0.1606  0.1000 -0.2288
  868loPI   C2A12872  12.661   8.807   7.359  0.0959 -0.1877 -0.0813
  868loPI   C3A12873  12.648   8.809   7.832  0.0377  0.0145  0.0119
  868loPI   C4A12874  12.655   8.959   8.182 -0.0945  0.0961 -0.3099
  868loPI   C5A12875  12.739   8.642   8.528  0.3345 -0.0505  0.1050
  868loPI   C6A12876  13.075   8.694   8.793 -0.0358  0.0133  0.1517
  868loPI   C1B12877  12.191   8.722   7.191  0.0954 -0.0264 -0.1666
  868loPI   C2B12878  12.189   8.657   7.637  0.0770 -0.1502  0.2987
  868loPI   C3B12879  12.255   8.650   8.153 -0.2145 -0.2483  0.1788
  868loPI   C4B12880  12.039   8.971   8.462 -0.1338 -0.0583  0.0367
  869loPI    C112881   4.355  16.769   5.698  0.2616  0.1873 -0.0011
  869loPI    C212882   4.670  16.986   5.580  0.2067  0.2376 -0.0560
  869loPI    C312883   4.306  17.068   5.437  0.1509  0.2514  0.0923
  869loPI   PO412884   4.403  16.686   5.973 -0.2051  0.1504  0.0984
  869loPI   GL112885   4.341  16.803   6.339 -0.3699 -0.0144  0.3837
  869loPI   GL212886   4.562  17.005   6.469 -0.0820  0.0188  0.2499
  869loPI   C1A12887   4.054  16.780   6.717 -0.0832 -0.1371  0.1427
  869loPI   C2A12888   4.016  16.859   7.101  0.0309  0.0706 -0.1803
  869loPI   C3A12889   3.994  16.781   7.499 -0.1127 -0.0072 -0.0969
  869loPI   C4A12890   4.000  16.913   7.996  0.2887  0.0133 -0.1538
  869loPI   C5A12891   4.162  17.104   8.501  0.0671  0.1668 -0.0744
  869loPI   C6A12892   4.372  17.033   8.905  0.0883  0.4104  0.1782
  869loPI   C1B12893   4.501  16.962   6.989 -0.2024 -0.2175 -0.3505
  869loPI   C2B12894   4.507  16.982   7.440  0.0922  0.1061 -0.1523
  869loPI   C3B12895   4.529  17.031   7.900  0.4054 -0.0211 -0.0512
  869loPI   C4B12896   4.640  17.031   8.292  0.0850 -0.2791 -0.3650
  870loPI    C112897   1.320  17.158   5.768 -0.0356 -0.1837  0.0287
  870loPI    C212898   0.997  17.186   5.534 -0.0039 -0.2115 -0.0186
  870loPI    C312899   1.304  17.438   5.483 -0.1622  0.0432  0.2549
  870loPI   PO412900   1.211  17.061   5.985  0.3531  0.3382 -0.2279
  870loPI   GL112901   1.137  16.849   6.387 -0.0907  0.0795 -0.1567
  870loPI   GL212902   1.034  16.555   6.570 -0.0250 -0.1828 -0.1778
  870loPI   C1A12903   1.239  16.962   6.802 -0.1429  0.0422 -0.0390
  870loPI   C2A12904   1.240  16.968   7.250 -0.0532  0.2029 -0.3514
  870loPI   C3A12905   1.291  16.999   7.766 -0.3145  0.2176 -0.2818
  870loPI   C4A12906   1.344  17.145   8.164 -0.0547 -0.0723  0.0970
  870loPI   C5A12907   1.599  17.411   8.348  0.0412 -0.0862  0.0851
  870loPI   C6A12908   1.949  17.499   8.659  0.0373  0.0674  0.0028
  870loPI   C1B12909   1.078  16.526   7.070 -0.3140  0.0105 -0.2442
  870loPI   C2B12910   1.176  16.552   7.490 -0.0138  0.0203 -0.1606
  870loPI   C3B12911   1.211  16.526   7.962 -0.0227  0.0066  0.1160
  870loPI   C4B12912   1.236  16.635   8.363  0.0028 -0.0433  0.0458
  871loPI    C112913  16.015   8.501   5.750  0.0269 -0.2021  0.2460
  871loPI    C212914  16.226   8.722   5.491 -0.2462  0.0317  0.2163
  871loPI    C312915  16.275   8.325   5.503 -0.1763  0.0264 -0.1423
  871loPI   PO412916  16.063   8.667   6.015  0.2640  0.4715  0.0704
  871loPI   GL112917  16.067   8.470   6.356  0.0021  0.0024  0.3154
  871loPI   GL212918  15.775   8.318   6.275 -0.2127 -0.3051 -0.0567
  871loPI   C1A12919  16.230   8.404   6.788 -0.0915  0.0397 -0.0740
  871loPI   C2A12920  16.219   8.402   7.247 -0.1506  0.2792 -0.0550
  871loPI   C3A12921  16.235   8.426   7.715 -0.3923 -0.0205  0.0831
  871loPI   C4A12922  16.298   8.454   8.140  0.0983  0.2077  0.1097
  871loPI   C5A12923  16.326   8.479   8.550 -0.2215  0.1524  0.0973
  871loPI   C6A12924  16.223   8.323   8.854  0.0141  0.1136  0.0669
  871loPI   C1B12925  15.719   8.329   6.834 -0.1037  0.2023  0.2040
  871loPI   C2B12926  15.752   8.276   7.269 -0.2034 -0.2583 -0.0418
  871loPI   C3B12927  15.808   8.223   7.642 -0.0442  0.5935  0.0726
  871loPI   C4B12928  15.814   8.310   8.012  0.2366 -0.0404 -0.5758
  872loPI    C112929   8.538   9.792   5.953  0.0222 -0.0381 -0.0761
  872loPI    C212930   8.469   9.607   5.605  0.2168 -0.2219 -0.0193
  872loPI    C312931   8.819   9.790   5.669  0.1939 -0.2161  0.0921
  872loPI   PO412932   8.416   9.592   6.153  0.1772 -0.0574 -0.2790
  872loPI   GL112933   8.325   9.547   6.597 -0.1448 -0.1066  0.4480
  872loPI   GL212934   7.991   9.357   6.458 -0.3298  0.0989  0.0526
  872loPI   C1A12935   8.174   9.473   6.971  0.0291  0.2092 -0.2498
  872loPI   C2A12936   8.132   9.531   7.422 -0.0125  0.2112 -0.0852
  872loPI   C3A12937   8.233   9.527   7.824  0.0126 -0.0392 -0.0963
  872loPI   C4A12938   8.153   9.552   8.192 -0.1852 -0.1671  0.0464
  872loPI   C5A12939   8.210   9.733   8.569  0.3728 -0.1651  0.1080
  872loPI   C6A12940   8.106   9.608   8.992 -0.4254  0.0528 -0.3475
  872loPI   C1B12941   7.717   9.311   6.739  0.1093 -0.0562  0.3923
  872loPI   C2B12942   7.666   9.417   7.169 -0.0541  0.0326 -0.0228
  872loPI   C3B12943   7.573   9.396   7.611  0.1049 -0.0554  0.2947
  872loPI   C4B12944   7.723   9.581   8.025 -0.0832 -0.1219 -0.0714
  873loPI    C112945   8.191   2.419   5.748  0.2165 -0.1737  0.1669
  873loPI    C212946   8.134   2.602   5.396  0.1674 -0.0784  0.2242
  873loPI    C312947   8.452   2.365   5.449  0.1029 -0.2007  0.0720
  873loPI   PO412948   8.263   2.591   5.950  0.0249  0.2794  0.0270
  873loPI   GL112949   8.397   2.647   6.373 -0.0261 -0.1163 -0.1471
  873loPI   GL212950   8.610   2.694   6.635  0.0178  0.0013  0.0791
  873loPI   C1A12951   8.197   2.374   6.672 -0.2905  0.0553  0.3049
  873loPI   C2A12952   8.112   2.491   7.167 -0.0142 -0.2175  0.3412
  873loPI   C3A12953   8.081   2.520   7.616 -0.0698  0.0437 -0.3019
  873loPI   C4A12954   8.161   2.507   8.134 -0.1344  0.1077 -0.0604
  873loPI   C5A12955   8.107   2.486   8.516  0.0801  0.1185 -0.0618
  873loPI   C6A12956   8.051   2.056   8.711  0.2851 -0.0980 -0.0493
  873loPI   C1B12957   8.547   2.587   6.992 -0.1532 -0.3093 -0.2708
  873loPI   C2B12958   8.612   2.651   7.490  0.0640 -0.1135 -0.3225
  873loPI   C3B12959   8.631   2.649   7.951  0.1158  0.3483 -0.1467
  873loPI   C4B12960   8.621   2.529   8.314  0.1507 -0.1716 -0.1820
  874loPI    C112961  10.726   2.000   5.967 -0.1500  0.0392  0.1526
  874loPI    C212962  10.657   1.635   5.817 -0.1157 -0.0098  0.2555
  874loPI    C312963  10.747   1.938   5.572  0.2263 -0.1529  0.1985
  874loPI   PO412964  10.673   1.934   6.308  0.1914 -0.0498  0.1582
  874loPI   GL112965  10.960   2.001   6.629  0.0469  0.2919  0.1341
  874loPI   GL212966  10.626   2.169   6.734  0.1418 -0.1704 -0.2881
  874loPI   C1A12967  11.142   2.082   7.003  0.0567 -0.0849  0.0986
  874loPI   C2A12968  11.020   2.082   7.336 -0.0546  0.2572  0.0412
  874loPI   C3A12969  11.172   2.009   7.785  0.0907  0.2380 -0.1542
  874loPI   C4A12970  11.088   2.021   8.146  0.2166 -0.0228  0.1370
  874loPI   C5A12971  11.267   1.787   8.447  0.1345 -0.1597 -0.1677
  874loPI   C6A12972  11.425   1.574   8.807 -0.2387 -0.0276  0.2641
  874loPI   C1B12973  10.483   2.245   7.125  0.0815  0.0178  0.0381
  874loPI   C2B12974  10.556   2.218   7.496  0.1058 -0.0021  0.0425
  874loPI   C3B12975  10.690   2.270   7.924  0.2022  0.1610 -0.2957
  874loPI   C4B12976  10.824   2.359   8.450 -0.1153 -0.2545  0.1331
  875loPI    C112977   5.437   0.555   5.732 -0.0123 -0.4283  0.0310
  875loPI    C212978   5.132   0.750   5.563  0.2605  0.1370  0.1649
  875loPI    C312979   5.408   0.573   5.334 -0.0612 -0.2200  0.0428
  875loPI   PO412980   5.320   0.472   5.928 -0.1454  0.0509  0.0173
  875loPI   GL112981   5.261   0.254   6.387  0.1255 -0.0608 -0.1640
  875loPI   GL212982   5.292   0.521   6.436  0.1791 -0.1590 -0.0343
  875loPI   C1A12983   5.112   0.185   6.735  0.2489 -0.2395 -0.3473
  875loPI   C2A12984   5.085   0.195   7.066 -0.2738  0.1434  0.1587
  875loPI   C3A12985   5.153   0.269   7.530  0.1889 -0.3409  0.1215
  875loPI   C4A12986   5.181   0.310   7.922 -0.1021 -0.0118 -0.1687
  875loPI   C5A12987   5.279   0.348   8.269 -0.0244 -0.1147 -0.1205
  875loPI   C6A12988   5.360   0.351   8.742  0.1286 -0.0234 -0.1041
  875loPI   C1B12989   5.195   0.694   6.785 -0.0091 -0.1221 -0.2536
  875loPI   C2B12990   5.326   0.830   7.145  0.1446 -0.0502 -0.0188
  875loPI   C3B12991   5.362   0.794   7.633  0.1284  0.1005 -0.1515
  875loPI   C4B12992   5.277   0.815   8.081 -0.1034  0.1050 -0.0215
  876loPI    C112993   6.178   7.870   5.878 -0.3660 -0.1152 -0.0168
  876loPI    C212994   6.299   7.936   5.502 -0.0256 -0.0820  0.0953
  876loPI    C312995   6.129   7.587   5.599 -0.1650 -0.0697 -0.0996
  876loPI   PO412996   5.970   8.008   6.104 -0.2108 -0.3283  0.1476
  876loPI   GL112997   5.842   8.001   6.464  0.0879  0.1754  0.0835
  876loPI   GL212998   6.101   7.881   6.607 -0.2257 -0.0638 -0.1427
  876loPI   C1A12999   5.503   8.121   6.725  0.0805 -0.1256 -0.0805
  876loPI   C2A13000   5.476   8.290   7.087  0.0057 -0.1570 -0.0169
  876loPI   C3A13001   5.461   8.323   7.462  0.1575  0.3018 -0.2010
  876loPI   C4A13002   5.579   8.244   7.952 -0.1000 -0.2837 -0.0742
  876loPI   C5A13003   5.548   8.253   8.433 -0.0147  0.0446 -0.2224
  876loPI   C6A13004   5.420   8.472   8.756 -0.1112 -0.1527 -0.4155
  876loPI   C1B13005   5.900   7.932   7.007  0.0236  0.1073 -0.0275
  876loPI   C2B13006   5.793   7.961   7.429 -0.3013  0.0469 -0.3266
  876loPI   C3B13007   5.931   7.925   7.832  0.1631  0.0122 -0.0742
  876loPI   C4B13008   6.005   7.931   8.232 -0.1363 -0.1549  0.1135
  877loPI    C113009   8.395   6.380   6.166 -0.0812  0.0013  0.1904
  877loPI    C213010   8.447   6.701   5.934 -0.0588  0.0950  0.3240
  877loPI    C313011   8.721   6.409   5.937 -0.1119  0.0425  0.1520
  877loPI   PO413012   8.292   6.479   6.362 -0.2198  0.0431 -0.0529
  877loPI   GL113013   8.110   6.311   6.785  0.0207  0.2782 -0.0327
  877loPI   GL213014   8.038   6.608   6.753 -0.2927  0.2444 -0.3206
  877loPI   C1A13015   8.325   6.235   7.111  0.1094 -0.2031 -0.3134
  877loPI   C2A13016   8.254   6.222   7.557  0.1889  0.1354 -0.0688
  877loPI   C3A13017   8.359   6.247   7.940 -0.2071 -0.0993  0.1233
  877loPI   C4A13018   8.147   6.105   8.243  0.0557 -0.0705  0.0347
  877loPI   C5A13019   8.183   6.284   8.656 -0.2927 -0.0010  0.0034
  877loPI   C6A13020   8.596   6.090   8.952 -0.1569 -0.0448  0.1130
  877loPI   C1B13021   7.621   6.683   7.128  0.1097 -0.3890  0.0424
  877loPI   C2B13022   7.357   6.474   7.399 -0.2407 -0.4229  0.0774
  877loPI   C3B13023   7.391   6.333   7.845 -0.3410  0.1517  0.2181
  877loPI   C4B13024   7.645   6.075   8.164 -0.0811  0.2360  0.2739
  878loPI    C113025  11.079  11.827   6.152 -0.2799  0.2177 -0.0373
  878loPI    C213026  10.928  11.988   5.818 -0.0301  0.1167 -0.2019
  878loPI    C313027  11.303  11.849   5.821 -0.1399 -0.1872  0.0243
  878loPI   PO413028  10.914  11.605   6.261  0.1734  0.3906 -0.1136
  878loPI   GL113029  11.015  11.368   6.569  0.0109 -0.0953 -0.1651
  878loPI   GL213030  11.116  11.686   6.806 -0.0272 -0.1028  0.4256
  878loPI   C1A13031  11.031  11.142   6.963 -0.1561  0.2461  0.1018
  878loPI   C2A13032  11.022  11.089   7.393 -0.1027 -0.1676  0.1551
  878loPI   C3A13033  10.982  11.273   7.770  0.0817 -0.0765  0.0048
  878loPI   C4A13034  10.896  11.286   8.255 -0.1186  0.1248 -0.0780
  878loPI   C5A13035  11.017  11.342   8.696  0.1499  0.0508  0.1747
  878loPI   C6A13036  10.898  11.496   9.072 -0.0478  0.0472  0.0351
  878loPI   C1B13037  11.103  11.770   7.211  0.3009 -0.3464 -0.1203
  878loPI   C2B13038  11.072  11.785   7.667  0.3783  0.1022 -0.1455
  878loPI   C3B13039  11.035  11.702   8.051  0.2525 -0.2323  0.0298
  878loPI   C4B13040  10.760  11.753   8.530 -0.3102  0.2124  0.0663
  879loPI    C113041  17.204   8.819   6.009 -0.3007 -0.2478 -0.0107
  879loPI    C213042  16.869   8.950   5.834 -0.3079 -0.2611 -0.0069
  879loPI    C313043  17.178   8.832   5.610 -0.1882  0.0509 -0.0106
  879loPI   PO413044  17.132   8.874   6.263  0.6313 -0.0484 -0.1684
  879loPI   GL113045  16.942   8.705   6.594 -0.0203 -0.0798  0.1227
  879loPI   GL213046  16.737   8.604   6.847 -0.0206  0.0958 -0.0847
  879loPI   C1A13047  17.186   8.320   6.780 -0.0422 -0.2538  0.2482
  879loPI   C2A13048  17.147   8.145   7.161 -0.2150  0.0382  0.3519
  879loPI   C3A13049  17.195   8.243   7.629 -0.1661  0.1497 -0.2305
  879loPI   C4A13050  17.198   8.175   7.970  0.1102 -0.1119 -0.0582
  879loPI   C5A13051  17.297   8.226   8.408  0.1587  0.1014  0.4861
  879loPI   C6A13052  17.233   8.230   8.813 -0.0973  0.1467  0.2149
  879loPI   C1B13053  16.789   8.509   7.107  0.0103  0.0505 -0.1521
  879loPI   C2B13054  16.792   8.545   7.564  0.1659  0.2291 -0.1707
  879loPI   C3B13055  16.831   8.469   8.006  0.2440 -0.0900  0.1557
  879loPI   C4B13056  16.906   8.637   8.454 -0.1010 -0.3356 -0.0468
  880loPI    C113057  13.167  13.701   6.272 -0.1908  0.2383  0.1270
  880loPI    C213058  13.091  13.791   5.889  0.0354 -0.0286  0.0160
  880loPI    C313059  12.888  13.498   6.070 -0.1041  0.1284  0.1170
  880loPI   PO413060  13.355  13.726   6.340  0.1784  0.0495  0.0440
  880loPI   GL113061  13.404  13.900   6.687  0.1528  0.2126 -0.1245
  880loPI   GL213062  13.352  14.266   6.812 -0.2714  0.1995  0.0905
  880loPI   C1A13063  13.415  13.896   7.131  0.0914  0.1230  0.3940
  880loPI   C2A13064  13.466  13.855   7.528 -0.3166  0.1529 -0.4001
  880loPI   C3A13065  13.506  13.830   8.011 -0.0126  0.1787 -0.1204
  880loPI   C4A13066  13.504  13.811   8.395  0.1557  0.1309 -0.1021
  880loPI   C5A13067  13.468  13.652   8.826  0.2372  0.1975 -0.0544
  880loPI   C6A13068  13.602  13.534   9.178  0.0461 -0.1458 -0.3631
  880loPI   C1B13069  13.540  14.380   7.204 -0.3669  0.1161 -0.1256
  880loPI   C2B13070  13.525  14.389   7.646 -0.3762  0.0483 -0.1126
  880loPI   C3B13071  13.631  14.302   7.959  0.0365 -0.1830 -0.3277
  880loPI   C4B13072  13.668  14.371   8.408  0.2709 -0.0793  0.1158
  881loPI    C113073   7.454   7.210   6.146  0.2875 -0.1244  0.2700
  881loPI    C213074   7.324   7.128   5.777  0.2460  0.0371  0.2479
  881loPI    C313075   7.594   7.418   5.834  0.0203  0.2250  0.3767
  881loPI   PO413076   7.464   6.959   6.308  0.0893  0.0334  0.1125
  881loPI   GL113077   7.212   6.849   6.636 -0.0697  0.3794  0.2619
  881loPI   GL213078   6.832   6.895   6.675 -0.0880  0.3553  0.0238
  881loPI   C1A13079   7.116   6.787   7.075 -0.3707 -0.1873  0.0308
  881loPI   C2A13080   6.919   6.814   7.440  0.1179 -0.1162 -0.2097
  881loPI   C3A13081   7.027   6.694   7.842  0.2821 -0.2876  0.0889
  881loPI   C4A13082   7.089   6.633   8.191  0.2841 -0.0029 -0.1546
  881loPI   C5A13083   7.404   6.440   8.349  0.1573 -0.0909 -0.1386
  881loPI   C6A13084   7.631   6.300   8.652 -0.1706  0.0722  0.0768
  881loPI   C1B13085   6.578   6.824   7.002 -0.1504 -0.1586 -0.0644
  881loPI   C2B13086   6.397   6.805   7.401 -0.0155  0.0445  0.0474
  881loPI   C3B13087   6.517   6.669   7.784 -0.1580 -0.0493 -0.1331
  881loPI   C4B13088   6.389   6.591   8.146  0.0583 -0.2656 -0.0201
  882loPI    C113089   9.424   4.698   6.416 -0.0084  0.0532  0.0299
  882loPI    C213090   9.654   4.532   6.133 -0.4002 -0.1204 -0.1948
  882loPI    C313091   9.702   4.918   6.229  0.1100 -0.2003 -0.0980
  882loPI   PO413092   9.505   4.519   6.621 -0.0784 -0.1179 -0.0524
  882loPI   GL113093   9.657   4.573   7.014 -0.1991 -0.1468 -0.0148
  882loPI   GL213094   9.883   4.411   6.876 -0.1046  0.0173  0.0032
  882loPI   C1A13095   9.512   4.395   7.384  0.1706  0.0546  0.1139
  882loPI   C2A13096   9.489   4.374   7.787  0.2600 -0.1307  0.1130
  882loPI   C3A13097   9.471   4.256   8.254 -0.2128  0.0630  0.0140
  882loPI   C4A13098   9.582   4.242   8.607 -0.2174 -0.0428 -0.0699
  882loPI   C5A13099   9.545   4.537   8.919 -0.1987  0.2800 -0.3329
  882loPI   C6A13100   9.359   4.915   8.910 -0.0126  0.2081 -0.1707
  882loPI   C1B13101  10.021   4.498   7.330 -0.1923 -0.2154  0.2453
  882loPI   C2B13102  10.035   4.578   7.757 -0.0198  0.1661  0.0004
  882loPI   C3B13103   9.908   4.762   8.060 -0.0852  0.0080  0.0903
  882loPI   C4B13104   9.574   4.730   8.403 -0.0189  0.0336  0.0248
  883loPI    C113105   4.447   6.274   5.729  0.1213  0.0428 -0.1265
  883loPI    C213106   4.618   5.947   5.576  0.1085 -0.0643  0.0844
  883loPI    C313107   4.278   6.087   5.418  0.2334 -0.0200 -0.1503
  883loPI   PO413108   4.430   6.232   5.998  0.0313 -0.0641 -0.0463
  883loPI   GL113109   4.186   6.123   6.296 -0.0451 -0.1186 -0.2251
  883loPI   GL213110   4.487   5.846   6.275 -0.1914 -0.4449 -0.0538
  883loPI   C1A13111   4.127   6.139   6.743 -0.0613  0.1006 -0.1695
  883loPI   C2A13112   4.021   6.026   7.177 -0.1390  0.0563  0.1340
  883loPI   C3A13113   3.950   6.009   7.625  0.2755 -0.0177  0.1325
  883loPI   C4A13114   3.956   5.948   8.071 -0.1927  0.1303  0.1462
  883loPI   C5A13115   3.721   5.825   8.497 -0.0074  0.2032 -0.0571
  883loPI   C6A13116   3.596   5.516   8.807 -0.2378  0.5986  0.4004
  883loPI   C1B13117   4.377   5.687   6.650  0.3163 -0.0948 -0.1287
  883loPI   C2B13118   4.367   5.660   7.056 -0.1055 -0.1548 -0.0316
  883loPI   C3B13119   4.293   5.677   7.427 -0.0723 -0.1877  0.2467
  883loPI   C4B13120   4.299   5.578   7.856 -0.0359  0.0419 -0.1446
  884loPI    C113121   1.104   7.350   5.807 -0.3922  0.2353  0.1723
  884loPI    C213122   1.039   7.722   5.674 -0.1497  0.1831 -0.1023
  884loPI    C313123   1.081   7.421   5.414  0.0167  0.0241  0.1046
  884loPI   PO413124   1.264   7.323   5.980  0.1674  0.0683  0.0792
  884loPI   GL113125   1.292   7.233   6.396 -0.1983 -0.0128 -0.2645
  884loPI   GL213126   1.354   6.903   6.494 -0.0882 -0.2692  0.0935
  884loPI   C1A13127   1.475   7.246   6.815 -0.2769 -0.3258 -0.1967
  884loPI   C2A13128   1.400   7.243   7.210  0.0153  0.1787  0.2691
  884loPI   C3A13129   1.496   7.227   7.689 -0.0941  0.0771  0.1779
  884loPI   C4A13130   1.672   7.207   8.151 -0.2273 -0.0400  0.0915
  884loPI   C5A13131   1.704   7.266   8.630 -0.0029 -0.0742 -0.2568
  884loPI   C6A13132   1.811   7.312   9.065  0.0389 -0.1610  0.1110
  884loPI   C1B13133   1.244   6.805   6.872  0.1493 -0.1968 -0.2198
  884loPI   C2B13134   1.369   6.730   7.233 -0.0803 -0.2493 -0.1417
  884loPI   C3B13135   1.317   6.672   7.678 -0.0896 -0.2445  0.4746
  884loPI   C4B13136   1.351   6.699   8.141  0.1661  0.1798 -0.2976
  885loPI    C113137  15.400  12.631   6.454 -0.0173  0.1675 -0.0396
  885loPI    C213138  15.402  12.569   6.059 -0.0831  0.1267 -0.0338
  885loPI    C313139  15.443  12.260   6.310  0.0647  0.1650 -0.0095
  885loPI   PO413140  15.580  12.937   6.531  0.2318 -0.0846 -0.0110
  885loPI   GL113141  15.671  13.102   6.901 -0.2013  0.1487 -0.0134
  885loPI   GL213142  15.961  13.362   6.820 -0.1249  0.0404 -0.3344
  885loPI   C1A13143  15.627  13.046   7.267  0.0026 -0.0821 -0.2285
  885loPI   C2A13144  15.634  12.955   7.750 -0.1805 -0.3084  0.1405
  885loPI   C3A13145  15.657  12.912   8.202  0.1322 -0.1802  0.2536
  885loPI   C4A13146  15.462  12.711   8.592  0.0592 -0.1871  0.0451
  885loPI   C5A13147  15.634  12.614   8.930 -0.2678 -0.1622 -0.1589
  885loPI   C6A13148  16.023  12.543   9.244  0.1250 -0.1368 -0.0071
  885loPI   C1B13149  16.107  13.154   7.171 -0.1968 -0.2154  0.1769
  885loPI   C2B13150  16.081  13.077   7.558 -0.0597 -0.2254  0.1529
  885loPI   C3B13151  16.126  13.104   8.018 -0.0252  0.2510 -0.0121
  885loPI   C4B13152  16.295  13.134   8.474  0.0833  0.0369  0.0362
  886loPI    C113153   7.033   2.979   5.946  0.0497  0.1112 -0.1569
  886loPI    C213154   6.798   2.693   5.793  0.0999  0.0172 -0.0595
  886loPI    C313155   6.772   3.068   5.655 -0.1448  0.0192 -0.0129
  886loPI   PO413156   7.036   2.883   6.211  0.0397 -0.1027  0.1292
  886loPI   GL113157   7.024   2.664   6.625 -0.1084 -0.2563  0.0518
  886loPI   GL213158   6.727   2.547   6.747 -0.1857 -0.0042  0.0085
  886loPI   C1A13159   7.272   2.627   6.894  0.2100  0.1335 -0.0838
  886loPI   C2A13160   7.237   2.692   7.274 -0.0049 -0.1213  0.3307
  886loPI   C3A13161   7.202   2.732   7.745  0.2630  0.0979 -0.1335
  886loPI   C4A13162   7.304   2.798   8.157  0.0551 -0.0594  0.0436
  886loPI   C5A13163   7.204   2.607   8.439 -0.0057  0.1616 -0.2051
  886loPI   C6A13164   7.080   2.301   8.781  0.2111  0.0664  0.1743
  886loPI   C1B13165   6.751   2.520   7.224 -0.0479 -0.2581 -0.2222
  886loPI   C2B13166   6.688   2.556   7.656  0.0274 -0.0846 -0.1464
  886loPI   C3B13167   6.787   2.633   8.072 -0.0230 -0.3787 -0.5316
  886loPI   C4B13168   6.632   2.686   8.529 -0.0663  0.1753 -0.1745
  887loPI    C113169   0.736   4.300   5.963 -0.1517 -0.1253  0.0098
  887loPI    C213170   0.818   3.980   6.189 -0.2775 -0.1765 -0.0158
  887loPI    C313171   1.063   4.081   5.889 -0.1782 -0.1829  0.0622
  887loPI   PO413172   0.720   4.560   6.105 -0.1910  0.0328  0.2928
  887loPI   GL113173   0.722   4.751   6.512  0.2792 -0.1350  0.0730
  887loPI   GL213174   0.964   4.877   6.679 -0.0818  0.0593  0.4936
  887loPI   C1A13175   0.379   4.581   6.795 -0.0635  0.1673 -0.0524
  887loPI   C2A13176   0.298   4.535   7.169  0.1646 -0.0932  0.0583
  887loPI   C3A13177   0.268   4.591   7.553  0.2951  0.2298  0.0044
  887loPI   C4A13178   0.219   4.691   7.976  0.1997 -0.1334  0.0413
  887loPI   C5A13179   0.329   4.679   8.391  0.0600 -0.2261  0.3192
  887loPI   C6A13180   0.382   4.567   8.724  0.1655  0.2325 -0.1855
  887loPI   C1B13181   0.829   4.786   7.038  0.0370 -0.1492  0.1647
  887loPI   C2B13182   0.784   4.776   7.525 -0.1977  0.0982  0.0147
  887loPI   C3B13183   0.832   4.807   7.937  0.1859 -0.1350  0.0232
  887loPI   C4B13184   0.839   4.664   8.355 -0.0888 -0.0109  0.0767
  888loPI    C113185  13.394   7.912   5.899  0.0343  0.0520 -0.1089
  888loPI    C213186  13.320   7.588   5.675 -0.0150  0.0373 -0.0715
  888loPI    C313187  13.234   7.953   5.534 -0.0754  0.0260 -0.0639
  888loPI   PO413188  13.582   7.917   6.030  0.0237  0.0319 -0.0001
  888loPI   GL113189  13.642   8.159   6.406  0.0224 -0.1916  0.2074
  888loPI   GL213190  13.319   8.350   6.454  0.3362 -0.1317  0.1942
  888loPI   C1A13191  13.790   8.208   6.816 -0.0246  0.0238 -0.0115
  888loPI   C2A13192  13.919   8.163   7.231  0.0057  0.0114  0.2335
  888loPI   C3A13193  13.903   8.197   7.648 -0.2568 -0.0316  0.1034
  888loPI   C4A13194  13.911   8.198   8.123 -0.2207  0.1391  0.2692
  888loPI   C5A13195  13.676   8.279   8.444  0.1605  0.1815 -0.2465
  888loPI   C6A13196  13.151   8.399   8.363 -0.0887 -0.0462 -0.1749
  888loPI   C1B13197  13.280   8.008   6.857 -0.2804  0.0672  0.0017
  888loPI   C2B13198  13.428   8.031   7.291  0.0336  0.0658 -0.2247
  888loPI   C3B13199  13.397   8.010   7.722  0.3937  0.2835  0.2249
  888loPI   C4B13200  13.442   8.184   8.035 -0.0952  0.2979  0.1575
  889loPI    C113201  14.929   2.906   5.963  0.0029 -0.1157 -0.0309
  889loPI    C213202  15.258   2.755   5.792 -0.0190  0.0837 -0.2548
  889loPI    C313203  15.087   3.083   5.641 -0.1316  0.1737  0.0597
  889loPI   PO413204  14.951   2.851   6.229 -0.1561 -0.0411 -0.0775
  889loPI   GL113205  14.988   3.192   6.408 -0.0478  0.2623 -0.0230
  889loPI   GL213206  14.815   3.490   6.426  0.3152  0.0761  0.2226
  889loPI   C1A13207  15.135   3.051   6.805 -0.2537  0.0318  0.0035
  889loPI   C2A13208  15.353   3.093   7.090  0.1976  0.1435 -0.4137
  889loPI   C3A13209  15.255   3.090   7.536  0.0406  0.2796  0.1002
  889loPI   C4A13210  15.348   3.199   7.983  0.1308 -0.0890 -0.0394
  889loPI   C5A13211  15.360   3.260   8.483  0.1635  0.0764  0.0617
  889loPI   C6A13212  15.567   3.194   8.853 -0.1765  0.0445  0.1924
  889loPI   C1B13213  14.935   3.489   6.800  0.1220 -0.0731  0.2243
  889loPI   C2B13214  14.905   3.397   7.270 -0.1678 -0.1993  0.0347
  889loPI   C3B13215  14.835   3.415   7.695 -0.0229  0.0525 -0.4177
  889loPI   C4B13216  14.963   3.520   8.167  0.2060  0.3156 -0.1913
  890loPI    C113217   3.713   7.942   5.748  0.1329 -0.3370  0.0145
  890loPI    C213218   3.357   7.902   5.570  0.0727 -0.1830  0.0993
  890loPI    C313219   3.645   8.117   5.395  0.0288 -0.0704  0.1639
  890loPI   PO413220   3.855   7.645   5.868  0.4560 -0.0924  0.1478
  890loPI   GL113221   3.749   7.459   6.289  0.0343 -0.2973  0.1637
  890loPI   GL213222   4.126   7.443   6.306  0.1263  0.3909 -0.1225
  890loPI   C1A13223   3.748   7.376   6.665 -0.1023  0.0312  0.2657
  890loPI   C2A13224   3.807   7.369   7.132 -0.1607  0.2060  0.0503
  890loPI   C3A13225   3.939   7.371   7.513 -0.3131 -0.0881  0.0849
  890loPI   C4A13226   3.851   7.363   7.916 -0.0135 -0.0628  0.0684
  890loPI   C5A13227   3.716   7.631   8.333 -0.0167  0.0910  0.0400
  890loPI   C6A13228   3.706   7.746   8.822 -0.0003  0.1876  0.1979
  890loPI   C1B13229   4.238   7.577   6.707 -0.4007 -0.2116 -0.1249
  890loPI   C2B13230   4.289   7.539   7.091  0.1855  0.1822  0.3294
  890loPI   C3B13231   4.395   7.604   7.440 -0.1700 -0.0633 -0.0445
  890loPI   C4B13232   4.359   7.425   7.859  0.1968  0.1990  0.0449
  891loPI    C113233   3.409   7.390   5.715 -0.2332 -0.0689  0.1289
  891loPI    C213234   3.635   7.155   5.484  0.0796  0.3538 -0.0087
  891loPI    C313235   3.311   7.333   5.331 -0.2858 -0.1485  0.1540
  891loPI   PO413236   3.389   7.263   5.960  0.2570 -0.2783 -0.5663
  891loPI   GL113237   3.324   7.232   6.397 -0.0326 -0.1271  0.1778
  891loPI   GL213238   3.042   7.217   6.602 -0.0261 -0.0445  0.1335
  891loPI   C1A13239   3.367   7.242   6.943 -0.1345  0.0990  0.1344
  891loPI   C2A13240   3.385   7.260   7.388  0.0103  0.2667  0.1391
  891loPI   C3A13241   3.392   7.322   7.845 -0.1124 -0.1128 -0.2238
  891loPI   C4A13242   3.316   7.360   8.270 -0.3654  0.0857 -0.2006
  891loPI   C5A13243   3.483   7.166   8.609  0.1250  0.1477  0.1158
  891loPI   C6A13244   3.842   7.199   8.858 -0.3714  0.0327  0.0458
  891loPI   C1B13245   2.860   7.170   6.985 -0.1002  0.1051 -0.1724
  891loPI   C2B13246   2.897   7.158   7.393  0.1254  0.0117 -0.0861
  891loPI   C3B13247   2.910   7.050   7.739  0.1179  0.1029  0.0034
  891loPI   C4B13248   2.947   7.060   8.160 -0.2324 -0.0289 -0.2408
  892loPI    C113249  10.922  13.377   5.974  0.0010 -0.1177  0.0567
  892loPI    C213250  11.236  13.160   5.857 -0.0220 -0.1632  0.0792
  892loPI    C313251  11.272  13.556   5.899  0.0390 -0.1713  0.1056
  892loPI   PO413252  10.944  13.348   6.217 -0.1263  0.1682 -0.1195
  892loPI   GL113253  10.862  13.357   6.588 -0.0845 -0.3947 -0.1863
  892loPI   GL213254  11.164  13.162   6.703 -0.0726  0.0343  0.1326
  892loPI   C1A13255  10.596  13.534   6.916 -0.0531  0.0993  0.0587
  892loPI   C2A13256  10.568  13.543   7.393  0.2023  0.1088  0.1064
  892loPI   C3A13257  10.567  13.414   7.861 -0.0891 -0.3223  0.1062
  892loPI   C4A13258  10.527  13.411   8.267  0.1709  0.0544 -0.0598
  892loPI   C5A13259  10.300  13.583   8.643 -0.1302  0.1954  0.0693
  892loPI   C6A13260  10.332  13.942   8.781 -0.6852 -0.3321 -0.1045
  892loPI   C1B13261  10.914  13.175   7.090 -0.1113  0.1162 -0.1350
  892loPI   C2B13262  10.918  13.086   7.520  0.2656 -0.0794  0.0105
  892loPI   C3B13263  11.017  13.141   7.949 -0.2495 -0.2394  0.0204
  892loPI   C4B13264  11.065  13.073   8.354 -0.1032  0.0555 -0.1117
  893loPI    C113265  16.194  13.921   6.176 -0.1284  0.1209  0.1042
  893loPI    C213266  16.319  13.655   6.448 -0.4228  0.0191  0.1441
  893loPI    C313267  16.256  13.540   6.070  0.0018  0.1639  0.0228
  893loPI   PO413268  16.052  14.052   6.291 -0.3907  0.2493 -0.3180
  893loPI   GL113269  16.172  14.106   6.710 -0.1058  0.0679  0.1371
  893loPI   GL213270  15.903  13.913   6.782  0.2819  0.0182 -0.0781
  893loPI   C1A13271  16.366  14.226   7.088 -0.0024  0.1024 -0.1796
  893loPI   C2A13272  16.420  14.167   7.458  0.2578  0.0003 -0.1314
  893loPI   C3A13273  16.386  14.072   7.868  0.1827 -0.5023  0.0260
  893loPI   C4A13274  16.483  14.106   8.330  0.0305  0.0360  0.0808
  893loPI   C5A13275  16.316  14.201   8.715  0.2279  0.0894 -0.0357
  893loPI   C6A13276  16.324  14.075   9.158 -0.0599  0.2546 -0.2984
  893loPI   C1B13277  15.855  14.061   7.119 -0.1681 -0.2905  0.1834
  893loPI   C2B13278  15.875  14.010   7.555  0.0514  0.0176  0.1384
  893loPI   C3B13279  15.877  13.949   7.871  0.2846  0.0670  0.0592
  893loPI   C4B13280  15.910  13.974   8.240  0.2133  0.1067 -0.1803
  894loPI    C113281   5.028  14.036   6.297 -0.2011  0.1734  0.0826
  894loPI    C213282   5.291  14.063   5.996 -0.0133 -0.1105  0.2168
  894loPI    C313283   4.965  14.296   5.999 -0.0199 -0.1069 -0.2066
  894loPI   PO413284   4.959  13.838   6.328  0.0438 -0.0647  0.1903
  894loPI   GL113285   4.990  13.658   6.671 -0.1277  0.0600 -0.4246
  894loPI   GL213286   4.960  13.859   6.955  0.2216  0.0425 -0.1518
  894loPI   C1A13287   4.957  13.386   7.112  0.1094 -0.0591  0.0337
  894loPI   C2A13288   4.997  13.313   7.582 -0.0258  0.0001 -0.0787
  894loPI   C3A13289   4.985  13.309   7.922  0.0719  0.0577  0.0987
  894loPI   C4A13290   4.941  13.362   8.301 -0.1691 -0.0945 -0.4852
  894loPI   C5A13291   5.005  13.635   8.629 -0.1649  0.0357  0.1369
  894loPI   C6A13292   5.409  13.972   8.620  0.0114 -0.1162 -0.1377
  894loPI   C1B13293   5.061  13.840   7.401  0.1745 -0.1812  0.2330
  894loPI   C2B13294   5.142  13.841   7.814  0.3537 -0.2177 -0.0484
  894loPI   C3B13295   5.059  14.017   8.314 -0.2015  0.0336 -0.2246
  894loPI   C4B13296   4.920  14.107   8.793  0.0182 -0.0703 -0.0657
  895loPI    C113297   4.669   8.574   5.823  0.4530  0.2150 -0.0196
  895loPI    C213298   4.393   8.857   5.763  0.1290 -0.0981 -0.0389
  895loPI    C313299   4.618   8.730   5.458  0.1866  0.0468 -0.0573
  895loPI   PO413300   4.571   8.397   5.989 -0.2588 -0.0549 -0.1020
  895loPI   GL113301   4.540   8.230   6.362 -0.1548 -0.0871  0.0994
  895loPI   GL213302   4.425   8.049   6.578  0.3505 -0.1045  0.2545
  895loPI   C1A13303   4.664   8.484   6.698  0.1290 -0.1649  0.1900
  895loPI   C2A13304   4.701   8.672   7.148 -0.0730 -0.0442  0.3097
  895loPI   C3A13305   4.616   8.601   7.578  0.2814  0.3132 -0.1043
  895loPI   C4A13306   4.708   8.572   8.041  0.2526  0.0991  0.1339
  895loPI   C5A13307   4.612   8.209   8.276  0.0078 -0.4174 -0.0145
  895loPI   C6A13308   4.631   7.925   8.602 -0.0479 -0.1216  0.1344
  895loPI   C1B13309   4.401   8.046   7.008  0.2482  0.2124  0.3884
  895loPI   C2B13310   4.424   8.076   7.426 -0.0636 -0.1710  0.1027
  895loPI   C3B13311   4.488   7.968   7.866 -0.1696  0.5073  0.1353
  895loPI   C4B13312   4.351   7.775   8.265  0.3004  0.3099 -0.0144
  896loPI    C113313  14.955  12.383   6.209 -0.0289 -0.1514 -0.1787
  896loPI    C213314  14.923  12.522   5.835 -0.0469 -0.1956 -0.1936
  896loPI    C313315  15.094  12.167   5.903  0.1125 -0.1102 -0.1442
  896loPI   PO413316  14.705  12.385   6.331  0.2409 -0.5908 -0.2655
  896loPI   GL113317  14.500  12.492   6.621  0.3024  0.1107  0.1206
  896loPI   GL213318  14.523  12.798   6.860  0.0732 -0.0398 -0.2278
  896loPI   C1A13319  14.379  12.142   7.048  0.0193 -0.1782  0.1490
  896loPI   C2A13320  14.402  12.267   7.422 -0.1968  0.2255  0.0212
  896loPI   C3A13321  14.436  12.218   7.941 -0.1100  0.2286 -0.0584
  896loPI   C4A13322  14.551  12.234   8.371 -0.0674 -0.0916  0.1244
  896loPI   C5A13323  14.747  12.084   8.745  0.0153  0.2717  0.1619
  896loPI   C6A13324  15.042  11.841   9.021  0.0141 -0.1071  0.0512
  896loPI   C1B13325  14.644  12.777   7.278 -0.1816  0.3879 -0.2272
  896loPI   C2B13326  14.557  12.695   7.679 -0.1032 -0.1471  0.0689
  896loPI   C3B13327  14.638  12.756   8.077  0.1014  0.1671  0.1842
  896loPI   C4B13328  14.642  12.751   8.465 -0.1793 -0.0321 -0.0899
  897loPI    C113329   9.126   5.847   6.382  0.0106  0.1360 -0.1216
  897loPI    C213330   9.366   6.159   6.456  0.2137  0.0125 -0.2476
  897loPI    C313331   9.213   6.107   6.090 -0.1965  0.2177 -0.1121
  897loPI   PO413332   9.034   5.693   6.483  0.0498 -0.1156  0.3267
  897loPI   GL113333   9.141   5.592   6.869 -0.0078  0.1291  0.0846
  897loPI   GL213334   8.850   5.461   7.019  0.0567 -0.0328  0.0066
  897loPI   C1A13335   9.067   5.918   7.201  0.2503  0.3177 -0.2536
  897loPI   C2A13336   9.076   5.995   7.602 -0.2044  0.2408  0.0159
  897loPI   C3A13337   9.457   6.093   7.854  0.0850  0.2377  0.0602
  897loPI   C4A13338   9.669   6.214   8.107 -0.3793 -0.0228  0.2994
  897loPI   C5A13339   9.891   6.602   8.234  0.0368  0.1869 -0.0369
  897loPI   C6A13340  10.190   6.854   8.110 -0.0132 -0.1984  0.0349
  897loPI   C1B13341   8.824   5.146   7.248  0.0133  0.0316  0.0781
  897loPI   C2B13342   8.813   5.085   7.664  0.2573  0.0338  0.2216
  897loPI   C3B13343   8.802   4.998   8.137  0.0667 -0.1290  0.0122
  897loPI   C4B13344   8.698   4.878   8.568 -0.0925 -0.0468 -0.2668
  898loPI    C113345   9.321  16.892   5.732 -0.1932  0.2190  0.1290
  898loPI    C213346   9.297  17.065   5.372 -0.1082  0.0944  0.0629
  898loPI    C313347   9.075  16.742   5.454  0.0385 -0.0118  0.0455
  898loPI   PO413348   9.280  17.094   5.966 -0.0919  0.3145  0.1062
  898loPI   GL113349   9.353  17.301   6.318  0.3117 -0.0389  0.1351
  898loPI   GL213350   9.608  17.173   6.449 -0.0117  0.1188  0.0812
  898loPI   C1A13351   9.310  17.356   6.805  0.0892  0.0058  0.0671
  898loPI   C2A13352   9.263  17.425   7.270  0.0009  0.2875  0.0108
  898loPI   C3A13353   9.320  17.420   7.650  0.0354 -0.2493  0.1672
  898loPI   C4A13354   9.389  17.333   8.085  0.0156  0.2835  0.0863
  898loPI   C5A13355   9.432  17.235   8.469  0.1663 -0.0322  0.2281
  898loPI   C6A13356   9.309  17.358   8.915 -0.1891  0.3327  0.0901
  898loPI   C1B13357   9.558  16.939   6.925  0.1367 -0.1078  0.4760
  898loPI   C2B13358   9.583  17.015   7.331 -0.1327  0.0970  0.2894
  898loPI   C3B13359   9.577  16.897   7.700  0.0561  0.0709 -0.0050
  898loPI   C4B13360   9.697  16.982   8.164  0.0780  0.1836 -0.0780
  899loPI    C113361   9.552   2.270   6.111 -0.0335  0.0310  0.1489
  899loPI    C213362   9.893   2.468   6.041 -0.0224  0.0543  0.2679
  899loPI    C313363   9.645   2.385   5.739  0.0541  0.1011  0.1920
  899loPI   PO413364   9.613   2.213   6.353 -0.0428 -0.0740 -0.0700
  899loPI   GL113365   9.316   2.085   6.720  0.3095 -0.2729 -0.1334
  899loPI   GL213366   9.281   1.771   6.598 -0.1069  0.0515  0.1274
  899loPI   C1A13367   9.244   1.932   7.103  0.3615 -0.2190  0.0527
  899loPI   C2A13368   9.207   1.868   7.518  0.1117 -0.1155 -0.0338
  899loPI   C3A13369   9.251   1.862   7.896 -0.1929  0.1594 -0.0239
  899loPI   C4A13370   9.297   1.837   8.297 -0.2208  0.0180  0.2315
  899loPI   C5A13371   9.011   1.600   8.629 -0.1218  0.1856 -0.1665
  899loPI   C6A13372   9.046   1.511   9.080  0.0771 -0.1778 -0.0199
  899loPI   C1B13373   9.186   1.448   6.836  0.0437 -0.1151  0.0151
  899loPI   C2B13374   9.102   1.430   7.332 -0.0403  0.0545 -0.2398
  899loPI   C3B13375   9.110   1.348   7.769  0.1723 -0.1133  0.2503
  899loPI   C4B13376   9.255   1.281   8.252 -0.0200  0.2329  0.2591
  900loPI    C113377   3.354  10.673   5.872  0.0190  0.2249  0.2282
  900loPI    C213378   3.244  10.949   5.604  0.0024  0.0877  0.0920
  900loPI    C313379   3.569  10.725   5.539 -0.0634 -0.0207  0.1346
  900loPI   PO413380   3.344  10.744   6.114 -0.0488  0.1743 -0.2848
  900loPI   GL113381   3.719  10.783   6.434  0.2639 -0.0686 -0.0781
  900loPI   GL213382   3.487  10.565   6.542  0.0061 -0.1971 -0.1649
  900loPI   C1A13383   3.898  10.659   6.872 -0.0547  0.0693  0.4392
  900loPI   C2A13384   3.861  10.666   7.298 -0.0802 -0.2859  0.0467
  900loPI   C3A13385   3.773  10.726   7.708  0.2998  0.0427  0.1481
  900loPI   C4A13386   3.721  10.747   8.232  0.0062 -0.2609 -0.1701
  900loPI   C5A13387   3.412  10.883   8.543 -0.1591 -0.0738  0.0787
  900loPI   C6A13388   3.180  10.828   8.851 -0.0899 -0.2020 -0.1494
  900loPI   C1B13389   3.368  10.553   6.943 -0.1197 -0.0246 -0.0031
  900loPI   C2B13390   3.298  10.548   7.473 -0.1282  0.3473 -0.0222
  900loPI   C3B13391   3.349  10.615   7.886 -0.0535 -0.0174 -0.0087
  900loPI   C4B13392   3.338  10.497   8.290  0.2135 -0.2710  0.4551
  901loPI    C113393  10.221   9.928   5.790 -0.0204 -0.0347 -0.0695
  901loPI    C213394  10.567  10.009   5.608  0.0889 -0.1617  0.0783
  901loPI    C313395  10.221  10.085   5.422  0.1949 -0.0329 -0.0701
  901loPI   PO413396  10.179  10.045   6.043  0.2334  0.2481  0.1228
  901loPI   GL113397  10.260  10.120   6.451  0.0404 -0.1137 -0.1323
  901loPI   GL213398  10.028  10.272   6.526  0.1335 -0.1044 -0.3641
  901loPI   C1A13399  10.259   9.982   6.856 -0.1945  0.5932  0.2207
  901loPI   C2A13400  10.325  10.088   7.293  0.3370  0.1145  0.1484
  901loPI   C3A13401  10.190  10.098   7.737  0.3336  0.3366  0.0826
  901loPI   C4A13402  10.189  10.126   8.235  0.1944 -0.0687  0.1167
  901loPI   C5A13403  10.265   9.996   8.624  0.0996  0.1700  0.1443
  901loPI   C6A13404  10.262  10.172   9.084 -0.0550 -0.3310 -0.0824
  901loPI   C1B13405   9.939  10.329   6.969  0.1064 -0.2312 -0.0592
  901loPI   C2B13406   9.892  10.331   7.381  0.0484 -0.2267 -0.4920
  901loPI   C3B13407   9.793  10.375   7.805 -0.1943  0.3719 -0.0899
  901loPI   C4B13408   9.841  10.457   8.236  0.1872  0.0243  0.1724
  902loPI    C113409   2.165   5.214   5.913  0.1069 -0.1657 -0.1224
  902loPI    C213410   2.468   5.205   6.173  0.0432 -0.3195 -0.0522
  902loPI    C313411   2.542   5.207   5.780  0.1474  0.2006 -0.0370
  902loPI   PO413412   2.019   5.401   5.968  0.0069  0.0588 -0.0548
  902loPI   GL113413   1.970   5.715   6.252 -0.1144 -0.3998  0.2585
  902loPI   GL213414   2.286   5.698   6.291  0.0951 -0.2149  0.3579
  902loPI   C1A13415   2.033   5.594   6.726  0.0279 -0.1653  0.0461
  902loPI   C2A13416   1.972   5.561   7.170  0.0832  0.1398 -0.0926
  902loPI   C3A13417   1.990   5.510   7.568 -0.1050  0.0509  0.2220
  902loPI   C4A13418   1.946   5.412   8.050  0.1223 -0.2107 -0.0905
  902loPI   C5A13419   1.735   5.066   8.485 -0.0751 -0.2443 -0.2870
  902loPI   C6A13420   1.593   4.911   8.823  0.2656  0.2348 -0.0260
  902loPI   C1B13421   2.461   5.755   6.660  0.1611  0.1461 -0.1424
  902loPI   C2B13422   2.469   5.786   7.082  0.0335  0.2740  0.0087
  902loPI   C3B13423   2.512   5.695   7.532  0.2199  0.0712  0.1428
  902loPI   C4B13424   2.416   5.512   7.866  0.0329 -0.0429  0.1722
  903loPI    C113425  14.198  13.500   6.094 -0.0718  0.0290  0.0640
  903loPI    C213426  14.135  13.887   6.172  0.2450  0.1007 -0.0195
  903loPI    C313427  14.348  13.781   5.851  0.1439 -0.1448 -0.0071
  903loPI   PO413428  14.233  13.402   6.328 -0.0704  0.3355 -0.1662
  903loPI   GL113429  14.150  13.244   6.701 -0.1521  0.0818  0.0820
  903loPI   GL213430  14.084  12.899   6.625  0.2458  0.0719  0.0924
  903loPI   C1A13431  14.172  13.169   7.076 -0.0050  0.0662 -0.3388
  903loPI   C2A13432  14.247  13.134   7.549  0.3122 -0.2307 -0.3814
  903loPI   C3A13433  14.206  13.099   7.949 -0.2534 -0.2076 -0.2396
  903loPI   C4A13434  14.277  13.175   8.407 -0.0147  0.0028 -0.2507
  903loPI   C5A13435  14.615  13.334   8.724 -0.0520  0.0053 -0.0955
  903loPI   C6A13436  14.920  13.319   9.178  0.1720 -0.2569  0.0402
  903loPI   C1B13437  14.155  12.686   7.067  0.1238 -0.3184  0.1497
  903loPI   C2B13438  14.021  12.614   7.589  0.0750  0.1965  0.0401
  903loPI   C3B13439  14.126  12.624   7.971 -0.1108  0.2104 -0.3420
  903loPI   C4B13440  14.185  12.650   8.403 -0.2581 -0.1756 -0.4447
  904loPI    C113441  16.039   0.196   5.778 -0.1305  0.0478 -0.2824
  904loPI    C213442  15.675   0.088   5.651 -0.0320 -0.3163 -0.2666
  904loPI    C313443  15.928   0.272   5.401 -0.1519 -0.2475 -0.3381
  904loPI   PO413444  16.073   0.120   5.934  0.1685  0.1601 -0.1131
  904loPI   GL113445  15.917   0.024   6.422  0.2648  0.0640  0.1617
  904loPI   GL213446  16.211  -0.007   6.481  0.0892 -0.1859 -0.4865
  904loPI   C1A13447  15.743  -0.099   6.796  0.1726 -0.0371 -0.1531
  904loPI   C2A13448  15.874  -0.195   7.195  0.3365 -0.4300  0.0003
  904loPI   C3A13449  15.873  -0.088   7.676  0.3313 -0.2497 -0.3239
  904loPI   C4A13450  15.872  -0.164   8.047  0.0155  0.1077  0.2970
  904loPI   C5A13451  15.916  -0.146   8.436  0.0655 -0.2051  0.2166
  904loPI   C6A13452  16.056  -0.210   8.771  0.1517  0.0939  0.2569
  904loPI   C1B13453  16.253   0.097   6.932  0.0856  0.0110  0.1287
  904loPI   C2B13454  16.310  -0.002   7.376 -0.0285 -0.0434  0.2441
  904loPI   C3B13455  16.428   0.006   7.803 -0.2511  0.0922  0.0756
  904loPI   C4B13456  16.359   0.004   8.290 -0.0445 -0.1310  0.1755
  905loPI    C113457  11.249  15.621   6.089  0.0949  0.0566 -0.1026
  905loPI    C213458  11.451  15.314   5.929 -0.0199 -0.1328  0.1097
  905loPI    C313459  11.067  15.372   5.834 -0.0044 -0.0676  0.0866
  905loPI   PO413460  11.447  15.576   6.363  0.5186 -0.2276 -0.0641
  905loPI   GL113461  11.479  15.262   6.686 -0.2730  0.0974 -0.2125
  905loPI   GL213462  11.794  15.450   6.732 -0.1171  0.2879 -0.0407
  905loPI   C1A13463  11.420  15.237   7.090  0.2575  0.0590  0.1882
  905loPI   C2A13464  11.489  15.232   7.468  0.2354 -0.0660 -0.0504
  905loPI   C3A13465  11.432  15.128   7.831 -0.1612 -0.2028  0.0231
  905loPI   C4A13466  11.533  15.137   8.331 -0.0919  0.2596 -0.2413
  905loPI   C5A13467  11.616  15.222   8.722 -0.0131  0.0255 -0.0500
  905loPI   C6A13468  11.468  15.258   9.157 -0.1024  0.1562  0.2192
  905loPI   C1B13469  11.889  15.442   7.137 -0.1362  0.0442  0.1460
  905loPI   C2B13470  11.965  15.321   7.411 -0.2479  0.0162  0.0815
  905loPI   C3B13471  11.989  15.262   7.769  0.2142  0.3171 -0.0825
  905loPI   C4B13472  12.059  15.281   8.238  0.3012 -0.2435  0.0065
  906loPI    C113473   2.155   6.559   5.570  0.1757  0.0932  0.2666
  906loPI    C213474   2.380   6.399   5.281  0.1317  0.0686  0.2458
  906loPI    C313475   1.990   6.463   5.218  0.0837 -0.1022  0.3616
  906loPI   PO413476   2.143   6.473   5.795 -0.2134  0.0936  0.0521
  906loPI   GL113477   2.242   6.347   6.221 -0.0138 -0.0051 -0.0478
  906loPI   GL213478   2.211   6.599   6.444 -0.1241 -0.1674  0.2850
  906loPI   C1A13479   2.068   6.128   6.560 -0.1950  0.1158  0.0254
  906loPI   C2A13480   2.076   6.115   6.975 -0.2067  0.0706 -0.1089
  906loPI   C3A13481   2.092   6.036   7.422  0.0187 -0.2488 -0.0876
  906loPI   C4A13482   2.154   5.929   7.828 -0.1190  0.0684 -0.2831
  906loPI   C5A13483   1.993   6.011   8.278  0.2782  0.1869 -0.1014
  906loPI   C6A13484   2.130   5.964   8.703 -0.0591 -0.0831 -0.0743
  906loPI   C1B13485   2.207   6.542   6.856 -0.2233 -0.1141 -0.1126
  906loPI   C2B13486   2.194   6.523   7.225 -0.0491 -0.3082 -0.3011
  906loPI   C3B13487   2.214   6.408   7.673 -0.0894  0.1027  0.2042
  906loPI   C4B13488   2.297   6.382   8.110  0.1051  0.0114 -0.0260
  907loPI    C113489  16.750  13.715   5.923 -0.0312 -0.3921  0.1408
  907loPI    C213490  16.491  13.799   5.631 -0.2723 -0.4906  0.3224
  907loPI    C313491  16.882  13.857   5.573 -0.3558 -0.0525  0.1495
  907loPI   PO413492  16.699  13.859   6.121  0.2001  0.1180 -0.2227
  907loPI   GL113493  16.875  13.982   6.582 -0.2315 -0.0471  0.2247
  907loPI   GL213494  16.693  13.886   6.808 -0.0858  0.0018  0.3255
  907loPI   C1A13495  17.211  13.935   6.968  0.0991 -0.1957 -0.0982
  907loPI   C2A13496  17.178  13.933   7.541  0.1618  0.1257  0.2739
  907loPI   C3A13497  17.290  14.000   7.977 -0.2471 -0.0122  0.2728
  907loPI   C4A13498  17.453  13.931   8.448  0.4275  0.0260 -0.0903
  907loPI   C5A13499  17.705  13.867   8.862 -0.3298 -0.1726  0.1072
  907loPI   C6A13500  17.700  13.570   9.249 -0.1179  0.0679  0.0933
  907loPI   C1B13501  16.751  13.825   7.193  0.0076  0.0036 -0.2141
  907loPI   C2B13502  16.722  13.803   7.585  0.3807 -0.2057  0.1798
  907loPI   C3B13503  16.794  13.826   7.983  0.0243  0.1372  0.0410
  907loPI   C4B13504  16.984  13.746   8.416  0.0852 -0.2404 -0.2784
  908loPI    C113505   0.833   2.417   5.911  0.0669  0.0730 -0.1275
  908loPI    C213506   0.910   2.752   5.706 -0.1425 -0.0007 -0.3299
  908loPI    C313507   1.013   2.396   5.555 -0.0644 -0.0390 -0.1881
  908loPI   PO413508   0.931   2.354   6.154  0.0747  0.0590  0.1398
  908loPI   GL113509   0.983   2.465   6.616 -0.2498  0.4373  0.0410
  908loPI   GL213510   0.794   2.244   6.615 -0.0011  0.3195 -0.2341
  908loPI   C1A13511   1.132   2.437   7.091  0.1315 -0.1519  0.2804
  908loPI   C2A13512   1.027   2.348   7.550 -0.0850  0.0388  0.2842
  908loPI   C3A13513   1.042   2.394   7.903 -0.1150 -0.0732  0.1155
  908loPI   C4A13514   1.122   2.372   8.323  0.1001 -0.2004 -0.2461
  908loPI   C5A13515   1.087   2.633   8.744  0.0475  0.0019 -0.0508
  908loPI   C6A13516   0.691   2.457   8.737  0.1237  0.0372  0.2535
  908loPI   C1B13517   0.685   2.258   7.040 -0.0255 -0.2849  0.0427
  908loPI   C2B13518   0.598   2.161   7.400  0.0140  0.2130 -0.0595
  908loPI   C3B13519   0.568   2.175   7.764 -0.1246 -0.1556 -0.1016
  908loPI   C4B13520   0.580   2.278   8.210  0.1191 -0.4059  0.0705
  909loPI    C113521   4.751   0.109   5.722  0.0306 -0.0033  0.0864
  909loPI    C213522   5.088   0.256   5.564  0.0241 -0.0349  0.0432
  909loPI    C313523   4.733   0.387   5.435  0.0181 -0.0955 -0.0027
  909loPI   PO413524   4.853   0.123   6.024  0.1070 -0.1836 -0.0425
  909loPI   GL113525   4.687   0.159   6.333 -0.3132  0.1512  0.4821
  909loPI   GL213526   4.759   0.450   6.463 -0.0986  0.0805  0.1753
  909loPI   C1A13527   4.607   0.039   6.779  0.1265 -0.2881 -0.1406
  909loPI   C2A13528   4.605   0.116   7.159 -0.0225  0.0829  0.0730
  909loPI   C3A13529   4.671   0.148   7.528 -0.3259 -0.1494 -0.1898
  909loPI   C4A13530   4.693   0.163   7.918  0.1782  0.1791 -0.2442
  909loPI   C5A13531   4.769   0.148   8.374 -0.1454  0.1859 -0.0658
  909loPI   C6A13532   4.881   0.223   8.813  0.2276  0.0139  0.3138
  909loPI   C1B13533   4.739   0.584   6.954 -0.3491  0.2741  0.2066
  909loPI   C2B13534   4.860   0.626   7.311 -0.0911 -0.0834 -0.1716
  909loPI   C3B13535   4.833   0.680   7.772 -0.0984  0.3416 -0.1631
  909loPI   C4B13536   4.792   0.587   8.181 -0.0530 -0.1896  0.2094
  910loPI    C113537   1.205  13.815   5.956  0.2633 -0.0240 -0.1461
  910loPI    C213538   1.155  14.021   5.617 -0.2139  0.1257  0.0060
  910loPI    C313539   1.051  13.635   5.633  0.2079  0.0003 -0.1334
  910loPI   PO413540   1.023  13.867   6.280 -0.0504  0.3263  0.0209
  910loPI   GL113541   0.892  13.896   6.751 -0.2531 -0.2047 -0.1380
  910loPI   GL213542   0.981  14.165   6.785 -0.3020 -0.1953 -0.1620
  910loPI   C1A13543   0.856  13.761   7.227 -0.0681 -0.1606 -0.1365
  910loPI   C2A13544   0.816  13.646   7.626  0.2531  0.0953  0.1736
  910loPI   C3A13545   0.924  13.667   8.042 -0.1094 -0.2615 -0.0142
  910loPI   C4A13546   0.835  13.732   8.517  0.2047  0.1806  0.1098
  910loPI   C5A13547   0.842  13.461   8.870  0.1531  0.0543 -0.0004
  910loPI   C6A13548   0.651  13.177   9.151 -0.1747 -0.0290  0.0478
  910loPI   C1B13549   0.944  14.232   7.180 -0.2879 -0.2849  0.2095
  910loPI   C2B13550   0.984  14.157   7.566 -0.0145 -0.1388  0.1065
  910loPI   C3B13551   0.975  14.191   7.993 -0.0630  0.2771 -0.0821
  910loPI   C4B13552   1.009  14.261   8.441  0.3426 -0.2066 -0.3051
  911loPI    C113553   4.954   2.040   5.810 -0.0374  0.0062  0.0809
  911loPI    C213554   5.089   2.382   5.967  0.1730 -0.0770  0.0859
  911loPI    C313555   5.037   2.350   5.571  0.1206 -0.0292  0.0887
  911loPI   PO413556   5.122   1.859   6.030 -0.0604 -0.1477 -0.1136
  911loPI   GL113557   5.095   1.708   6.467  0.1390  0.3427  0.2716
  911loPI   GL213558   4.883   2.031   6.454 -0.1634  0.0313 -0.0918
  911loPI   C1A13559   4.999   1.717   6.858 -0.0141  0.2684  0.1363
  911loPI   C2A13560   5.081   1.741   7.274  0.4300 -0.1335 -0.0410
  911loPI   C3A13561   5.116   1.649   7.694  0.1316  0.2155  0.0090
  911loPI   C4A13562   5.172   1.663   8.070  0.1014 -0.0885 -0.0477
  911loPI   C5A13563   5.179   1.654   8.437  0.1530  0.1434  0.4925
  911loPI   C6A13564   4.812   1.593   8.737 -0.4858  0.2542 -0.2757
  911loPI   C1B13565   5.185   2.236   6.757 -0.1466  0.1702  0.2381
  911loPI   C2B13566   5.263   2.152   7.143 -0.1053  0.1643 -0.2219
  911loPI   C3B13567   5.200   2.104   7.578 -0.1958 -0.0806 -0.0216
  911loPI   C4B13568   5.209   2.179   8.048 -0.0758 -0.0181 -0.1026
  912loPI    C113569  10.512  15.438   6.152  0.1087  0.0068 -0.0424
  912loPI    C213570  10.685  15.106   6.010 -0.1563 -0.1377 -0.0336
  912loPI    C313571  10.474  15.342   5.765  0.0144  0.0154 -0.0354
  912loPI   PO413572  10.793  15.544   6.265 -0.0131  0.2755 -0.3551
  912loPI   GL113573  11.027  15.491   6.625  0.0526 -0.0947  0.1219
  912loPI   GL213574  11.196  15.678   6.815 -0.1327  0.2067  0.1631
  912loPI   C1A13575  10.789  15.383   6.920 -0.1798 -0.0012 -0.1872
  912loPI   C2A13576  10.682  15.417   7.453 -0.2480 -0.1096 -0.0729
  912loPI   C3A13577  10.660  15.423   7.861  0.0586  0.1124  0.2842
  912loPI   C4A13578  10.664  15.297   8.367 -0.2053 -0.0522  0.1350
  912loPI   C5A13579  10.308  15.293   8.541 -0.4716  0.0983  0.1734
  912loPI   C6A13580  10.057  15.381   8.908  0.0572 -0.0451 -0.0295
  912loPI   C1B13581  11.212  15.658   7.256 -0.2811 -0.0559 -0.2410
  912loPI   C2B13582  11.171  15.590   7.669  0.0809  0.2990  0.3093
  912loPI   C3B13583  11.153  15.468   8.016 -0.0236 -0.3763  0.0389
  912loPI   C4B13584  11.182  15.454   8.428  0.0605 -0.0270  0.0941
  913loPI    C113585   6.831   3.700   6.249  0.1879 -0.1499  0.0109
  913loPI    C213586   6.691   3.330   6.190  0.1247 -0.1165 -0.0488
  913loPI    C313587   6.892   3.516   5.899 -0.0249 -0.0237 -0.0939
  913loPI   PO413588   6.737   3.874   6.340  0.0380 -0.4397  0.0411
  913loPI   GL113589   6.784   3.854   6.692 -0.2398  0.3416  0.0604
  913loPI   GL213590   6.694   4.013   6.880 -0.2191 -0.3377  0.0954
  913loPI   C1A13591   7.067   3.738   7.033 -0.0515 -0.0781 -0.0456
  913loPI   C2A13592   7.094   3.643   7.537  0.1624 -0.1121 -0.0746
  913loPI   C3A13593   7.023   3.617   7.967  0.0800  0.1402  0.0156
  913loPI   C4A13594   6.968   3.614   8.371  0.0371  0.2788  0.0514
  913loPI   C5A13595   6.614   3.658   8.557  0.0757  0.1035 -0.0584
  913loPI   C6A13596   6.205   3.529   8.739 -0.1804 -0.0569 -0.1642
  913loPI   C1B13597   6.609   3.997   7.287 -0.2057  0.3078  0.3160
  913loPI   C2B13598   6.558   3.979   7.666  0.0092  0.0763  0.2015
  913loPI   C3B13599   6.619   4.026   8.054 -0.1061  0.2804  0.2510
  913loPI   C4B13600   6.696   4.113   8.424  0.1329 -0.0518 -0.2639
  914loPI    C113601  14.286  11.213   5.856 -0.1754  0.0075 -0.1204
  914loPI    C213602  14.096  11.309   5.517 -0.0651  0.0554 -0.1690
  914loPI    C313603  14.460  11.143   5.502  0.0552  0.3049 -0.0694
  914loPI   PO413604  14.066  11.282   6.007 -0.2938 -0.0374 -0.3248
  914loPI   GL113605  14.151  11.457   6.367  0.1081  0.1552 -0.0998
  914loPI   GL213606  14.443  11.395   6.539  0.0064 -0.3304 -0.0192
  914loPI   C1A13607  14.080  11.076   6.687 -0.0285 -0.2816  0.0416
  914loPI   C2A13608  14.116  11.141   7.174 -0.0708 -0.1590  0.0197
  914loPI   C3A13609  14.177  11.177   7.635  0.0885 -0.0132  0.2163
  914loPI   C4A13610  14.158  11.152   8.071  0.1213  0.2171 -0.4475
  914loPI   C5A13611  13.920  11.127   8.489  0.1929  0.0800  0.0583
  914loPI   C6A13612  13.546  10.843   8.548 -0.1371  0.0478  0.1548
  914loPI   C1B13613  14.504  11.292   6.925  0.0304 -0.2133  0.2592
  914loPI   C2B13614  14.601  11.252   7.343 -0.0063  0.4096 -0.1081
  914loPI   C3B13615  14.608  11.335   7.816  0.2475 -0.2305  0.2998
  914loPI   C4B13616  14.581  11.246   8.270 -0.1284 -0.0215 -0.2006
  915loPI    C113617  11.754  13.746   6.108 -0.3648  0.2598 -0.0705
  915loPI    C213618  11.824  14.100   5.936 -0.1311  0.1820 -0.1389
  915loPI    C313619  11.691  13.794   5.716 -0.1368  0.1710 -0.1200
  915loPI   PO413620  11.623  13.758   6.281 -0.1143  0.6708 -0.2036
  915loPI   GL113621  11.619  13.797   6.710  0.0765  0.4503  0.1091
  915loPI   GL213622  11.308  13.687   6.694 -0.1287 -0.1456  0.4119
  915loPI   C1A13623  11.713  13.844   7.166  0.0053  0.1271  0.0169
  915loPI   C2A13624  11.658  13.791   7.485 -0.0779  0.0502 -0.1037
  915loPI   C3A13625  11.593  13.694   7.936  0.0998 -0.0221  0.0003
  915loPI   C4A13626  11.704  13.674   8.288 -0.3201 -0.0805  0.3280
  915loPI   C5A13627  11.825  13.580   8.615 -0.0082  0.0164 -0.0513
  915loPI   C6A13628  12.132  13.415   8.906  0.2028  0.0058  0.6293
  915loPI   C1B13629  11.076  13.617   7.035 -0.0639  0.3282 -0.0059
  915loPI   C2B13630  11.146  13.683   7.431  0.6462 -0.1889  0.0190
  915loPI   C3B13631  11.112  13.671   7.856 -0.2027  0.1114 -0.2023
  915loPI   C4B13632  11.228  13.558   8.354  0.0652 -0.4251  0.0233
  916loPI    C113633   9.760  14.116   5.857 -0.2805  0.0428 -0.0781
  916loPI    C213634   9.513  13.879   5.651 -0.0821 -0.1113 -0.1422
  916loPI    C313635   9.878  13.749   5.750 -0.0691  0.0701  0.0548
  916loPI   PO413636   9.577  14.170   6.062 -0.6826 -0.0002 -0.0818
  916loPI   GL113637   9.481  14.166   6.508 -0.1007  0.0651  0.0781
  916loPI   GL213638   9.520  13.823   6.545 -0.1050 -0.0668  0.1832
  916loPI   C1A13639   9.605  14.463   6.734 -0.1087  0.1332 -0.0111
  916loPI   C2A13640   9.502  14.567   7.089 -0.0027  0.0386 -0.3558
  916loPI   C3A13641   9.526  14.555   7.502 -0.1063  0.0164  0.1285
  916loPI   C4A13642   9.554  14.626   7.945 -0.4741  0.0927 -0.2121
  916loPI   C5A13643   9.546  14.645   8.440 -0.1315 -0.2932 -0.0806
  916loPI   C6A13644   9.555  14.451   8.933 -0.1159 -0.2724 -0.3352
  916loPI   C1B13645   9.369  14.027   6.985 -0.1353  0.0600  0.0642
  916loPI   C2B13646   9.402  14.053   7.446 -0.0854 -0.0419 -0.1383
  916loPI   C3B13647   9.427  14.105   7.900  0.0084 -0.1362 -0.0578
  916loPI   C4B13648   9.391  14.142   8.338  0.4731 -0.1102 -0.3429
  917loPI    C113649   0.230  15.297   6.205  0.0875  0.3382  0.0365
  917loPI    C213650   0.214  15.443   5.833  0.2861 -0.2839 -0.2302
  917loPI    C313651   0.565  15.332   5.990  0.2165  0.0562  0.1846
  917loPI   PO413652  -0.040  15.371   6.332 -0.3434  0.2139  0.1875
  917loPI   GL113653  -0.231  15.694   6.496  0.0166  0.1260  0.0288
  917loPI   GL213654  -0.256  15.365   6.772 -0.0591  0.0110 -0.0202
  917loPI   C1A13655  -0.053  15.888   6.891 -0.0358  0.2270  0.2268
  917loPI   C2A13656  -0.091  15.850   7.349 -0.1306 -0.0818 -0.1351
  917loPI   C3A13657  -0.000  15.762   7.813  0.0751  0.2356 -0.3202
  917loPI   C4A13658   0.073  15.820   8.181  0.0038 -0.0616 -0.0320
  917loPI   C5A13659  -0.085  15.826   8.667  0.0970 -0.4082 -0.0709
  917loPI   C6A13660  -0.411  15.974   9.017  0.1003  0.2883  0.2200
  917loPI   C1B13661  -0.160  15.283   7.126 -0.0192  0.1322  0.1736
  917loPI   C2B13662  -0.176  15.198   7.564  0.1807 -0.0653  0.1503
  917loPI   C3B13663  -0.061  15.332   7.961  0.2982  0.1661  0.1770
  917loPI   C4B13664  -0.009  15.351   8.431 -0.0477  0.0318 -0.3726
  918loPI    C113665   8.179   0.787   5.826 -0.0299 -0.1350  0.0512
  918loPI    C213666   8.302   1.161   5.892 -0.2989 -0.0289 -0.0369
  918loPI    C313667   8.196   1.048   5.523 -0.1865 -0.2028 -0.0171
  918loPI   PO413668   8.241   0.709   6.105  0.5053  0.2851  0.0279
  918loPI   GL113669   8.054   0.766   6.476  0.1793  0.0116  0.0609
  918loPI   GL213670   8.282   0.520   6.530  0.1027  0.0690  0.0135
  918loPI   C1A13671   8.035   0.731   6.918 -0.1869 -0.0908  0.2287
  918loPI   C2A13672   7.995   0.642   7.349 -0.2149 -0.1364  0.0754
  918loPI   C3A13673   8.053   0.543   7.811 -0.0250 -0.0058  0.2547
  918loPI   C4A13674   8.076   0.606   8.287 -0.3495  0.1015  0.2449
  918loPI   C5A13675   8.074   0.726   8.655 -0.2782  0.0147  0.1160
  918loPI   C6A13676   7.832   0.677   8.959  0.1766  0.1133 -0.1659
  918loPI   C1B13677   8.364   0.350   6.981 -0.0352 -0.0617  0.1806
  918loPI   C2B13678   8.360   0.233   7.374  0.2519 -0.1108 -0.1107
  918loPI   C3B13679   8.465   0.248   7.822  0.1509 -0.2317  0.0609
  918loPI   C4B13680   8.451   0.186   8.195 -0.1562 -0.2420 -0.2173
  919loPI    C113681   5.044  11.279   5.812 -0.3770  0.0533 -0.3736
  919loPI    C213682   5.366  11.514   5.848 -0.2307 -0.2125  0.1620
  919loPI    C313683   5.232  11.412   5.485  0.3031 -0.1197 -0.0714
  919loPI   PO413684   4.985  11.255   6.108 -0.0018 -0.0393  0.3704
  919loPI   GL113685   4.792  11.516   6.479 -0.2528 -0.1181  0.0116
  919loPI   GL213686   5.034  11.328   6.579  0.2150 -0.0358 -0.1358
  919loPI   C1A13687   4.531  11.317   6.762 -0.0763  0.3993 -0.1025
  919loPI   C2A13688   4.513  11.322   7.212  0.0042 -0.0861 -0.1483
  919loPI   C3A13689   4.426  11.396   7.657 -0.1227 -0.1505 -0.3223
  919loPI   C4A13690   4.475  11.367   8.145 -0.2611  0.1045  0.0040
  919loPI   C5A13691   4.513  11.071   8.529  0.0005  0.4556 -0.1661
  919loPI   C6A13692   4.168  10.952   8.862  0.2417  0.0715 -0.1115
  919loPI   C1B13693   4.949  11.385   7.060 -0.0747 -0.0377 -0.0547
  919loPI   C2B13694   4.907  11.380   7.513  0.1307 -0.0470 -0.0065
  919loPI   C3B13695   4.997  11.424   7.893 -0.0270  0.3163 -0.1748
  919loPI   C4B13696   4.918  11.567   8.449  0.0372  0.1537 -0.0260
  920loPI    C113697   8.515   5.099   6.089 -0.0798 -0.1053  0.0413
  920loPI    C213698   8.698   5.428   6.222 -0.3444  0.0498  0.0297
  920loPI    C313699   8.859   5.217   5.923 -0.1195  0.1078  0.1075
  920loPI   PO413700   8.463   5.010   6.410  0.0556  0.0132  0.0530
  920loPI   GL113701   8.394   4.674   6.740  0.2347 -0.1440  0.3117
  920loPI   GL213702   8.426   4.961   6.909  0.1153  0.1054  0.1418
  920loPI   C1A13703   8.251   4.543   7.127  0.0372 -0.0697  0.2546
  920loPI   C2A13704   8.222   4.418   7.615 -0.0111 -0.1307 -0.1691
  920loPI   C3A13705   8.122   4.309   8.065  0.3634 -0.0230  0.1710
  920loPI   C4A13706   8.111   4.343   8.459  0.0557  0.0038  0.2646
  920loPI   C5A13707   7.816   4.588   8.748  0.1558  0.0616  0.1232
  920loPI   C6A13708   7.524   4.833   9.008  0.0592 -0.2685  0.0030
  920loPI   C1B13709   8.271   4.991   7.368  0.1145  0.0215  0.0757
  920loPI   C2B13710   8.255   4.909   7.750  0.0464  0.0678 -0.1311
  920loPI   C3B13711   8.261   4.827   8.177 -0.1379 -0.3393 -0.2772
  920loPI   C4B13712   8.244   4.798   8.617  0.0631 -0.3356 -0.3688
  921loPI    C113713   8.315  16.650   5.817  0.2674  0.0054 -0.0348
  921loPI    C213714   8.018  16.871   5.666  0.0186 -0.2368  0.0907
  921loPI    C313715   8.222  16.622   5.429  0.2257  0.0397 -0.0273
  921loPI   PO413716   8.218  16.653   6.104 -0.1795  0.1040  0.0549
  921loPI   GL113717   7.999  16.644   6.475  0.1459  0.2022 -0.1169
  921loPI   GL213718   7.834  16.379   6.383  0.0605  0.2017  0.0199
  921loPI   C1A13719   8.230  16.632   6.897 -0.2169 -0.5145 -0.0049
  921loPI   C2A13720   8.190  16.567   7.380 -0.1362  0.2801 -0.1369
  921loPI   C3A13721   8.132  16.615   7.777 -0.2420  0.1662 -0.0357
  921loPI   C4A13722   8.118  16.601   8.172 -0.4194  0.3012 -0.2019
  921loPI   C5A13723   8.242  16.702   8.637  0.2356  0.3614  0.1401
  921loPI   C6A13724   8.341  16.553   9.087 -0.0893  0.1471 -0.0762
  921loPI   C1B13725   7.823  16.358   6.839  0.0993 -0.5592  0.4439
  921loPI   C2B13726   7.712  16.437   7.231  0.0747  0.1890  0.3604
  921loPI   C3B13727   7.630  16.468   7.674 -0.0387 -0.0789 -0.0776
  921loPI   C4B13728   7.625  16.433   8.103 -0.1270 -0.0400  0.0681
  922loPI    C113729   0.397  16.553   5.976 -0.0971 -0.0594 -0.2281
  922loPI    C213730   0.146  16.372   6.230  0.0006  0.0397 -0.0595
  922loPI    C313731   0.219  16.210   5.872 -0.0768 -0.1428  0.0064
  922loPI   PO413732   0.639  16.626   6.209  0.0247  0.1447  0.2058
  922loPI   GL113733   0.521  16.440   6.549  0.0092  0.0087 -0.2525
  922loPI   GL213734   0.455  16.160   6.584 -0.0509  0.6065 -0.1549
  922loPI   C1A13735   0.620  16.495   6.939 -0.0793 -0.0551 -0.0298
  922loPI   C2A13736   0.665  16.395   7.309  0.3614 -0.0771  0.1185
  922loPI   C3A13737   0.645  16.378   7.784 -0.3417  0.2784 -0.0664
  922loPI   C4A13738   0.745  16.517   8.173 -0.1307  0.2968 -0.2171
  922loPI   C5A13739   0.796  16.417   8.547 -0.0790  0.0985  0.3179
  922loPI   C6A13740   0.665  16.168   9.008 -0.1673  0.3578  0.0858
  922loPI   C1B13741   0.455  16.025   6.965  0.0298 -0.3659  0.1367
  922loPI   C2B13742   0.473  15.945   7.380 -0.0422  0.1043 -0.0059
  922loPI   C3B13743   0.487  15.924   7.794 -0.0047 -0.0540  0.0548
  922loPI   C4B13744   0.589  15.953   8.150  0.4084  0.2324 -0.0932
  923loPI    C113745   1.056   6.569   5.614  0.0836 -0.3148  0.0771
  923loPI    C213746   0.764   6.298   5.578 -0.1874 -0.0114 -0.0555
  923loPI    C313747   0.833   6.558   5.283  0.0666  0.0695  0.0720
  923loPI   PO413748   1.250   6.406   5.772  0.0068  0.1876  0.0254
  923loPI   GL113749   1.197   6.399   6.228  0.1809  0.0148  0.1284
  923loPI   GL213750   1.576   6.510   6.254  0.0272 -0.0124  0.1776
  923loPI   C1A13751   1.119   6.292   6.658  0.2333  0.0802 -0.0214
  923loPI   C2A13752   1.195   6.304   7.093  0.0344  0.1040 -0.0612
  923loPI   C3A13753   1.165   6.296   7.464  0.3271  0.0426 -0.3045
  923loPI   C4A13754   1.204   6.226   7.921 -0.2609 -0.0553  0.0454
  923loPI   C5A13755   1.513   6.129   8.384 -0.1582  0.0274 -0.2299
  923loPI   C6A13756   1.609   5.982   8.786 -0.0968  0.1203  0.1488
  923loPI   C1B13757   1.729   6.478   6.580  0.0656 -0.0726  0.1267
  923loPI   C2B13758   1.651   6.418   6.974 -0.3866  0.0819  0.1731
  923loPI   C3B13759   1.703   6.289   7.511  0.0956 -0.1420 -0.2600
  923loPI   C4B13760   1.721   6.335   7.885  0.1758  0.0692  0.1389
  924loPI    C113761  16.623   3.140   5.774 -0.2647  0.1163 -0.0228
  924loPI    C213762  16.566   3.526   5.860  0.1708  0.1608  0.0915
  924loPI    C313763  16.700   3.420   5.499  0.1475  0.1231  0.0938
  924loPI   PO413764  16.715   3.004   5.983  0.0503  0.1845  0.0763
  924loPI   GL113765  16.811   2.854   6.376  0.0858 -0.3082 -0.1204
  924loPI   GL213766  16.459   2.870   6.472 -0.0338  0.1465 -0.0967
  924loPI   C1A13767  16.836   2.567   6.739 -0.4616  0.1005 -0.2304
  924loPI   C2A13768  16.897   2.656   7.260 -0.4174  0.1051  0.0550
  924loPI   C3A13769  17.003   2.704   7.717 -0.1917 -0.0677  0.0045
  924loPI   C4A13770  17.015   2.709   8.158  0.1032  0.0761  0.0009
  924loPI   C5A13771  17.116   2.823   8.531 -0.0773 -0.0858  0.0597
  924loPI   C6A13772  17.010   3.188   8.808 -0.2606  0.1094  0.1866
  924loPI   C1B13773  16.607   3.003   6.921  0.0781 -0.1827 -0.4279
  924loPI   C2B13774  16.615   3.036   7.352 -0.1262 -0.3529  0.0812
  924loPI   C3B13775  16.622   3.003   7.825 -0.0572 -0.0661  0.2190
  924loPI   C4B13776  16.730   3.096   8.272  0.0829 -0.0725 -0.2716
  925loPI    C113777  14.079   5.081   6.019 -0.1777  0.0863 -0.0915
  925loPI    C213778  14.337   4.903   5.771  0.1079  0.4626 -0.0745
  925loPI    C313779  13.973   5.005   5.641  0.0706  0.1962 -0.1861
  925loPI   PO413780  14.188   5.204   6.210 -0.0353  0.1107 -0.3245
  925loPI   GL113781  14.288   5.075   6.639  0.2962  0.3930 -0.0876
  925loPI   GL213782  14.025   5.021   6.799  0.0936  0.0703  0.0422
  925loPI   C1A13783  14.537   5.229   7.007  0.0908  0.3152 -0.1085
  925loPI   C2A13784  14.546   5.264   7.482  0.2260 -0.1243  0.2682
  925loPI   C3A13785  14.493   5.271   7.950 -0.2759 -0.2151  0.3456
  925loPI   C4A13786  14.346   5.222   8.502  0.2769 -0.0724 -0.5361
  925loPI   C5A13787  13.981   5.322   8.803  0.2715  0.0471  0.1334
  925loPI   C6A13788  13.785   5.541   8.930 -0.1530 -0.2574 -0.0068
  925loPI   C1B13789  14.224   4.847   7.080  0.4225  0.1266  0.2411
  925loPI   C2B13790  14.379   4.763   7.407 -0.0881 -0.0323 -0.0745
  925loPI   C3B13791  14.407   4.734   7.877  0.0664  0.0542 -0.0709
  925loPI   C4B13792  14.296   4.754   8.313  0.3936 -0.0562 -0.1775
  926loPI    C113793   1.088   9.020   6.089 -0.1672  0.1959 -0.1121
  926loPI    C213794   1.251   9.051   5.726 -0.0087  0.0415 -0.0555
  926loPI    C313795   0.853   9.047   5.766 -0.0287  0.2852 -0.2064
  926loPI   PO413796   1.286   8.875   6.225 -0.0350  0.0754 -0.2132
  926loPI   GL113797   1.575   9.034   6.597  0.2005  0.0167  0.1536
  926loPI   GL213798   1.643   8.720   6.609 -0.0921 -0.2756  0.1151
  926loPI   C1A13799   1.617   9.140   7.083  0.1727 -0.1240 -0.0807
  926loPI   C2A13800   1.558   9.206   7.476  0.0194 -0.0448  0.1423
  926loPI   C3A13801   1.504   9.118   7.942  0.1486  0.0645 -0.1422
  926loPI   C4A13802   1.421   9.190   8.405 -0.0563 -0.2426 -0.0453
  926loPI   C5A13803   1.519   9.519   8.765  0.0309 -0.1130  0.0834
  926loPI   C6A13804   1.706   9.790   9.033  0.1623  0.0880  0.0066
  926loPI   C1B13805   1.557   8.635   6.927 -0.1966  0.3520  0.1033
  926loPI   C2B13806   1.650   8.727   7.370 -0.0700  0.1811  0.0489
  926loPI   C3B13807   1.883   8.802   7.725 -0.0396 -0.0513  0.1870
  926loPI   C4B13808   1.816   8.634   8.075  0.1328 -0.0491 -0.1294
  927loPI    C113809  14.948   5.377   6.178  0.0237  0.1268  0.1240
  927loPI    C213810  14.613   5.299   5.974  0.1502 -0.0380 -0.0249
  927loPI    C313811  14.592   5.462   6.339 -0.0911 -0.0475 -0.0324
  927loPI   PO413812  15.086   5.157   6.189 -0.2832 -0.1255  0.0200
  927loPI   GL113813  15.200   4.833   6.415  0.2610  0.0045  0.0206
  927loPI   GL213814  15.029   4.577   6.426 -0.3223  0.0321 -0.0911
  927loPI   C1A13815  15.415   4.909   6.859 -0.0410  0.1680 -0.2055
  927loPI   C2A13816  15.318   4.932   7.340  0.3073 -0.1992 -0.1726
  927loPI   C3A13817  15.343   5.041   7.786 -0.2240  0.1099  0.1739
  927loPI   C4A13818  15.290   4.958   8.141  0.4216  0.3195  0.0195
  927loPI   C5A13819  15.167   5.122   8.568 -0.0138 -0.1068  0.0572
  927loPI   C6A13820  15.065   5.472   8.715  0.0155  0.2819 -0.0190
  927loPI   C1B13821  15.096   4.492   6.812 -0.1100  0.0026  0.2356
  927loPI   C2B13822  15.210   4.477   7.162 -0.1014 -0.0277 -0.0678
  927loPI   C3B13823  15.151   4.506   7.589 -0.0604  0.2979 -0.1261
  927loPI   C4B13824  15.322   4.496   8.048 -0.1762 -0.0808  0.0021
  928loPI    C113825  14.823  17.268   6.054 -0.1083 -0.0245  0.4931
  928loPI    C213826  14.742  16.901   5.916  0.2034  0.0792  0.0106
  928loPI    C313827  14.498  17.206   5.828 -0.0043  0.0100  0.3323
  928loPI   PO413828  14.875  17.308   6.311 -0.0511  0.0014  0.0426
  928loPI   GL113829  14.796  17.643   6.606  0.0948 -0.2253 -0.0440
  928loPI   GL213830  15.066  17.831   6.589 -0.1963  0.0846 -0.0425
  928loPI   C1A13831  14.903  17.434   6.970 -0.2190  0.1004 -0.1550
  928loPI   C2A13832  14.975  17.494   7.395 -0.0294  0.0175 -0.0203
  928loPI   C3A13833  15.089  17.512   7.817 -0.2309  0.0347  0.4438
  928loPI   C4A13834  14.992  17.402   8.221  0.0982 -0.1244 -0.0119
  928loPI   C5A13835  15.128  17.491   8.608 -0.0803  0.0265  0.2675
  928loPI   C6A13836  14.832  17.571   9.025  0.0490 -0.4809  0.4361
  928loPI   C1B13837  15.007  17.925   7.092 -0.4465 -0.1419 -0.0212
  928loPI   C2B13838  15.129  17.950   7.478  0.2735 -0.0545  0.0156
  928loPI   C3B13839  15.140  18.036   7.879  0.2658  0.1367  0.1481
  928loPI   C4B13840  15.160  17.933   8.229  0.0201  0.1397 -0.2437
  929loPI    C113841  16.099  15.660   5.894  0.1303 -0.3582 -0.1561
  929loPI    C213842  16.495  15.640   5.846  0.1716  0.2018 -0.1195
  929loPI    C313843  16.263  15.761   5.543  0.0408  0.0184 -0.0942
  929loPI   PO413844  16.050  15.688   6.079  0.1723  0.2488  0.0876
  929loPI   GL113845  15.931  15.847   6.458  0.0687  0.3156 -0.0261
  929loPI   GL213846  16.292  15.714   6.509 -0.1175 -0.0775 -0.1828
  929loPI   C1A13847  15.884  15.927   6.853  0.2210 -0.0448 -0.2044
  929loPI   C2A13848  15.943  15.971   7.284  0.0679  0.2503  0.0765
  929loPI   C3A13849  15.868  15.918   7.649 -0.5886 -0.3463 -0.2677
  929loPI   C4A13850  16.047  15.848   8.048 -0.0399 -0.1927 -0.2521
  929loPI   C5A13851  16.141  15.849   8.477 -0.0577  0.1031 -0.0239
  929loPI   C6A13852  16.053  15.711   8.821 -0.2513 -0.1107  0.2526
  929loPI   C1B13853  16.186  15.623   6.970 -0.1095  0.2133 -0.0698
  929loPI   C2B13854  16.277  15.493   7.362  0.3200  0.1807 -0.2102
  929loPI   C3B13855  16.338  15.511   7.764  0.3466  0.1450  0.0602
  929loPI   C4B13856  16.370  15.459   8.147  0.0391 -0.1130 -0.0730
  930loPI    C113857   7.669  16.626   5.921  0.0604 -0.0054  0.1293
  930loPI    C213858   7.590  16.518   5.544 -0.0297  0.0415  0.1347
  930loPI    C313859   7.880  16.334   5.748 -0.0895 -0.0953  0.0969
  930loPI   PO413860   7.489  16.769   6.198  0.2154  0.1538  0.0798
  930loPI   GL113861   7.448  16.587   6.569 -0.1430 -0.2403 -0.0886
  930loPI   GL213862   7.121  16.654   6.599 -0.2739  0.0318  0.1528
  930loPI   C1A13863   7.366  16.804   7.055  0.1257 -0.2427  0.1469
  930loPI   C2A13864   7.268  16.854   7.557 -0.1089  0.0050  0.1814
  930loPI   C3A13865   7.343  16.865   7.989  0.2449  0.0123  0.0637
  930loPI   C4A13866   7.256  16.778   8.431  0.0356 -0.4005 -0.0168
  930loPI   C5A13867   7.565  16.572   8.835  0.2283  0.1473 -0.1568
  930loPI   C6A13868   7.857  16.620   9.122 -0.1432  0.3010 -0.1126
  930loPI   C1B13869   6.811  16.613   6.980 -0.2005 -0.0148  0.1409
  930loPI   C2B13870   6.831  16.710   7.345 -0.0009  0.1168  0.1812
  930loPI   C3B13871   6.842  16.702   7.755  0.0869  0.0109 -0.3206
  930loPI   C4B13872   6.755  16.709   8.182  0.2028  0.1364 -0.2095
  931loPI    C113873  11.149   5.792   6.544 -0.1821 -0.2783  0.1661
  931loPI    C213874  10.756   5.820   6.476 -0.1405  0.1770  0.0866
  931loPI    C313875  11.009   5.775   6.170 -0.1156  0.0793  0.1213
  931loPI   PO413876  11.210   6.019   6.667 -0.0912  0.0279 -0.1567
  931loPI   GL113877  11.291   6.179   7.096 -0.0396 -0.0820  0.4885
  931loPI   GL213878  11.627   5.993   7.103 -0.0200  0.1094 -0.1625
  931loPI   C1A13879  11.266   6.403   7.490 -0.0397 -0.1292 -0.1856
  931loPI   C2A13880  11.235   6.521   7.938  0.2507  0.0395 -0.0020
  931loPI   C3A13881  10.984   6.659   8.389 -0.1229 -0.1119  0.1061
  931loPI   C4A13882  11.015   6.947   8.673 -0.2276 -0.4770  0.1041
  931loPI   C5A13883  10.769   7.277   8.768 -0.1165  0.2024 -0.3652
  931loPI   C6A13884  10.449   7.394   8.927 -0.1479 -0.3032  0.1369
  931loPI   C1B13885  11.686   6.132   7.410 -0.0409  0.0099 -0.0008
  931loPI   C2B13886  11.811   6.280   7.792 -0.1021  0.1188 -0.1255
  931loPI   C3B13887  11.984   6.407   8.169 -0.1321  0.1712 -0.1023
  931loPI   C4B13888  12.358   6.268   8.511 -0.4209  0.0229  0.0265
  932loPI    C113889  16.308  11.916   6.149 -0.0396 -0.1454  0.0765
  932loPI    C213890  16.322  12.282   5.988 -0.1903 -0.0657  0.2415
  932loPI    C313891  16.505  11.976   5.805  0.0460  0.1160  0.1693
  932loPI   PO413892  16.341  11.983   6.468 -0.0855  0.3176  0.0551
  932loPI   GL113893  16.044  12.147   6.790  0.0392 -0.0705 -0.0256
  932loPI   GL213894  15.830  12.248   6.683  0.1260 -0.2843 -0.0570
  932loPI   C1A13895  15.862  12.201   7.173 -0.2603 -0.3221 -0.2107
  932loPI   C2A13896  15.843  12.128   7.612  0.0018  0.1025  0.0851
  932loPI   C3A13897  15.867  12.086   8.103 -0.0269  0.0964  0.0803
  932loPI   C4A13898  15.848  12.232   8.533  0.0178 -0.0335 -0.0479
  932loPI   C5A13899  16.132  12.065   8.833 -0.0668  0.1391  0.1450
  932loPI   C6A13900  16.480  11.898   9.073  0.0664  0.0838  0.0755
  932loPI   C1B13901  15.569  12.447   6.883  0.0937  0.0912 -0.0901
  932loPI   C2B13902  15.594  12.510   7.409 -0.2843  0.1649 -0.1127
  932loPI   C3B13903  15.571  12.458   7.849 -0.2067 -0.0209  0.1765
  932loPI   C4B13904  15.509  12.397   8.243  0.1835 -0.0384  0.1042
  933loPI    C113905  10.094   3.004   6.073  0.1108 -0.1542  0.0456
  933loPI    C213906  10.283   2.996   5.721 -0.0647  0.0610 -0.0562
  933loPI    C313907   9.903   2.873   5.747  0.0296 -0.2022  0.1120
  933loPI   PO413908  10.331   2.853   6.299  0.0854  0.3291 -0.3152
  933loPI   GL113909  10.201   2.961   6.730 -0.1400  0.2423  0.0936
  933loPI   GL213910  10.343   2.662   6.759  0.1752 -0.0896 -0.2573
  933loPI   C1A13911   9.979   2.929   7.053 -0.0587  0.2112 -0.0670
  933loPI   C2A13912   9.975   2.844   7.500  0.1939  0.0299  0.1129
  933loPI   C3A13913   9.947   2.671   7.883 -0.2330 -0.1493  0.2374
  933loPI   C4A13914   9.938   2.491   8.309  0.0793  0.3290  0.1469
  933loPI   C5A13915  10.058   2.408   8.757  0.2640 -0.1169 -0.3165
  933loPI   C6A13916  10.203   2.793   9.051 -0.0132  0.0863 -0.1492
  933loPI   C1B13917  10.436   2.763   7.219 -0.0300 -0.0181 -0.1219
  933loPI   C2B13918  10.467   2.705   7.701 -0.0137 -0.2905 -0.1934
  933loPI   C3B13919  10.377   2.631   8.116 -0.4239  0.2559 -0.1577
  933loPI   C4B13920  10.400   2.652   8.545  0.1480 -0.2389  0.0162
  934loPI    C113921   6.318   0.762   5.699 -0.2180 -0.0360 -0.3476
  934loPI    C213922   6.621   0.966   5.535 -0.0451  0.0097  0.0195
  934loPI    C313923   6.250   1.008   5.391  0.1007  0.0483 -0.3545
  934loPI   PO413924   6.322   0.776   5.963 -0.3764  0.1059  0.0681
  934loPI   GL113925   6.100   0.996   6.282 -0.1089  0.4030 -0.0854
  934loPI   GL213926   6.161   0.699   6.461  0.2121  0.0751 -0.1758
  934loPI   C1A13927   6.182   1.087   6.716 -0.0112  0.2045  0.2649
  934loPI   C2A13928   6.324   1.024   7.134  0.0407 -0.1102  0.0641
  934loPI   C3A13929   6.379   1.033   7.525  0.4059 -0.2996  0.0123
  934loPI   C4A13930   6.282   1.007   7.943 -0.2425 -0.1384 -0.0258
  934loPI   C5A13931   6.315   1.054   8.313 -0.2167  0.0394 -0.0244
  934loPI   C6A13932   6.076   1.045   8.740  0.0630 -0.1608 -0.0770
  934loPI   C1B13933   6.184   0.562   6.900 -0.1691 -0.2419  0.1405
  934loPI   C2B13934   6.193   0.551   7.324 -0.0002 -0.3103 -0.2737
  934loPI   C3B13935   6.165   0.554   7.789 -0.1972 -0.1966 -0.0212
  934loPI   C4B13936   6.141   0.545   8.207 -0.1959  0.0638 -0.0341
  935loPI    C113937   3.859  13.965   6.065 -0.1841 -0.1787  0.1037
  935loPI    C213938   4.090  14.214   5.854 -0.2970 -0.0223  0.1632
  935loPI    C313939   4.020  13.844   5.719 -0.2158  0.0135  0.0207
  935loPI   PO413940   3.922  13.962   6.273  0.0535 -0.1507 -0.0101
  935loPI   GL113941   3.698  13.913   6.678 -0.0851 -0.1447  0.2097
  935loPI   GL213942   3.477  14.006   6.719 -0.1633  0.2956 -0.1497
  935loPI   C1A13943   3.778  13.840   7.090  0.0371  0.2404  0.2170
  935loPI   C2A13944   3.732  13.863   7.485 -0.1956 -0.3187  0.0540
  935loPI   C3A13945   3.771  13.932   7.857 -0.0384  0.3788  0.2015
  935loPI   C4A13946   3.657  13.968   8.246  0.1190  0.0179  0.2113
  935loPI   C5A13947   3.872  14.115   8.619 -0.1725 -0.0207  0.1472
  935loPI   C6A13948   4.248  14.261   8.812  0.2090  0.1739 -0.1719
  935loPI   C1B13949   3.313  14.248   7.059  0.1256 -0.0256 -0.1009
  935loPI   C2B13950   3.446  14.237   7.448 -0.0925 -0.1959 -0.0882
  935loPI   C3B13951   3.281  14.364   7.854  0.0503  0.1098  0.2687
  935loPI   C4B13952   3.331  14.354   8.380 -0.1126 -0.1466  0.1358
  936loPI    C113953  13.967   1.833   5.855  0.1488  0.1530 -0.2743
  936loPI    C213954  13.628   1.999   5.720  0.0104  0.1180  0.0233
  936loPI    C313955  13.974   2.198   5.691 -0.0919  0.2978  0.0266
  936loPI   PO413956  13.924   1.751   6.090  0.0631  0.3816 -0.0331
  936loPI   GL113957  14.102   1.770   6.445  0.1059  0.2017  0.0355
  936loPI   GL213958  13.875   1.577   6.659  0.2022 -0.3387  0.0564
  936loPI   C1A13959  14.337   1.563   6.882  0.1620 -0.4378 -0.2697
  936loPI   C2A13960  14.279   1.447   7.339  0.3940 -0.0519 -0.1974
  936loPI   C3A13961  14.400   1.403   7.835 -0.1730  0.0916  0.1128
  936loPI   C4A13962  14.444   1.398   8.260 -0.0267  0.2973 -0.1680
  936loPI   C5A13963  14.464   1.619   8.660 -0.0479  0.4771  0.1029
  936loPI   C6A13964  14.773   1.872   8.721 -0.1414  0.2051  0.1966
  936loPI   C1B13965  13.833   1.432   7.026  0.0889  0.1349 -0.0097
  936loPI   C2B13966  13.813   1.351   7.501  0.0302 -0.3204  0.1388
  936loPI   C3B13967  13.899   1.321   7.850 -0.0246  0.0514 -0.3424
  936loPI   C4B13968  13.894   1.141   8.214  0.1151  0.0048 -0.2775
  937loPI    C113969  16.045   6.901   5.818  0.0593  0.1028  0.3123
  937loPI    C213970  15.899   7.205   5.602 -0.1170 -0.1151  0.1191
  937loPI    C313971  16.275   7.082   5.545 -0.0205  0.1122  0.2510
  937loPI   PO413972  16.070   6.937   6.082  0.2551  0.1871  0.1151
  937loPI   GL113973  16.160   6.797   6.457 -0.3544  0.0406  0.1390
  937loPI   GL213974  16.440   6.986   6.396  0.0324 -0.1604  0.1032
  937loPI   C1A13975  16.215   6.697   6.746 -0.1341 -0.1439 -0.2108
  937loPI   C2A13976  16.295   6.504   7.141  0.1637 -0.1037  0.2664
  937loPI   C3A13977  16.304   6.591   7.548  0.2379  0.2589  0.0880
  937loPI   C4A13978  16.382   6.600   7.977 -0.1356  0.4901 -0.0181
  937loPI   C5A13979  16.273   6.511   8.368 -0.1103 -0.1136  0.2838
  937loPI   C6A13980  16.204   6.211   8.755 -0.1367  0.2639 -0.1860
  937loPI   C1B13981  16.420   7.143   6.769 -0.0231  0.0178  0.2415
  937loPI   C2B13982  16.444   7.032   7.142 -0.1338  0.1400 -0.1035
  937loPI   C3B13983  16.413   7.034   7.637 -0.4787 -0.0973  0.0706
  937loPI   C4B13984  16.470   7.067   8.034  0.2174  0.1457 -0.0565
  938loPI    C113985   5.959   5.572   5.605 -0.0267 -0.1062  0.0749
  938loPI    C213986   6.051   5.275   5.353  0.0738  0.0552 -0.0811
  938loPI    C313987   5.881   5.610   5.214 -0.0283  0.0761  0.0920
  938loPI   PO413988   5.846   5.487   5.819  0.0360 -0.1877  0.1314
  938loPI   GL113989   5.820   5.552   6.273 -0.2767  0.0251  0.4699
  938loPI   GL213990   5.592   5.835   6.339  0.1905  0.2509 -0.2012
  938loPI   C1A13991   6.179   5.679   6.520 -0.0277 -0.3638  0.3789
  938loPI   C2A13992   6.191   5.758   6.925 -0.4702  0.0604  0.1703
  938loPI   C3A13993   6.250   5.795   7.370  0.2417 -0.1634 -0.0759
  938loPI   C4A13994   6.158   5.659   7.784  0.0054  0.3602  0.0279
  938loPI   C5A13995   6.095   5.625   8.173 -0.0480  0.3707  0.1919
  938loPI   C6A13996   6.047   5.595   8.586 -0.1164 -0.1474  0.1021
  938loPI   C1B13997   5.396   6.075   6.830 -0.1274 -0.1169  0.0252
  938loPI   C2B13998   5.361   5.939   7.262 -0.0787 -0.0080  0.0550
  938loPI   C3B13999   5.269   5.889   7.645  0.0448  0.1648  0.0629
  938loPI   C4B14000   5.323   5.945   8.066  0.2379 -0.0140 -0.0913
  939loPI    C114001  16.926  12.219   5.998  0.0451 -0.1888 -0.2552
  939loPI    C214002  17.325  12.235   5.978  0.0684 -0.1709  0.1468
  939loPI    C314003  17.113  12.143   5.652  0.3886 -0.0043 -0.1154
  939loPI   PO414004  16.838  12.164   6.193  0.3987  0.0816  0.0845
  939loPI   GL114005  16.799  12.245   6.643  0.0851  0.0957  0.1020
  939loPI   GL214006  16.511  12.355   6.834  0.0986 -0.0143 -0.1853
  939loPI   C1A14007  16.912  12.412   7.112  0.1433  0.1410  0.0876
  939loPI   C2A14008  16.827  12.404   7.564 -0.0954  0.3353 -0.1469
  939loPI   C3A14009  16.877  12.315   8.007  0.0986 -0.0559  0.0988
  939loPI   C4A14010  16.991  12.289   8.420  0.3690 -0.2446  0.0735
  939loPI   C5A14011  16.833  12.339   8.801  0.3239 -0.1630  0.1340
  939loPI   C6A14012  16.826  12.740   9.064 -0.3260  0.1006  0.0449
  939loPI   C1B14013  16.397  12.327   7.294 -0.2856  0.3618  0.0977
  939loPI   C2B14014  16.376  12.241   7.770 -0.0989  0.2549  0.1148
  939loPI   C3B14015  16.420  12.153   8.147 -0.2122  0.3810  0.0443
  939loPI   C4B14016  16.430  12.295   8.536 -0.3100 -0.1841 -0.1454
  940loPI    C114017  12.414   1.226   6.168 -0.0081 -0.0019 -0.0481
  940loPI    C214018  12.039   1.165   6.292  0.0497 -0.1114  0.0758
  940loPI    C314019  12.108   1.290   5.919 -0.1180  0.0709  0.1038
  940loPI   PO414020  12.482   1.360   6.349 -0.5457  0.2078  0.2044
  940loPI   GL114021  12.690   1.323   6.680 -0.0771 -0.1475 -0.0919
  940loPI   GL214022  12.370   1.243   6.816  0.1270 -0.0755  0.0068
  940loPI   C1A14023  12.923   1.288   7.094  0.3876 -0.2447 -0.0509
  940loPI   C2A14024  12.852   1.099   7.536 -0.2547 -0.1750 -0.0135
  940loPI   C3A14025  12.886   0.960   7.984  0.1920  0.1591  0.1505
  940loPI   C4A14026  12.889   0.988   8.360 -0.0906  0.1387 -0.0205
  940loPI   C5A14027  12.594   0.893   8.664  0.1534 -0.0076 -0.1045
  940loPI   C6A14028  12.256   1.007   8.927  0.0155  0.0336 -0.0285
  940loPI   C1B14029  12.446   1.049   7.140 -0.2010 -0.1831 -0.1231
  940loPI   C2B14030  12.410   0.917   7.663 -0.0765 -0.2055 -0.2438
  940loPI   C3B14031  12.420   0.784   8.121  0.0821 -0.0671  0.0634
  940loPI   C4B14032  12.252   0.585   8.538  0.0634  0.0948  0.3259
  941loPI    C114033  14.995   2.028   6.099 -0.2538  0.0395  0.0480
  941loPI    C214034  14.937   2.358   5.880  0.1442 -0.0338 -0.1775
  941loPI    C314035  14.957   2.000   5.702  0.0015 -0.1498  0.0343
  941loPI   PO414036  15.130   2.087   6.240 -0.3014 -0.1706 -0.2606
  941loPI   GL114037  15.059   2.027   6.659 -0.2596 -0.2428  0.1417
  941loPI   GL214038  15.359   2.258   6.744  0.1193  0.4739 -0.0946
  941loPI   C1A14039  14.875   2.100   7.089 -0.0944 -0.0759  0.0024
  941loPI   C2A14040  15.047   2.002   7.408 -0.0464 -0.0592  0.2843
  941loPI   C3A14041  15.014   2.161   7.802  0.0717  0.0348 -0.2556
  941loPI   C4A14042  15.071   2.044   8.266 -0.1044  0.0180  0.0536
  941loPI   C5A14043  15.268   2.295   8.594 -0.0084 -0.0282  0.1118
  941loPI   C6A14044  15.209   2.365   8.933 -0.0802  0.2088  0.1447
  941loPI   C1B14045  15.445   2.153   7.149  0.0574 -0.4417  0.0288
  941loPI   C2B14046  15.584   2.212   7.520 -0.0214 -0.1351  0.0143
  941loPI   C3B14047  15.513   2.317   7.888 -0.0052 -0.1922  0.1827
  941loPI   C4B14048  15.583   2.250   8.166 -0.1077  0.0184  0.0082
  942loPI    C114049   6.369   2.218   5.888 -0.2321  0.0743 -0.2553
  942loPI    C214050   6.559   2.291   5.544 -0.0515 -0.1220 -0.1999
  942loPI    C314051   6.297   1.990   5.567 -0.0535 -0.1174 -0.1618
  942loPI   PO414052   6.523   2.222   6.020 -0.1724 -0.2560  0.2161
  942loPI   GL114053   6.487   2.128   6.482 -0.0099 -0.1478  0.2342
  942loPI   GL214054   6.312   2.364   6.468 -0.1123  0.2705 -0.1975
  942loPI   C1A14055   6.546   2.071   6.901  0.0022  0.1006  0.1506
  942loPI   C2A14056   6.580   2.070   7.332 -0.0866 -0.4258  0.1684
  942loPI   C3A14057   6.667   2.040   7.729  0.1724 -0.0353  0.1062
  942loPI   C4A14058   6.639   2.091   8.067 -0.1294  0.0816  0.1956
  942loPI   C5A14059   6.629   1.911   8.416 -0.0317 -0.0020 -0.0262
  942loPI   C6A14060   6.564   1.454   8.550 -0.3652 -0.2667 -0.0131
  942loPI   C1B14061   6.300   2.450   6.912  0.0880 -0.1501  0.1672
  942loPI   C2B14062   6.218   2.440   7.375  0.0473 -0.0184 -0.2497
  942loPI   C3B14063   6.185   2.466   7.788  0.1597  0.1843  0.1084
  942loPI   C4B14064   6.350   2.489   8.170 -0.1165  0.4778  0.0203
  943loPI    C114065   0.455   6.580   5.980 -0.1804 -0.1089  0.1210
  943loPI    C214066   0.476   6.719   5.605  0.1143 -0.3174  0.0570
  943loPI    C314067   0.120   6.679   5.784 -0.0027  0.1533 -0.0569
  943loPI   PO414068   0.689   6.606   6.060 -0.2125 -0.1575  0.0595
  943loPI   GL114069   0.878   6.781   6.469  0.0588  0.0910 -0.0107
  943loPI   GL214070   0.520   6.821   6.488  0.0804  0.2240  0.2602
  943loPI   C1A14071   0.757   6.566   6.911 -0.0375  0.0154  0.1333
  943loPI   C2A14072   0.785   6.639   7.368 -0.0126  0.0687 -0.2408
  943loPI   C3A14073   0.783   6.589   7.696 -0.2865  0.0585 -0.0040
  943loPI   C4A14074   0.884   6.537   8.150 -0.0403  0.1413 -0.0561
  943loPI   C5A14075   0.779   6.833   8.372 -0.0611 -0.1062  0.0141
  943loPI   C6A14076   0.846   7.136   8.719 -0.2689 -0.1847 -0.2184
  943loPI   C1B14077   0.490   6.933   6.879  0.0379 -0.4548  0.0820
  943loPI   C2B14078   0.374   6.924   7.255 -0.1297  0.0668 -0.0540
  943loPI   C3B14079   0.392   6.865   7.583  0.1803 -0.0561  0.1184
  943loPI   C4B14080   0.504   6.990   7.971 -0.0869 -0.1090 -0.1769
  944loPI    C114081   9.328   6.658   5.976  0.0481 -0.0300  0.2495
  944loPI    C214082   9.197   6.474   5.646  0.0024  0.2670  0.0979
  944loPI    C314083   9.581   6.446   5.751 -0.0035  0.0896  0.0754
  944loPI   PO414084   9.140   6.593   6.232  0.4307  0.0655  0.0647
  944loPI   GL114085   9.060   6.555   6.738 -0.0071  0.1035  0.0827
  944loPI   GL214086   9.057   6.331   6.873  0.0178  0.0908  0.1542
  944loPI   C1A14087   8.982   6.929   6.981  0.0070  0.5413 -0.0539
  944loPI   C2A14088   9.034   6.993   7.429 -0.1527  0.2373 -0.0414
  944loPI   C3A14089   8.885   6.812   7.870  0.2505  0.1127  0.3353
  944loPI   C4A14090   8.880   6.908   8.268 -0.1047 -0.1331  0.3050
  944loPI   C5A14091   8.938   6.690   8.681 -0.1632 -0.3932  0.0885
  944loPI   C6A14092   8.903   6.579   9.104 -0.2985 -0.0826 -0.0393
  944loPI   C1B14093   8.827   6.375   7.205  0.1071  0.0768 -0.1093
  944loPI   C2B14094   8.752   6.428   7.622 -0.0129  0.2184 -0.1005
  944loPI   C3B14095   8.912   6.341   7.987 -0.0359  0.0452  0.0544
  944loPI   C4B14096   9.091   6.100   8.238 -0.4437  0.1922  0.0612
  945loPI    C114097  16.305  16.117   6.003 -0.2425 -0.1180 -0.2140
  945loPI    C214098  16.414  16.485   5.891 -0.1903 -0.0531  0.0436
  945loPI    C314099  16.149  16.280   5.673 -0.0365  0.0397 -0.2355
  945loPI   PO414100  16.294  16.140   6.285 -0.0979  0.1606 -0.3193
  945loPI   GL114101  16.141  16.263   6.632 -0.4048 -0.0916  0.0516
  945loPI   GL214102  16.042  16.410   6.846 -0.1499  0.1238 -0.3063
  945loPI   C1A14103  16.407  16.045   7.016 -0.0788 -0.0111  0.1723
  945loPI   C2A14104  16.407  16.037   7.522  0.1802  0.5282  0.0553
  945loPI   C3A14105  16.501  16.052   7.900 -0.0079 -0.2039  0.1160
  945loPI   C4A14106  16.511  15.980   8.244  0.2939 -0.0717  0.0887
  945loPI   C5A14107  16.595  15.675   8.569 -0.0408 -0.1997 -0.0549
  945loPI   C6A14108  16.316  15.317   8.730  0.1317 -0.0627  0.0921
  945loPI   C1B14109  16.090  16.413   7.315  0.0307  0.3350  0.2025
  945loPI   C2B14110  16.105  16.409   7.810  0.2364 -0.2314  0.0527
  945loPI   C3B14111  16.089  16.352   8.212  0.1978  0.1823  0.0511
  945loPI   C4B14112  16.090  16.366   8.615  0.0993  0.2421 -0.0106
  946loPI    C114113   3.194   1.259   5.992  0.1312 -0.0854 -0.0381
  946loPI    C214114   3.225   1.009   5.682  0.1626  0.0588 -0.1520
  946loPI    C314115   3.176   1.401   5.619  0.0517  0.0743  0.0255
  946loPI   PO414116   2.980   1.249   6.205  0.3078 -0.1012  0.1689
  946loPI   GL114117   2.972   1.093   6.527 -0.2281  0.1269  0.4403
  946loPI   GL214118   3.115   1.462   6.665 -0.2750  0.2621  0.1508
  946loPI   C1A14119   2.973   1.024   6.909  0.1561 -0.0196  0.1610
  946loPI   C2A14120   3.025   1.095   7.337  0.1627  0.0389 -0.0784
  946loPI   C3A14121   3.127   1.188   7.843 -0.1405 -0.1450  0.2022
  946loPI   C4A14122   3.183   1.124   8.297  0.1525  0.1512 -0.0781
  946loPI   C5A14123   3.074   1.356   8.774  0.0130 -0.1873 -0.2274
  946loPI   C6A14124   3.131   1.800   8.776 -0.2626 -0.0613  0.1270
  946loPI   C1B14125   3.170   1.578   7.094 -0.0601  0.0126 -0.0762
  946loPI   C2B14126   3.137   1.583   7.516 -0.1301 -0.1400  0.2506
  946loPI   C3B14127   3.368   1.648   7.913  0.0174 -0.1358 -0.1373
  946loPI   C4B14128   3.469   1.623   8.364  0.0077 -0.0018 -0.3404
  947loPI    C114129   1.936   9.899   5.814 -0.1066 -0.0005  0.0370
  947loPI    C214130   2.032  10.130   5.501 -0.2610  0.2285  0.1564
  947loPI    C314131   1.743   9.856   5.466  0.1242 -0.1608 -0.0743
  947loPI   PO414132   1.940  10.027   6.102 -0.2243 -0.0111  0.0367
  947loPI   GL114133   2.052   9.883   6.436 -0.0029  0.0629 -0.0810
  947loPI   GL214134   2.080   9.713   6.725 -0.0454 -0.2981  0.1039
  947loPI   C1A14135   2.242  10.191   6.730  0.0908 -0.0172 -0.3262
  947loPI   C2A14136   2.348  10.318   7.169  0.0377  0.3192  0.3044
  947loPI   C3A14137   2.318  10.342   7.609 -0.0788  0.2976  0.0335
  947loPI   C4A14138   2.361  10.209   8.081  0.1968 -0.1379 -0.1789
  947loPI   C5A14139   2.300  10.005   8.490 -0.4299 -0.2711  0.0350
  947loPI   C6A14140   1.940   9.722   8.577 -0.0869  0.1495 -0.3236
  947loPI   C1B14141   2.238   9.843   7.170 -0.0755  0.2415 -0.0615
  947loPI   C2B14142   2.270   9.854   7.668  0.1581  0.2694  0.0667
  947loPI   C3B14143   2.245   9.692   8.097  0.0538  0.0397 -0.1225
  947loPI   C4B14144   2.402   9.477   8.558 -0.0539 -0.1196  0.1432
  948loPI    C114145   0.334  11.822   6.276 -0.0867 -0.0356  0.0286
  948loPI    C214146   0.565  11.621   6.019 -0.3001 -0.1659 -0.0639
  948loPI    C314147   0.269  11.853   5.883 -0.0591  0.2120  0.0422
  948loPI   PO414148   0.586  11.866   6.489 -0.1074 -0.2127 -0.1319
  948loPI   GL114149   0.579  11.919   6.903  0.1444 -0.1318 -0.0842
  948loPI   GL214150   0.774  11.562   6.886 -0.1661 -0.0271  0.0141
  948loPI   C1A14151   0.456  12.166   7.284 -0.0547  0.1599 -0.3153
  948loPI   C2A14152   0.482  12.213   7.737 -0.0833  0.0415  0.0649
  948loPI   C3A14153   0.512  12.077   8.201 -0.4307 -0.1508  0.0909
  948loPI   C4A14154   0.493  12.150   8.684  0.1183  0.1118  0.1374
  948loPI   C5A14155   0.329  12.435   9.012  0.0286 -0.0019 -0.0498
  948loPI   C6A14156   0.324  12.748   9.326 -0.0556  0.1422  0.0662
  948loPI   C1B14157   0.782  11.688   7.281 -0.0834 -0.1470 -0.0751
  948loPI   C2B14158   0.721  11.781   7.736  0.3385  0.1195 -0.0641
  948loPI   C3B14159   0.818  11.687   8.083  0.1027 -0.0177 -0.0685
  948loPI   C4B14160   0.753  11.715   8.481 -0.0055 -0.0967  0.4162
  949loPI    C114161  13.731   0.824   6.187 -0.0153 -0.0972  0.2738
  949loPI    C214162  13.585   0.586   5.900 -0.0288  0.1820  0.0448
  949loPI    C314163  13.921   0.485   6.092 -0.1797 -0.1525  0.1393
  949loPI   PO414164  13.587   0.848   6.295  0.1397  0.1354 -0.3842
  949loPI   GL114165  13.401   0.793   6.660  0.2164 -0.1813 -0.1071
  949loPI   GL214166  13.183   0.487   6.640 -0.2578 -0.0206 -0.1044
  949loPI   C1A14167  13.317   1.141   6.895  0.0316  0.0045  0.2905
  949loPI   C2A14168  13.340   1.173   7.328 -0.1105 -0.1603 -0.2307
  949loPI   C3A14169  13.374   1.195   7.705  0.1172 -0.0666 -0.0692
  949loPI   C4A14170  13.332   1.085   8.173  0.0142  0.0101  0.3627
  949loPI   C5A14171  13.381   0.874   8.516 -0.0263 -0.0063  0.3262
  949loPI   C6A14172  13.060   0.732   8.781 -0.1471 -0.1548 -0.2932
  949loPI   C1B14173  13.225   0.747   7.153  0.1884 -0.0511  0.0452
  949loPI   C2B14174  13.201   0.713   7.527 -0.0651 -0.2000 -0.0491
  949loPI   C3B14175  13.262   0.631   7.938 -0.2585 -0.0094 -0.1103
  949loPI   C4B14176  13.264   0.467   8.296 -0.4292 -0.1490  0.0410
  950loPI    C114177   5.586  15.806   5.839  0.2343 -0.2549  0.1036
  950loPI    C214178   5.837  15.592   5.612 -0.1880 -0.3079 -0.3289
  950loPI    C314179   5.528  15.784   5.443 -0.1794  0.1338  0.1339
  950loPI   PO414180   5.671  15.972   5.962 -0.3864 -0.0250 -0.1031
  950loPI   GL114181   5.769  16.178   6.328 -0.0952 -0.2678 -0.2260
  950loPI   GL214182   5.448  16.243   6.381 -0.0299 -0.0253 -0.0769
  950loPI   C1A14183   5.749  16.047   6.752  0.0598 -0.5733  0.2537
  950loPI   C2A14184   5.671  15.890   7.183 -0.1036 -0.1458  0.1316
  950loPI   C3A14185   5.675  15.896   7.651 -0.0285  0.2165 -0.1113
  950loPI   C4A14186   5.698  15.882   8.077  0.3154 -0.1052 -0.0526
  950loPI   C5A14187   5.480  15.854   8.429  0.1750  0.2319 -0.1295
  950loPI   C6A14188   5.181  15.871   8.783  0.0135  0.0323  0.0849
  950loPI   C1B14189   5.319  16.280   6.784  0.0207 -0.2762  0.1838
  950loPI   C2B14190   5.294  16.237   7.179  0.0060 -0.4300  0.1506
  950loPI   C3B14191   5.329  16.342   7.706  0.1270  0.2083 -0.0518
  950loPI   C4B14192   5.324  16.315   8.145  0.1368 -0.0678 -0.0813
  951loPI    C114193   4.714  15.986   5.593  0.0464 -0.2452  0.0962
  951loPI    C214194   5.074  16.036   5.425  0.0437 -0.2024  0.1029
  951loPI    C314195   4.759  16.243   5.291  0.0220 -0.2377  0.0989
  951loPI   PO414196   4.693  16.034   5.911 -0.1975  0.1058 -0.0288
  951loPI   GL114197   4.565  16.301   6.213  0.3133 -0.1315  0.0438
  951loPI   GL214198   4.838  16.479   6.280  0.0998  0.1082  0.2396
  951loPI   C1A14199   4.457  16.403   6.621 -0.1606 -0.4595 -0.1055
  951loPI   C2A14200   4.397  16.486   7.041  0.0613  0.1023  0.0589
  951loPI   C3A14201   4.501  16.408   7.478 -0.2928 -0.1340 -0.0980
  951loPI   C4A14202   4.438  16.554   7.821 -0.0098 -0.0039  0.1044
  951loPI   C5A14203   4.538  16.415   8.300  0.0158  0.0244 -0.2652
  951loPI   C6A14204   4.280  16.619   8.706 -0.1864 -0.0991 -0.1789
  951loPI   C1B14205   4.876  16.599   6.687  0.2270 -0.3596 -0.0302
  951loPI   C2B14206   4.933  16.583   7.152 -0.1210  0.1594 -0.2884
  951loPI   C3B14207   4.865  16.725   7.580  0.0572  0.0968  0.2613
  951loPI   C4B14208   4.873  16.723   8.041  0.0456 -0.1433  0.0553
  952loPI    C114209   4.284  10.959   5.814  0.1657 -0.1680 -0.0690
  952loPI    C214210   4.067  11.076   5.500  0.0297 -0.4538 -0.0841
  952loPI    C314211   4.466  11.101   5.487  0.0062 -0.0180 -0.0935
  952loPI   PO414212   4.122  10.964   6.047  0.0264 -0.0102 -0.0261
  952loPI   GL114213   4.258  10.657   6.374 -0.3828  0.0325  0.0677
  952loPI   GL214214   4.110  10.274   6.368 -0.0880 -0.3752 -0.3052
  952loPI   C1A14215   4.365  10.775   6.726  0.0960  0.0443  0.0546
  952loPI   C2A14216   4.343  10.748   7.175  0.1939 -0.0879 -0.1778
  952loPI   C3A14217   4.293  10.889   7.513  0.0210 -0.1981  0.0516
  952loPI   C4A14218   4.346  10.943   7.955 -0.4169  0.0744 -0.0306
  952loPI   C5A14219   4.231  10.692   8.322 -0.1243  0.1048 -0.1580
  952loPI   C6A14220   4.009  10.505   8.634 -0.2762  0.0687 -0.4105
  952loPI   C1B14221   4.236  10.186   6.739  0.0866  0.2668 -0.0011
  952loPI   C2B14222   4.311  10.238   7.151  0.0207 -0.3740  0.0080
  952loPI   C3B14223   4.180  10.342   7.582  0.0307 -0.2559  0.2151
  952loPI   C4B14224   4.212  10.207   8.095 -0.0440  0.2322 -0.0287
  953loPI    C114225   0.673  12.619   6.050 -0.1432 -0.0445  0.1264
  953loPI    C214226   0.471  12.307   5.901 -0.0150  0.0188 -0.1896
  953loPI    C314227   0.704  12.527   5.662  0.2636  0.0761  0.1258
  953loPI   PO414228   0.735  12.514   6.336 -0.0217 -0.1529 -0.0832
  953loPI   GL114229   0.665  12.329   6.725  0.0593 -0.1451 -0.0672
  953loPI   GL214230   0.522  12.556   6.793  0.3476  0.2137 -0.0434
  953loPI   C1A14231   0.885  12.319   7.083 -0.0285 -0.0385  0.1795
  953loPI   C2A14232   0.930  12.268   7.558 -0.1232 -0.0237  0.0785
  953loPI   C3A14233   0.945  12.192   7.882  0.0168  0.1117 -0.2927
  953loPI   C4A14234   1.032  12.245   8.353  0.1238 -0.2874  0.1140
  953loPI   C5A14235   1.234  11.908   8.573 -0.0634  0.2983 -0.3977
  953loPI   C6A14236   1.406  11.655   8.926 -0.0943  0.0204 -0.0089
  953loPI   C1B14237   0.578  12.697   7.241  0.1002 -0.1503  0.1727
  953loPI   C2B14238   0.476  12.714   7.663  0.2244 -0.0202 -0.1665
  953loPI   C3B14239   0.464  12.610   8.012  0.0583  0.1063 -0.1645
  953loPI   C4B14240   0.680  12.568   8.427 -0.0415 -0.4009  0.0430
  954loPI    C114241   3.141  13.386   6.038 -0.1922 -0.1576  0.1758
  954loPI    C214242   3.083  13.540   5.674 -0.0786 -0.1148  0.1753
  954loPI    C314243   3.264  13.185   5.715  0.2342  0.0452  0.2050
  954loPI   PO414244   2.981  13.529   6.200  0.2002  0.2175 -0.2610
  954loPI   GL114245   2.811  13.441   6.520  0.0971 -0.1731 -0.1603
  954loPI   GL214246   3.097  13.679   6.687  0.1201  0.3058  0.1603
  954loPI   C1A14247   2.657  13.583   6.986  0.1684 -0.2028  0.0631
  954loPI   C2A14248   2.704  13.613   7.377 -0.2835 -0.0787 -0.0647
  954loPI   C3A14249   2.753  13.661   7.815 -0.0524  0.2005 -0.1139
  954loPI   C4A14250   2.794  13.586   8.267  0.0762 -0.2798 -0.1675
  954loPI   C5A14251   2.860  13.559   8.732 -0.1738  0.0521 -0.1038
  954loPI   C6A14252   3.039  13.835   9.129  0.3538 -0.0423  0.0382
  954loPI   C1B14253   3.234  13.769   7.135 -0.1397 -0.1150 -0.0496
  954loPI   C2B14254   3.190  13.788   7.542 -0.3345 -0.0997  0.2199
  954loPI   C3B14255   3.188  13.830   7.982 -0.2610 -0.1470 -0.0337
  954loPI   C4B14256   3.217  13.856   8.435 -0.1941  0.0880 -0.0320
  955loPI    C114257   3.706   2.775   5.735 -0.0029  0.1942 -0.2120
  955loPI    C214258   4.028   2.641   5.539  0.0730 -0.0519  0.0730
  955loPI    C314259   3.879   3.003   5.456  0.2246 -0.0687 -0.2902
  955loPI   PO414260   3.666   2.754   5.985  0.1026 -0.2731 -0.0895
  955loPI   GL114261   3.759   2.530   6.345  0.0521 -0.1262 -0.0753
  955loPI   GL214262   3.950   2.790   6.552  0.2551  0.1978 -0.1369
  955loPI   C1A14263   3.542   2.589   6.749  0.2003  0.1354 -0.1125
  955loPI   C2A14264   3.558   2.594   7.270 -0.3814 -0.4826 -0.0763
  955loPI   C3A14265   3.557   2.662   7.652 -0.1727 -0.1177 -0.1194
  955loPI   C4A14266   3.514   2.601   8.041 -0.2713  0.1885 -0.0388
  955loPI   C5A14267   3.519   2.656   8.470  0.4593  0.0488 -0.1757
  955loPI   C6A14268   3.821   2.841   8.714 -0.3213  0.2470 -0.0941
  955loPI   C1B14269   3.986   2.779   7.026  0.2545 -0.1678 -0.2219
  955loPI   C2B14270   4.078   2.734   7.412  0.2321  0.0708 -0.1709
  955loPI   C3B14271   4.019   2.794   7.857  0.0318 -0.2790  0.2434
  955loPI   C4B14272   3.973   2.743   8.306  0.0844 -0.0215 -0.0680
  956loPI    C114273  13.957   1.266   6.034 -0.0511 -0.0370  0.0002
  956loPI    C214274  14.261   1.038   5.909  0.1207  0.0734  0.2117
  956loPI    C314275  13.903   1.006   5.734  0.2621 -0.0312 -0.0642
  956loPI   PO414276  14.049   1.268   6.318 -0.2832 -0.2275 -0.1838
  956loPI   GL114277  13.869   1.043   6.674  0.1236 -0.2059 -0.1547
  956loPI   GL214278  14.210   1.111   6.735  0.0972 -0.0068 -0.0118
  956loPI   C1A14279  13.704   0.876   7.051 -0.3147  0.0477 -0.0611
  956loPI   C2A14280  13.698   0.880   7.405 -0.1232  0.1821 -0.0879
  956loPI   C3A14281  13.716   0.836   7.898  0.0954  0.1971 -0.4108
  956loPI   C4A14282  13.751   0.605   8.309 -0.1460  0.0504  0.3310
  956loPI   C5A14283  13.630   0.443   8.746 -0.2806 -0.0844  0.1159
  956loPI   C6A14284  13.693   0.086   9.117 -0.1862 -0.0281  0.0812
  956loPI   C1B14285  14.143   1.028   7.205  0.0228  0.0999 -0.1813
  956loPI   C2B14286  14.122   0.967   7.644  0.2672  0.0725 -0.1731
  956loPI   C3B14287  14.328   0.950   8.020 -0.0305 -0.2229  0.0518
  956loPI   C4B14288  14.185   0.786   8.366 -0.2494  0.0361 -0.1033
  957loPI    C114289  12.346   3.138   6.398 -0.1673  0.2294 -0.0833
  957loPI    C214290  12.553   3.322   6.110  0.0373  0.0226 -0.0720
  957loPI    C314291  12.744   3.101   6.382 -0.2038 -0.2144 -0.0910
  957loPI   PO414292  12.202   3.357   6.513  0.0801 -0.1196  0.0583
  957loPI   GL114293  12.230   3.600   6.828  0.0246 -0.0276 -0.2780
  957loPI   GL214294  12.009   3.475   6.963 -0.1145  0.1065 -0.1672
  957loPI   C1A14295  12.359   3.423   7.297  0.1812 -0.0074  0.0788
  957loPI   C2A14296  12.403   3.416   7.676 -0.3810 -0.1397  0.1599
  957loPI   C3A14297  12.610   3.336   8.075 -0.2226 -0.2409  0.1976
  957loPI   C4A14298  12.586   3.186   8.490 -0.2690  0.0330  0.0090
  957loPI   C5A14299  12.701   2.740   8.821 -0.1006  0.2049 -0.1696
  957loPI   C6A14300  13.130   2.566   8.970 -0.0045  0.0181  0.0019
  957loPI   C1B14301  11.848   3.419   7.273  0.0455  0.0990  0.0014
  957loPI   C2B14302  11.893   3.333   7.673  0.0330 -0.1078  0.0482
  957loPI   C3B14303  12.132   3.214   8.084 -0.2319  0.0229 -0.1609
  957loPI   C4B14304  12.056   3.080   8.523  0.2725  0.1407 -0.0240
  958loPI    C114305   2.879   8.977   5.840  0.2174  0.2927 -0.0604
  958loPI    C214306   2.817   8.661   5.603 -0.1400  0.2128  0.1330
  958loPI    C314307   2.652   9.014   5.513  0.0086  0.2698  0.0803
  958loPI   PO414308   2.748   9.061   6.039  0.0082  0.1794 -0.0476
  958loPI   GL114309   2.453   9.044   6.395  0.0005  0.0312 -0.1218
  958loPI   GL214310   2.354   9.339   6.456 -0.6394 -0.3525  0.0006
  958loPI   C1A14311   2.551   8.930   6.743  0.4617 -0.2171 -0.1393
  958loPI   C2A14312   2.516   8.949   7.241 -0.0580  0.0536 -0.1285
  958loPI   C3A14313   2.459   8.849   7.735  0.2412  0.1701 -0.0706
  958loPI   C4A14314   2.231   8.874   8.146 -0.2527 -0.0861  0.2859
  958loPI   C5A14315   2.119   8.628   8.466  0.2588  0.1101  0.0928
  958loPI   C6A14316   2.015   8.689   8.877 -0.3098 -0.0475 -0.0323
  958loPI   C1B14317   2.496   9.513   6.803  0.1616 -0.1140  0.0611
  958loPI   C2B14318   2.653   9.460   7.268 -0.0312  0.0808 -0.0147
  958loPI   C3B14319   2.576   9.393   7.714 -0.0771  0.0779  0.1991
  958loPI   C4B14320   2.589   9.261   8.144 -0.0600 -0.0218  0.1241
  959loPI    C114321  12.646  13.964   6.100  0.1819 -0.3901 -0.0116
  959loPI    C214322  12.288  13.843   5.968  0.0476 -0.0255  0.0075
  959loPI    C314323  12.603  13.843   5.722 -0.0726  0.1011 -0.1481
  959loPI   PO414324  12.640  13.823   6.286  0.0686  0.4471 -0.3486
  959loPI   GL114325  12.792  13.682   6.574  0.1225 -0.1246 -0.1137
  959loPI   GL214326  12.793  13.308   6.677 -0.1809  0.2567 -0.0921
  959loPI   C1A14327  12.967  13.706   6.987 -0.0357 -0.1175 -0.2122
  959loPI   C2A14328  12.982  13.744   7.401  0.0143  0.1240 -0.0510
  959loPI   C3A14329  13.002  13.668   7.884  0.0077  0.0025  0.3355
  959loPI   C4A14330  12.996  13.669   8.343  0.1165  0.2731  0.0730
  959loPI   C5A14331  12.941  13.784   8.733 -0.0339 -0.1255 -0.0154
  959loPI   C6A14332  12.648  13.945   9.008 -0.0158  0.4389  0.1957
  959loPI   C1B14333  12.799  13.222   7.050 -0.0800 -0.0205 -0.1464
  959loPI   C2B14334  12.841  13.211   7.510  0.0358 -0.0186  0.0827
  959loPI   C3B14335  12.837  13.159   7.943  0.1839  0.0042  0.1587
  959loPI   C4B14336  12.926  13.130   8.332  0.1298 -0.1073 -0.0479
  960loPI    C114337   4.616   3.097   5.789 -0.0325 -0.0062 -0.0743
  960loPI    C214338   4.619   3.307   5.448 -0.0279  0.0506 -0.0395
  960loPI    C314339   4.377   2.990   5.486  0.0471 -0.0187 -0.1331
  960loPI   PO414340   4.619   3.220   5.967 -0.5466  0.0033 -0.2576
  960loPI   GL114341   4.781   3.194   6.359  0.1198  0.0815 -0.0750
  960loPI   GL214342   5.021   3.014   6.384 -0.2285 -0.1925 -0.0977
  960loPI   C1A14343   4.647   3.333   6.742 -0.0652  0.1899  0.1962
  960loPI   C2A14344   4.644   3.382   7.173  0.1476  0.1547 -0.0372
  960loPI   C3A14345   4.604   3.447   7.587 -0.0378  0.1320  0.1298
  960loPI   C4A14346   4.598   3.332   8.019 -0.1046 -0.4697 -0.2614
  960loPI   C5A14347   4.370   3.194   8.428  0.3089  0.0989 -0.4481
  960loPI   C6A14348   3.920   3.208   8.397  0.0915 -0.0421 -0.0521
  960loPI   C1B14349   5.073   3.048   6.812  0.4279  0.0035  0.0640
  960loPI   C2B14350   5.009   3.107   7.317 -0.0562 -0.3088 -0.1008
  960loPI   C3B14351   5.027   3.007   7.702 -0.0117 -0.1507 -0.0114
  960loPI   C4B14352   5.050   3.031   8.130  0.1442 -0.0595  0.0437
  961loPI    C114353  11.558   3.208   6.057  0.0811  0.1187 -0.1372
  961loPI    C214354  11.745   2.995   5.774  0.1330  0.1329 -0.1139
  961loPI    C314355  11.368   3.118   5.717 -0.0264 -0.2763  0.0212
  961loPI   PO414356  11.743   3.067   6.286 -0.1622  0.2709 -0.2008
  961loPI   GL114357  11.771   3.001   6.734 -0.1547 -0.2763  0.0831
  961loPI   GL214358  11.650   2.750   6.719 -0.1539 -0.1161 -0.0518
  961loPI   C1A14359  12.131   2.983   7.049 -0.1331  0.1372 -0.1943
  961loPI   C2A14360  12.259   2.925   7.406  0.1410  0.2589 -0.0745
  961loPI   C3A14361  12.423   2.892   7.804 -0.0265 -0.0508 -0.0626
  961loPI   C4A14362  12.490   2.808   8.207  0.2003 -0.0002  0.2623
  961loPI   C5A14363  12.347   2.563   8.527 -0.0496  0.0353 -0.3158
  961loPI   C6A14364  12.319   2.323   8.886  0.1624 -0.0965 -0.3370
  961loPI   C1B14365  11.751   2.763   7.204  0.1993 -0.1611 -0.0161
  961loPI   C2B14366  11.904   2.847   7.706 -0.1048 -0.0428 -0.0050
  961loPI   C3B14367  11.994   2.712   8.144 -0.0095  0.0401 -0.0725
  961loPI   C4B14368  11.797   2.613   8.400  0.2235 -0.1999 -0.0116
  962loPI    C114369   9.402   3.271   6.382 -0.0572 -0.0319 -0.0355
  962loPI    C214370   9.762   3.112   6.450 -0.0091  0.1518  0.1517
  962loPI    C314371   9.679   3.274   6.094  0.0208 -0.0776  0.0385
  962loPI   PO414372   9.218   3.130   6.532  0.1391 -0.3617  0.0353
  962loPI   GL114373   8.836   3.168   6.684 -0.3629 -0.3366 -0.2104
  962loPI   GL214374   8.817   3.552   6.836 -0.2386 -0.1611 -0.3494
  962loPI   C1A14375   8.680   3.074   7.102 -0.1267 -0.2778 -0.0709
  962loPI   C2A14376   8.734   3.175   7.479  0.4005 -0.2858  0.0382
  962loPI   C3A14377   8.709   3.177   7.865  0.0221  0.3301  0.3405
  962loPI   C4A14378   8.753   3.122   8.261 -0.0863  0.2438  0.0262
  962loPI   C5A14379   8.658   2.924   8.634  0.4174  0.0776  0.0625
  962loPI   C6A14380   8.724   2.874   9.086 -0.0318  0.0022 -0.0271
  962loPI   C1B14381   8.827   3.718   7.295 -0.1151  0.3040  0.1095
  962loPI   C2B14382   8.838   3.691   7.720 -0.0642  0.1202 -0.1507
  962loPI   C3B14383   8.862   3.654   8.128  0.2752  0.1041  0.1407
  962loPI   C4B14384   8.836   3.689   8.566  0.2232 -0.1756  0.1449
  963loPI    C114385   1.614   2.155   6.112 -0.1218  0.0329 -0.0167
  963loPI    C214386   1.302   2.114   5.866  0.0283 -0.1055 -0.1868
  963loPI    C314387   1.670   2.026   5.738  0.1256 -0.0428  0.0446
  963loPI   PO414388   1.431   2.240   6.367 -0.2179  0.4214  0.4382
  963loPI   GL114389   1.420   2.168   6.829  0.1313  0.1837 -0.0174
  963loPI   GL214390   1.173   1.926   6.802 -0.3074  0.1820  0.2472
  963loPI   C1A14391   1.418   2.004   7.254 -0.0503  0.1352  0.0724
  963loPI   C2A14392   1.424   2.024   7.730 -0.0678  0.2177  0.2011
  963loPI   C3A14393   1.524   2.093   8.194  0.1913 -0.2191 -0.1257
  963loPI   C4A14394   1.315   1.954   8.555 -0.0335 -0.2007  0.0852
  963loPI   C5A14395   1.201   1.620   8.795  0.3683 -0.0319  0.0689
  963loPI   C6A14396   0.984   1.169   8.930  0.0573 -0.3683 -0.0600
  963loPI   C1B14397   0.917   1.849   7.227  0.0770 -0.0642  0.1040
  963loPI   C2B14398   0.971   1.873   7.674 -0.0941  0.1397  0.4659
  963loPI   C3B14399   0.987   1.916   8.172 -0.0525 -0.1450 -0.2229
  963loPI   C4B14400   0.809   1.958   8.616 -0.1125  0.3261  0.0862
  964loPI    C114401   1.961   4.410   6.219  0.0148 -0.1232 -0.0219
  964loPI    C214402   1.906   4.239   5.862  0.1674 -0.1315 -0.0424
  964loPI    C314403   2.260   4.208   6.046  0.0855 -0.1384  0.1159
  964loPI   PO414404   1.745   4.463   6.297  0.0782  0.0593  0.3099
  964loPI   GL114405   1.617   4.383   6.643 -0.2136 -0.1472  0.2030
  964loPI   GL214406   1.608   4.097   6.709 -0.0053 -0.1753  0.2090
  964loPI   C1A14407   1.681   4.540   7.111 -0.0394 -0.1413  0.1065
  964loPI   C2A14408   1.690   4.509   7.525 -0.1992 -0.4285  0.1625
  964loPI   C3A14409   1.620   4.396   7.871 -0.4143 -0.3620  0.1408
  964loPI   C4A14410   1.668   4.353   8.256  0.4088 -0.3062  0.0891
  964loPI   C5A14411   1.977   4.598   8.554  0.2466 -0.1823 -0.0670
  964loPI   C6A14412   2.382   4.574   8.831  0.2946 -0.1256  0.0428
  964loPI   C1B14413   1.529   4.073   7.123  0.0320 -0.1854  0.1787
  964loPI   C2B14414   1.547   4.015   7.573 -0.1124 -0.1052  0.1258
  964loPI   C3B14415   1.514   3.904   7.998 -0.0412  0.4553  0.1187
  964loPI   C4B14416   1.313   3.976   8.461  0.2331  0.4544  0.0483
  965loPI    C114417  16.336   0.975   6.148  0.0207  0.1751 -0.0137
  965loPI    C214418  16.280   1.117   6.518 -0.1273  0.2407 -0.0603
  965loPI    C314419  16.035   1.229   6.223  0.0856  0.3130 -0.2122
  965loPI   PO414420  16.560   0.877   6.187  0.0231  0.2073 -0.2847
  965loPI   GL114421  16.518   0.724   6.622  0.0121  0.0744  0.1254
  965loPI   GL214422  16.572   0.355   6.622 -0.2136  0.1852  0.0052
  965loPI   C1A14423  16.461   0.620   7.056 -0.2548  0.1734  0.3860
  965loPI   C2A14424  16.472   0.519   7.447  0.1504  0.1862 -0.1647
  965loPI   C3A14425  16.456   0.512   7.959 -0.0200  0.0699  0.0436
  965loPI   C4A14426  16.392   0.540   8.390 -0.0682  0.0479  0.0590
  965loPI   C5A14427  16.613   0.282   8.672 -0.2792  0.0263  0.2317
  965loPI   C6A14428  17.011   0.002   8.681  0.0355 -0.1178  0.3063
  965loPI   C1B14429  16.782   0.242   6.971 -0.0039 -0.1220 -0.0653
  965loPI   C2B14430  16.885   0.165   7.414  0.1848 -0.1936  0.0431
  965loPI   C3B14431  16.898   0.131   7.832  0.1911 -0.2248  0.0273
  965loPI   C4B14432  16.868   0.193   8.242 -0.2026  0.0896  0.1119
  966loPI    C114433  10.300  17.087   6.056 -0.0802  0.3905  0.0076
  966loPI    C214434  10.239  17.150   5.666 -0.3353 -0.1123 -0.0421
  966loPI    C314435  10.611  17.104   5.806 -0.2587 -0.2294 -0.2777
  966loPI   PO414436  10.083  16.867   6.122 -0.1033 -0.5373  0.0110
  966loPI   GL114437  10.084  16.855   6.505 -0.0247  0.1389 -0.4504
  966loPI   GL214438   9.791  16.661   6.536  0.1825 -0.3088  0.3447
  966loPI   C1A14439  10.056  17.127   6.786 -0.1916 -0.2463 -0.0094
  966loPI   C2A14440  10.080  17.128   7.153 -0.0804 -0.4066  0.2154
  966loPI   C3A14441  10.035  17.122   7.557  0.0178  0.0555  0.3223
  966loPI   C4A14442  10.182  17.134   7.914  0.0758 -0.1302  0.1037
  966loPI   C5A14443  10.212  17.075   8.364  0.1065 -0.1405 -0.0480
  966loPI   C6A14444   9.886  17.106   8.718  0.1302  0.1148 -0.0465
  966loPI   C1B14445  10.034  16.628   6.919 -0.3435  0.1423 -0.1549
  966loPI   C2B14446   9.954  16.603   7.303 -0.1037  0.1309  0.2452
  966loPI   C3B14447  10.004  16.663   7.722  0.0332 -0.0117  0.2148
  966loPI   C4B14448  10.055  16.645   8.209  0.1088  0.2811 -0.2157
  967loPI    C114449   7.658   8.655   5.900  0.2569 -0.0074 -0.0362
  967loPI    C214450   7.598   8.346   5.652  0.0065 -0.2091  0.2681
  967loPI    C314451   7.304   8.609   5.719  0.1349 -0.0489  0.2091
  967loPI   PO414452   7.702   8.618   6.081 -0.1274 -0.1576  0.0060
  967loPI   GL114453   7.975   8.625   6.535 -0.0182  0.0058  0.1417
  967loPI   GL214454   8.072   8.924   6.762  0.0697  0.0102  0.2047
  967loPI   C1A14455   7.917   8.334   6.872  0.0482 -0.4655  0.0981
  967loPI   C2A14456   7.989   8.309   7.362  0.0605  0.4163  0.1109
  967loPI   C3A14457   7.991   8.429   7.822  0.1696  0.2226 -0.4286
  967loPI   C4A14458   8.033   8.301   8.292  0.0003  0.2296  0.0742
  967loPI   C5A14459   7.702   8.201   8.652  0.1185 -0.0542  0.0214
  967loPI   C6A14460   7.884   8.098   8.991  0.2009 -0.3536  0.1132
  967loPI   C1B14461   8.039   9.085   7.199 -0.1620  0.0615 -0.0965
  967loPI   C2B14462   8.028   9.005   7.636  0.1162 -0.0119 -0.0793
  967loPI   C3B14463   7.962   9.049   8.117  0.1789  0.0704 -0.0157
  967loPI   C4B14464   8.002   9.210   8.536  0.2376  0.0363  0.0589
  968loPI    C114465   9.422   8.592   5.986 -0.0859  0.1398  0.1196
  968loPI    C214466   9.719   8.681   5.732 -0.1994 -0.0885 -0.0979
  968loPI    C314467   9.367   8.551   5.592 -0.3353 -0.0167  0.1684
  968loPI   PO414468   9.517   8.549   6.138  0.2004 -0.1222 -0.1032
  968loPI   GL114469   9.510   8.812   6.527  0.0925 -0.2654 -0.3160
  968loPI   GL214470   9.892   8.699   6.592 -0.0731 -0.1207 -0.1912
  968loPI   C1A14471   9.342   8.711   6.885  0.0276 -0.1157 -0.0659
  968loPI   C2A14472   9.518   8.773   7.314  0.2683  0.0333  0.1378
  968loPI   C3A14473   9.480   8.884   7.699 -0.4160 -0.0908  0.2037
  968loPI   C4A14474   9.370   8.902   8.101 -0.3636 -0.3026  0.2199
  968loPI   C5A14475   9.359   9.081   8.514 -0.1228  0.0567 -0.0826
  968loPI   C6A14476   9.077   9.434   8.625  0.0770  0.0044  0.1132
  968loPI   C1B14477   9.898   8.849   7.053  0.2330 -0.1193 -0.1197
  968loPI   C2B14478   9.983   8.934   7.507  0.0532  0.0373 -0.1865
  968loPI   C3B14479   9.918   9.052   7.874 -0.1404  0.0827 -0.1682
  968loPI   C4B14480   9.828   9.181   8.295 -0.1708 -0.0578  0.1327
  969loPI    C114481   4.308   3.873   5.675 -0.2245  0.1101 -0.0657
  969loPI    C214482   4.328   3.698   5.316 -0.1034 -0.0577  0.0211
  969loPI    C314483   3.978   3.835   5.452 -0.1632 -0.0578 -0.1300
  969loPI   PO414484   4.452   3.723   5.828  0.2529 -0.0057  0.0364
  969loPI   GL114485   4.347   3.596   6.215  0.2128 -0.2945 -0.1576
  969loPI   GL214486   4.284   3.242   6.344 -0.0277 -0.0821  0.0268
  969loPI   C1A14487   4.253   3.667   6.573 -0.0987 -0.0420  0.4640
  969loPI   C2A14488   4.280   3.759   7.025 -0.2047 -0.0998 -0.0430
  969loPI   C3A14489   4.275   3.786   7.370 -0.0738  0.0740  0.1052
  969loPI   C4A14490   4.254   3.746   7.822  0.0947 -0.2361 -0.2127
  969loPI   C5A14491   4.208   3.716   8.220  0.2840  0.0873 -0.1051
  969loPI   C6A14492   4.384   3.921   8.548  0.0221  0.0075  0.0002
  969loPI   C1B14493   4.100   3.209   6.736 -0.0873 -0.0695 -0.2662
  969loPI   C2B14494   4.128   3.275   7.145  0.0535  0.2108  0.0493
  969loPI   C3B14495   4.163   3.293   7.528  0.2456  0.3448 -0.4413
  969loPI   C4B14496   4.109   3.319   7.890  0.0981  0.2813 -0.0269
  970loPI    C114497   8.912  12.953   5.885  0.1546 -0.1437  0.0344
  970loPI    C214498   8.537  12.975   5.747  0.1715  0.3714  0.0522
  970loPI    C314499   8.836  12.877   5.499  0.0343 -0.0130  0.0319
  970loPI   PO414500   8.889  12.812   6.167 -0.2339 -0.2178  0.1524
  970loPI   GL114501   9.185  13.014   6.404  0.2239 -0.2490  0.0542
  970loPI   GL214502   9.335  13.270   6.461  0.0945 -0.0680  0.2738
  970loPI   C1A14503   9.193  12.983   6.819  0.0821  0.1078  0.0104
  970loPI   C2A14504   9.158  13.018   7.297  0.0735 -0.0312 -0.4960
  970loPI   C3A14505   9.104  13.058   7.749 -0.1040  0.0876 -0.1264
  970loPI   C4A14506   9.033  13.091   8.168  0.1703 -0.1537 -0.1823
  970loPI   C5A14507   9.031  13.055   8.548 -0.1252 -0.1309  0.0402
  970loPI   C6A14508   9.042  12.842   8.862 -0.0081 -0.1011  0.2172
  970loPI   C1B14509   9.333  13.480   6.843  0.3489 -0.0614 -0.0140
  970loPI   C2B14510   9.244  13.567   7.233 -0.1462  0.1780 -0.2037
  970loPI   C3B14511   9.271  13.519   7.687 -0.0228 -0.1801 -0.1114
  970loPI   C4B14512   9.268  13.622   8.059  0.3544 -0.0937  0.1580
  971loPI    C114513  16.198   9.233   6.215  0.0704  0.0049  0.2762
  971loPI    C214514  16.353   9.058   5.890 -0.1229  0.3740 -0.0216
  971loPI    C314515  16.584   9.288   6.122 -0.0718  0.4110 -0.1083
  971loPI   PO414516  15.932   9.069   6.226  0.2392 -0.1640 -0.0962
  971loPI   GL114517  15.794   8.808   6.609  0.0566 -0.1981 -0.1894
  971loPI   GL214518  16.167   8.881   6.624  0.2049 -0.2155  0.0511
  971loPI   C1A14519  15.860   8.765   7.102 -0.0084 -0.0085 -0.0205
  971loPI   C2A14520  15.902   8.775   7.516  0.0845  0.0637  0.0437
  971loPI   C3A14521  15.942   8.798   7.917  0.2847 -0.1767  0.0355
  971loPI   C4A14522  15.737   8.791   8.334 -0.0584  0.0379 -0.2993
  971loPI   C5A14523  15.946   8.879   8.738  0.1271  0.0146  0.1032
  971loPI   C6A14524  15.923   9.304   9.009 -0.1298 -0.1136  0.2174
  971loPI   C1B14525  16.372   8.893   7.038  0.0913  0.0876 -0.0278
  971loPI   C2B14526  16.426   8.831   7.409  0.0282  0.0121  0.1992
  971loPI   C3B14527  16.465   8.911   7.837 -0.2360 -0.2967 -0.1207
  971loPI   C4B14528  16.383   8.892   8.301 -0.1003 -0.0384 -0.1222
  972loPI    C114529   7.447   5.053   5.810 -0.0422 -0.0425 -0.0194
  972loPI    C214530   7.060   4.963   5.855 -0.0598  0.0890  0.1007
  972loPI    C314531   7.285   4.758   5.595 -0.3018  0.2652 -0.2565
  972loPI   PO414532   7.550   5.158   6.077  0.0334 -0.1215  0.0207
  972loPI   GL114533   7.603   5.138   6.538 -0.0212 -0.0286 -0.0518
  972loPI   GL214534   7.583   5.499   6.536 -0.1504 -0.1396 -0.0074
  972loPI   C1A14535   7.504   5.186   7.024  0.1513  0.1183  0.1264
  972loPI   C2A14536   7.387   5.050   7.466  0.1143  0.3194  0.0550
  972loPI   C3A14537   7.343   5.091   7.813 -0.0197  0.2864 -0.0047
  972loPI   C4A14538   7.525   5.096   8.215  0.0696 -0.0548  0.0608
  972loPI   C5A14539   7.287   5.165   8.571 -0.2104  0.1944 -0.1782
  972loPI   C6A14540   7.224   5.221   9.018 -0.1331 -0.3408 -0.0367
  972loPI   C1B14541   7.616   5.729   6.919 -0.0688  0.0842  0.0764
  972loPI   C2B14542   7.434   5.563   7.340  0.1418 -0.1036  0.0250
  972loPI   C3B14543   7.514   5.607   7.819 -0.1545  0.1313  0.3889
  972loPI   C4B14544   7.559   5.603   8.326  0.0141  0.2694 -0.0621
  973loPI    C114545   7.036  10.808   5.589 -0.0397 -0.0685 -0.1990
  973loPI    C214546   7.237  11.056   5.348 -0.1224  0.2116  0.0133
  973loPI    C314547   6.850  10.979   5.279 -0.0639  0.0358 -0.1277
  973loPI   PO414548   7.150  10.863   5.814  0.0179  0.1019 -0.0286
  973loPI   GL114549   7.218  10.846   6.271  0.0706  0.1898  0.2610
  973loPI   GL214550   6.978  10.956   6.523 -0.0330 -0.0673  0.2310
  973loPI   C1A14551   7.580  11.003   6.614 -0.2389  0.0439  0.0886
  973loPI   C2A14552   7.714  11.290   6.952 -0.0365 -0.0926 -0.0122
  973loPI   C3A14553   7.655  11.205   7.310 -0.2111  0.0900  0.3030
  973loPI   C4A14554   7.666  11.232   7.699  0.1290 -0.2673  0.3119
  973loPI   C5A14555   7.690  11.315   8.145 -0.0209  0.0606 -0.1007
  973loPI   C6A14556   7.636  11.433   8.592 -0.2083 -0.3544  0.4225
  973loPI   C1B14557   6.697  10.880   6.869 -0.3417  0.0456 -0.1679
  973loPI   C2B14558   6.692  10.857   7.336  0.2000  0.0579  0.0285
  973loPI   C3B14559   6.674  10.953   7.807 -0.2400  0.2630  0.1764
  973loPI   C4B14560   6.735  11.112   8.278  0.2296  0.1432  0.1553
  974loPI    C114561   3.713   4.749   5.633 -0.0338 -0.1301  0.0202
  974loPI    C214562   3.790   5.007   5.337 -0.1672  0.0661  0.1545
  974loPI    C314563   3.659   4.639   5.252  0.0894  0.0172 -0.0408
  974loPI   PO414564   3.892   4.800   5.822  0.0961 -0.1682  0.0324
  974loPI   GL114565   3.887   4.972   6.227  0.1118  0.3257  0.2258
  974loPI   GL214566   4.066   4.664   6.252 -0.2436 -0.1313 -0.2640
  974loPI   C1A14567   4.323   5.089   6.550 -0.0291  0.0600  0.0875
  974loPI   C2A14568   4.203   5.165   7.009 -0.0263 -0.1959 -0.0262
  974loPI   C3A14569   4.257   5.189   7.481 -0.0419  0.2392  0.0519
  974loPI   C4A14570   4.187   5.108   7.817  0.1784  0.1962 -0.0352
  974loPI   C5A14571   4.280   5.165   8.179 -0.0117 -0.2775 -0.0326
  974loPI   C6A14572   4.360   5.257   8.598  0.0530  0.0279 -0.1901
  974loPI   C1B14573   4.125   4.596   6.695  0.2224  0.0965  0.4178
  974loPI   C2B14574   4.127   4.657   7.090  0.1758 -0.1073  0.2616
  974loPI   C3B14575   4.150   4.662   7.537 -0.2322  0.2426 -0.0235
  974loPI   C4B14576   4.093   4.698   8.047 -0.0677 -0.0242 -0.1853
  975loPI    C114577  13.777   3.341   5.921  0.0899 -0.0977  0.0939
  975loPI    C214578  13.945   3.186   6.249  0.1570 -0.2962 -0.0320
  975loPI    C314579  14.058   3.059   5.888  0.0293 -0.1337 -0.1308
  975loPI   PO414580  13.539   3.456   6.048 -0.1734  0.0526 -0.0427
  975loPI   GL114581  13.664   3.525   6.481 -0.0572  0.0397  0.1015
  975loPI   GL214582  13.966   3.719   6.405  0.1596 -0.1326  0.0175
  975loPI   C1A14583  13.790   3.332   6.782 -0.1396 -0.0762 -0.0030
  975loPI   C2A14584  13.895   3.266   7.229 -0.3741 -0.1084 -0.4603
  975loPI   C3A14585  13.935   3.206   7.715  0.1034 -0.5272 -0.1883
  975loPI   C4A14586  14.004   3.239   8.136  0.1308 -0.1936 -0.4333
  975loPI   C5A14587  13.897   3.165   8.543  0.1709 -0.3367  0.0493
  975loPI   C6A14588  13.925   3.183   8.991  0.0767 -0.0538  0.1136
  975loPI   C1B14589  14.000   3.871   6.806 -0.3206  0.0801 -0.0723
  975loPI   C2B14590  14.040   3.755   7.214 -0.1024 -0.1522  0.1169
  975loPI   C3B14591  14.079   3.736   7.690  0.0572 -0.2063  0.3261
  975loPI   C4B14592  14.177   3.765   8.006 -0.0973 -0.1995  0.1371
  976loPI    C114593  13.175  15.600   6.195  0.0547 -0.1459 -0.1208
  976loPI    C214594  12.899  15.827   6.015  0.2807  0.2154 -0.0232
  976loPI    C314595  13.248  15.755   5.834  0.2201 -0.0390 -0.0429
  976loPI   PO414596  13.107  15.383   6.228  0.0591 -0.0130 -0.2285
  976loPI   GL114597  13.234  15.150   6.601  0.0945  0.0520 -0.0097
  976loPI   GL214598  12.917  15.204   6.663  0.0381  0.1363 -0.1320
  976loPI   C1A14599  13.367  15.227   6.963  0.0183 -0.2458  0.0766
  976loPI   C2A14600  13.298  15.265   7.302 -0.2583  0.0318  0.2717
  976loPI   C3A14601  13.334  15.290   7.727 -0.0541  0.0352  0.3000
  976loPI   C4A14602  13.510  15.189   8.072  0.1222  0.2084  0.0533
  976loPI   C5A14603  13.434  15.188   8.513 -0.2171 -0.1193 -0.3679
  976loPI   C6A14604  13.352  15.102   8.943  0.0554 -0.0113 -0.1621
  976loPI   C1B14605  12.843  15.064   6.970  0.0765 -0.2314 -0.0071
  976loPI   C2B14606  12.810  15.119   7.418 -0.0128 -0.1408 -0.1441
  976loPI   C3B14607  12.833  15.148   7.826  0.4037  0.2367  0.3083
  976loPI   C4B14608  12.900  15.060   8.127  0.0724  0.2155  0.2118
  977loPI    C114609   5.427  16.582   5.797  0.0285  0.0748 -0.1184
  977loPI    C214610   5.263  16.531   5.436 -0.2202 -0.2428  0.0330
  977loPI    C314611   5.543  16.277   5.566  0.1673  0.1078 -0.0929
  977loPI   PO414612   5.308  16.633   5.971  0.0980 -0.1115 -0.1397
  977loPI   GL114613   5.260  16.815   6.451  0.0824  0.1424 -0.0670
  977loPI   GL214614   5.081  17.097   6.492 -0.2458  0.0082  0.1387
  977loPI   C1A14615   5.372  16.750   6.948  0.1300  0.1838  0.0959
  977loPI   C2A14616   5.372  16.731   7.372 -0.0569 -0.0111 -0.1523
  977loPI   C3A14617   5.374  16.815   7.807 -0.4474 -0.0098  0.2823
  977loPI   C4A14618   5.429  16.842   8.239 -0.1267  0.0898  0.3341
  977loPI   C5A14619   5.384  16.548   8.599 -0.0182  0.0352  0.2873
  977loPI   C6A14620   5.323  16.454   8.968  0.0372 -0.0783  0.0624
  977loPI   C1B14621   4.980  17.079   6.925  0.2822  0.1088  0.0727
  977loPI   C2B14622   5.013  17.149   7.318  0.2075  0.1621 -0.0980
  977loPI   C3B14623   5.035  17.152   7.684  0.1210 -0.1747  0.1414
  977loPI   C4B14624   5.099  17.184   8.122 -0.1991 -0.1580 -0.2021
  978loPI    C114625   8.777  10.298   5.815 -0.0032 -0.0715 -0.1255
  978loPI    C214626   8.944  10.633   5.673  0.0067 -0.0284 -0.0134
  978loPI    C314627   8.933  10.303   5.447 -0.3050  0.1419 -0.2545
  978loPI   PO414628   8.866  10.372   6.106 -0.1661  0.0699  0.0511
  978loPI   GL114629   8.765  10.163   6.399  0.4937  0.2004 -0.0713
  978loPI   GL214630   8.503   9.996   6.455 -0.1161 -0.3351  0.3973
  978loPI   C1A14631   8.958  10.154   6.762  0.0175 -0.3659  0.1296
  978loPI   C2A14632   8.889  10.053   7.129 -0.2250  0.0928 -0.1086
  978loPI   C3A14633   8.836  10.145   7.545 -0.0532 -0.1785  0.1506
  978loPI   C4A14634   8.815  10.176   7.977  0.0189 -0.3458  0.0691
  978loPI   C5A14635   8.758  10.278   8.412 -0.2266 -0.0943  0.2203
  978loPI   C6A14636   8.857  10.261   8.853  0.0417  0.1331 -0.0455
  978loPI   C1B14637   8.362   9.973   6.906  0.0534  0.2102  0.1833
  978loPI   C2B14638   8.323   9.944   7.273  0.0330  0.3002 -0.1518
  978loPI   C3B14639   8.221  10.021   7.764 -0.0554 -0.2224 -0.0154
  978loPI   C4B14640   8.332  10.076   8.194 -0.2010 -0.0327  0.3260
  979loPI    C114641   1.145   7.890   6.137 -0.2158 -0.1957  0.2115
  979loPI    C214642   0.883   8.140   6.306 -0.0607  0.0046  0.1589
  979loPI    C314643   0.901   8.109   5.908  0.0947  0.1018  0.1575
  979loPI   PO414644   1.135   7.706   6.269 -0.1311  0.2135 -0.1144
  979loPI   GL114645   1.178   7.610   6.677  0.1766 -0.0752 -0.2120
  979loPI   GL214646   1.236   7.976   6.653  0.0767  0.3572  0.0813
  979loPI   C1A14647   1.017   7.591   7.040 -0.3305  0.2016  0.2502
  979loPI   C2A14648   1.072   7.545   7.438 -0.0167 -0.1366  0.2504
  979loPI   C3A14649   1.133   7.523   7.924 -0.0026  0.1328 -0.1051
  979loPI   C4A14650   1.181   7.811   8.292 -0.1026  0.0857 -0.0786
  979loPI   C5A14651   1.457   8.162   8.411 -0.2465  0.1760 -0.3142
  979loPI   C6A14652   1.685   8.333   8.745  0.1103 -0.3132  0.1240
  979loPI   C1B14653   1.184   8.115   7.060  0.0106  0.0310 -0.1408
  979loPI   C2B14654   1.275   8.373   7.445  0.0337 -0.0415  0.0013
  979loPI   C3B14655   1.371   8.582   7.887  0.0209  0.2845 -0.0940
  979loPI   C4B14656   1.397   8.677   8.305  0.2662  0.2328  0.2423
  980loPI    C114657   8.795   5.889   5.999 -0.1075  0.2647  0.0519
  980loPI    C214658   8.615   5.708   5.691  0.0165  0.1405  0.0519
  980loPI    C314659   8.852   6.023   5.626  0.1413  0.0378  0.0062
  980loPI   PO414660   8.612   5.939   6.139 -0.0952  0.2071  0.1277
  980loPI   GL114661   8.487   5.950   6.601 -0.0619 -0.1132 -0.0644
  980loPI   GL214662   8.721   5.924   6.823  0.3404 -0.1451 -0.0856
  980loPI   C1A14663   8.199   5.819   6.903 -0.1737 -0.1861 -0.1896
  980loPI   C2A14664   8.061   5.774   7.367  0.0963  0.0236  0.0633
  980loPI   C3A14665   8.158   5.722   7.729  0.2736 -0.1023 -0.0660
  980loPI   C4A14666   8.045   5.658   8.234  0.2424  0.1495  0.0026
  980loPI   C5A14667   7.930   5.820   8.629 -0.1634 -0.1148  0.0070
  980loPI   C6A14668   8.067   5.865   9.001 -0.4157  0.0148  0.0604
  980loPI   C1B14669   8.613   5.898   7.318  0.0290  0.0023 -0.0921
  980loPI   C2B14670   8.621   5.827   7.737 -0.0189  0.0888 -0.0159
  980loPI   C3B14671   8.533   5.792   8.145  0.0794 -0.2032 -0.0432
  980loPI   C4B14672   8.504   5.829   8.559  0.2390  0.3545 -0.2558
  981loPI    C114673   8.544  11.192   5.976  0.1256 -0.0667 -0.0393
  981loPI    C214674   8.707  11.540   5.865  0.1771 -0.0481  0.0922
  981loPI    C314675   8.366  11.416   5.697  0.1411  0.0820  0.0686
  981loPI   PO414676   8.462  11.163   6.223 -0.0112  0.3520 -0.3028
  981loPI   GL114677   8.436  11.403   6.469 -0.0525 -0.4911 -0.1278
  981loPI   GL214678   8.135  11.355   6.602  0.1258 -0.1391  0.0086
  981loPI   C1A14679   8.624  11.502   6.837  0.0839 -0.0794 -0.1770
  981loPI   C2A14680   8.665  11.503   7.242 -0.0255  0.1112  0.0983
  981loPI   C3A14681   8.614  11.573   7.673 -0.2431  0.1508 -0.0699
  981loPI   C4A14682   8.593  11.498   8.109  0.0620  0.0288 -0.1284
  981loPI   C5A14683   8.610  11.607   8.539  0.0180  0.0944 -0.0113
  981loPI   C6A14684   8.434  11.369   8.976  0.0446  0.1713 -0.0576
  981loPI   C1B14685   8.161  11.310   6.999  0.0583 -0.1735 -0.0937
  981loPI   C2B14686   8.128  11.401   7.388 -0.1406 -0.1075  0.0784
  981loPI   C3B14687   8.086  11.456   7.857  0.1913 -0.0594  0.2683
  981loPI   C4B14688   8.130  11.419   8.320  0.0911 -0.0183  0.3530
  982loPI    C114689   0.040   4.879   5.764 -0.0069 -0.2187 -0.0654
  982loPI    C214690  -0.190   4.936   5.442  0.0927 -0.0773 -0.1124
  982loPI    C314691   0.158   4.742   5.407  0.0509 -0.1608 -0.0687
  982loPI   PO414692  -0.012   5.153   5.868 -0.2480 -0.2316  0.3567
  982loPI   GL114693  -0.040   5.254   6.276  0.2627 -0.0911  0.3652
  982loPI   GL214694  -0.224   5.050   6.474  0.1971 -0.1050 -0.5189
  982loPI   C1A14695   0.005   5.448   6.679 -0.0818  0.1100  0.1791
  982loPI   C2A14696  -0.046   5.445   7.122  0.1974 -0.1666  0.1694
  982loPI   C3A14697   0.045   5.469   7.574  0.1063  0.3541  0.0297
  982loPI   C4A14698   0.007   5.503   8.038  0.5140  0.0087  0.0746
  982loPI   C5A14699   0.084   5.460   8.432  0.1991 -0.2018  0.0046
  982loPI   C6A14700  -0.087   5.599   8.831  0.3218  0.0538  0.4319
  982loPI   C1B14701  -0.073   4.922   6.905  0.0847 -0.4490  0.0228
  982loPI   C2B14702  -0.045   4.914   7.337 -0.0541  0.1351 -0.0254
  982loPI   C3B14703  -0.118   4.998   7.807 -0.0245  0.0555 -0.0402
  982loPI   C4B14704  -0.051   5.046   8.260  0.0032 -0.0015  0.0730
  983loPI    C114705   8.701   7.144   5.992 -0.1992 -0.1034  0.1241
  983loPI    C214706   8.905   6.860   5.799  0.0295  0.0023  0.2066
  983loPI    C314707   8.608   7.053   5.614 -0.1061 -0.2656  0.1393
  983loPI   PO414708   8.870   7.250   6.117 -0.0170  0.0166  0.4422
  983loPI   GL114709   8.806   7.255   6.607 -0.2863  0.1118 -0.0661
  983loPI   GL214710   9.033   7.407   6.664 -0.3377  0.1608 -0.1654
  983loPI   C1A14711   8.618   7.251   7.122 -0.0178 -0.0752  0.2824
  983loPI   C2A14712   8.583   7.162   7.547 -0.2375  0.0817 -0.0776
  983loPI   C3A14713   8.511   7.170   8.001  0.2062  0.0542 -0.5162
  983loPI   C4A14714   8.498   7.610   8.183  0.1409  0.0193  0.2896
  983loPI   C5A14715   8.270   7.939   8.450  0.1355  0.1295 -0.0056
  983loPI   C6A14716   8.529   8.364   8.663  0.0903  0.1603 -0.0847
  983loPI   C1B14717   9.141   7.372   7.085  0.1706  0.3226  0.2518
  983loPI   C2B14718   9.020   7.490   7.503  0.1526 -0.2279 -0.0810
  983loPI   C3B14719   9.003   7.387   8.001  0.1566  0.1922 -0.2076
  983loPI   C4B14720   8.828   7.376   8.425  0.2724 -0.2458  0.2243
  984loPI    C114721   6.297   6.284   5.873 -0.1922 -0.2522  0.3369
  984loPI    C214722   6.241   5.980   5.620 -0.1007  0.0309 -0.0334
  984loPI    C314723   5.961   6.264   5.656  0.0697  0.2149 -0.1384
  984loPI   PO414724   6.339   6.174   6.118 -0.1432 -0.0515  0.1072
  984loPI   GL114725   6.282   6.149   6.597  0.0271 -0.0836  0.1836
  984loPI   GL214726   5.949   6.206   6.498 -0.3450  0.0711 -0.4049
  984loPI   C1A14727   6.425   6.220   7.006  0.4050 -0.0274  0.4588
  984loPI   C2A14728   6.356   6.302   7.399  0.1333  0.0147  0.0179
  984loPI   C3A14729   6.297   6.112   7.784 -0.0265 -0.1733  0.0625
  984loPI   C4A14730   6.228   6.122   8.177 -0.3740 -0.2466 -0.1240
  984loPI   C5A14731   5.954   6.427   8.404 -0.2791  0.0422 -0.2356
  984loPI   C6A14732   5.691   6.600   8.605  0.0961 -0.1764 -0.1724
  984loPI   C1B14733   5.921   6.128   6.986 -0.0847 -0.0340  0.1906
  984loPI   C2B14734   5.839   6.088   7.461  0.2115 -0.1884  0.2354
  984loPI   C3B14735   5.791   6.070   7.927  0.0792  0.0784  0.0549
  984loPI   C4B14736   5.782   5.959   8.350  0.1980 -0.2010 -0.2133
  985loPI    C114737  10.162   3.473   6.187 -0.0204  0.1239  0.0788
  985loPI    C214738  10.509   3.349   6.034 -0.0871  0.0932 -0.0488
  985loPI    C314739  10.344   3.690   5.906 -0.2370 -0.0286 -0.1847
  985loPI   PO414740  10.209   3.405   6.407 -0.2679 -0.2607 -0.0974
  985loPI   GL114741  10.484   3.390   6.637 -0.1108  0.0871  0.0012
  985loPI   GL214742  10.749   3.187   6.533  0.0924  0.0284 -0.1791
  985loPI   C1A14743  10.453   3.310   7.029  0.1215  0.0949 -0.2499
  985loPI   C2A14744  10.395   3.256   7.427  0.0801  0.0481 -0.4550
  985loPI   C3A14745  10.173   3.139   7.785 -0.0818  0.0666  0.0701
  985loPI   C4A14746  10.124   3.044   8.163  0.1356  0.1363 -0.1436
  985loPI   C5A14747   9.966   2.980   8.662  0.1181 -0.1965  0.1278
  985loPI   C6A14748   9.823   3.162   9.022 -0.0945 -0.2994  0.0933
  985loPI   C1B14749  10.855   3.127   6.885 -0.1497 -0.0066  0.0033
  985loPI   C2B14750  10.848   3.076   7.321  0.3503 -0.1329 -0.1580
  985loPI   C3B14751  10.925   3.044   7.682 -0.2272  0.2180 -0.1000
  985loPI   C4B14752  11.089   3.227   8.049  0.1180  0.0351  0.0843
  986loPI    C114753   6.423  12.075   6.017 -0.0500 -0.0073  0.0045
  986loPI    C214754   6.149  12.083   5.726  0.1040  0.0009 -0.1416
  986loPI    C314755   6.505  11.914   5.661  0.0723 -0.1650  0.1032
  986loPI   PO414756   6.460  12.283   6.131  0.1818 -0.0331 -0.2420
  986loPI   GL114757   6.371  12.545   6.401 -0.3862 -0.3188  0.1880
  986loPI   GL214758   6.069  12.542   6.426 -0.0253  0.4248  0.2120
  986loPI   C1A14759   6.658  12.785   6.760  0.0286  0.1563  0.2108
  986loPI   C2A14760   6.810  12.791   7.114  0.0100 -0.1785  0.3073
  986loPI   C3A14761   6.816  12.828   7.567 -0.1985  0.0267  0.1192
  986loPI   C4A14762   6.695  12.878   8.042  0.0378 -0.0992  0.0532
  986loPI   C5A14763   6.854  12.911   8.482 -0.0665  0.2642 -0.1103
  986loPI   C6A14764   7.217  13.060   8.581 -0.0643 -0.2340  0.2716
  986loPI   C1B14765   6.196  12.723   6.924  0.0388 -0.1014  0.2716
  986loPI   C2B14766   6.285  12.732   7.398  0.2380  0.1072 -0.1799
  986loPI   C3B14767   6.270  12.715   7.789  0.0547  0.1992 -0.4041
  986loPI   C4B14768   6.182  12.701   8.275 -0.0415 -0.0218 -0.0697
  987loPI    C114769   9.085  11.483   6.172 -0.1440  0.0914  0.1336
  987loPI    C214770   9.280  11.299   5.875 -0.2565  0.0327  0.0957
  987loPI    C314771   9.485  11.494   6.158 -0.1502  0.1209 -0.0407
  987loPI   PO414772   8.927  11.348   6.251  0.1519 -0.0877 -0.1073
  987loPI   GL114773   8.797  11.087   6.623  0.0591  0.5640  0.2591
  987loPI   GL214774   8.508  11.006   6.734  0.0209 -0.0056 -0.2620
  987loPI   C1A14775   9.050  11.157   6.985 -0.0535 -0.1944 -0.2998
  987loPI   C2A14776   9.044  11.200   7.483  0.0601 -0.2479  0.4572
  987loPI   C3A14777   9.106  11.066   7.865 -0.0583 -0.1154  0.0864
  987loPI   C4A14778   8.892  11.158   8.302  0.0186 -0.2487 -0.0492
  987loPI   C5A14779   8.986  11.226   8.627  0.1327  0.0931  0.0018
  987loPI   C6A14780   9.059  11.307   9.047  0.1645  0.2642 -0.0989
  987loPI   C1B14781   8.608  11.057   7.136  0.2447  0.1723 -0.3337
  987loPI   C2B14782   8.547  11.116   7.574  0.0896 -0.0864 -0.0880
  987loPI   C3B14783   8.541  11.018   7.971  0.1889  0.0293  0.1519
  987loPI   C4B14784   8.440  10.690   8.233 -0.0681  0.2040 -0.1373
  988loPI    C114785  14.158   2.645   6.130  0.0558  0.1487  0.0537
  988loPI    C214786  14.521   2.603   5.968  0.0472 -0.2198  0.1208
  988loPI    C314787  14.198   2.624   5.733  0.0863 -0.1750  0.0709
  988loPI   PO414788  14.170   2.733   6.296 -0.0896  0.3065 -0.3759
  988loPI   GL114789  14.448   2.789   6.547  0.2377  0.3102 -0.1418
  988loPI   GL214790  14.616   3.051   6.651 -0.0724  0.1509 -0.1987
  988loPI   C1A14791  14.446   2.579   6.857  0.0082  0.0310  0.0446
  988loPI   C2A14792  14.603   2.446   7.266  0.4336  0.1356  0.2883
  988loPI   C3A14793  14.578   2.501   7.731  0.1691  0.1237 -0.2301
  988loPI   C4A14794  14.722   2.459   8.161 -0.1276 -0.2853 -0.3671
  988loPI   C5A14795  14.668   2.303   8.494 -0.0506  0.1100  0.1593
  988loPI   C6A14796  14.398   2.204   8.877  0.0413  0.1058 -0.0749
  988loPI   C1B14797  14.731   2.982   7.109 -0.0835 -0.1811 -0.0703
  988loPI   C2B14798  14.736   2.963   7.534  0.0746 -0.0748 -0.1060
  988loPI   C3B14799  14.786   3.011   7.965  0.1953  0.1793 -0.4153
  988loPI   C4B14800  14.959   3.051   8.325  0.0447  0.2052  0.1052
  989loPI    C114801   7.363   9.157   5.876 -0.1196 -0.1319 -0.0979
  989loPI    C214802   7.714   9.118   5.688  0.0360  0.3286  0.0824
  989loPI    C314803   7.470   9.422   5.596 -0.1781  0.1869  0.1741
  989loPI   PO414804   7.408   9.232   6.089 -0.3749 -0.0030  0.2625
  989loPI   GL114805   7.199   9.263   6.446  0.1718 -0.3033 -0.3282
  989loPI   GL214806   6.977   9.499   6.459 -0.2815  0.5805 -0.2123
  989loPI   C1A14807   7.218   9.200   6.827 -0.1587  0.0990  0.1329
  989loPI   C2A14808   7.123   9.265   7.222  0.0518 -0.2447 -0.1084
  989loPI   C3A14809   7.075   9.300   7.677 -0.0629 -0.0455  0.1653
  989loPI   C4A14810   7.231   9.336   8.092  0.2212 -0.1079  0.4628
  989loPI   C5A14811   7.559   9.287   8.375 -0.1485 -0.1647 -0.1172
  989loPI   C6A14812   7.732   9.636   8.547 -0.1214 -0.2678  0.1414
  989loPI   C1B14813   6.858   9.511   6.909  0.0059 -0.3224 -0.0095
  989loPI   C2B14814   6.774   9.613   7.375  0.2604 -0.1557  0.1116
  989loPI   C3B14815   6.745   9.658   7.798  0.3008  0.1353 -0.1800
  989loPI   C4B14816   6.871   9.646   8.178  0.1301  0.2067  0.1065
  990loPI    C114817  16.535   1.205   5.739  0.0161 -0.2184  0.0976
  990loPI    C214818  16.800   1.314   5.460  0.0277 -0.2449  0.0982
  990loPI    C314819  16.713   0.927   5.512 -0.1120 -0.2267  0.0060
  990loPI   PO414820  16.680   1.350   5.989 -0.1974  0.0939  0.0340
  990loPI   GL114821  17.010   1.388   6.277  0.0977 -0.3767  0.0533
  990loPI   GL214822  16.755   1.312   6.461  0.1295  0.3385  0.1514
  990loPI   C1A14823  17.142   1.241   6.778  0.0615 -0.1393 -0.1219
  990loPI   C2A14824  17.047   1.168   7.267  0.1133 -0.1129  0.1362
  990loPI   C3A14825  17.175   1.153   7.576  0.1424 -0.3467  0.1896
  990loPI   C4A14826  17.156   1.189   8.063 -0.0066  0.0124  0.3886
  990loPI   C5A14827  16.931   1.320   8.455 -0.2158  0.3488  0.0506
  990loPI   C6A14828  17.034   1.456   8.898 -0.1840 -0.0550  0.0390
  990loPI   C1B14829  16.669   1.117   6.904 -0.4368 -0.1050  0.3337
  990loPI   C2B14830  16.607   1.040   7.261 -0.0901 -0.3539 -0.0038
  990loPI   C3B14831  16.620   1.019   7.641 -0.0884  0.1087 -0.0116
  990loPI   C4B14832  16.629   1.114   8.040 -0.0504  0.1120 -0.2414
  991loPI    C114833   9.655  12.501   5.964  0.0879 -0.2148 -0.0073
  991loPI    C214834   9.444  12.238   5.749 -0.0661 -0.1756  0.0943
  991loPI    C314835   9.719  12.466   5.571 -0.0815 -0.2549 -0.0324
  991loPI   PO414836   9.715  12.380   6.179  0.1508  0.0238  0.0066
  991loPI   GL114837   9.984  12.414   6.443  0.1036  0.0285  0.4819
  991loPI   GL214838  10.137  12.661   6.543 -0.0995  0.2103  0.1266
  991loPI   C1A14839   9.896  12.366   6.855  0.0827  0.3367 -0.0617
  991loPI   C2A14840   9.823  12.310   7.235 -0.1592  0.0265  0.0661
  991loPI   C3A14841   9.831  12.312   7.775  0.1690 -0.0351  0.2317
  991loPI   C4A14842   9.855  12.217   8.167 -0.0415 -0.1571 -0.0441
  991loPI   C5A14843   9.703  12.382   8.519 -0.2348  0.0553  0.0158
  991loPI   C6A14844   9.673  12.810   8.744 -0.1642  0.0894 -0.1295
  991loPI   C1B14845   9.985  12.791   6.926 -0.1354 -0.1663  0.0181
  991loPI   C2B14846   9.997  12.822   7.404 -0.0899 -0.3642 -0.1446
  991loPI   C3B14847   9.918  12.878   7.792 -0.0296 -0.0130 -0.1143
  991loPI   C4B14848   9.789  12.768   8.240 -0.2117 -0.0662  0.0645
  992loPI    C114849  12.696   1.838   5.813 -0.0645  0.2725 -0.1625
  992loPI    C214850  12.568   1.462   5.767  0.0569  0.2004  0.0725
  992loPI    C314851  12.692   1.671   5.449  0.1256 -0.0075 -0.0400
  992loPI   PO414852  12.495   1.892   6.103 -0.0858 -0.1890 -0.3648
  992loPI   GL114853  12.541   1.805   6.546 -0.1354 -0.1714 -0.2294
  992loPI   GL214854  12.296   1.751   6.713  0.1772  0.1068 -0.0198
  992loPI   C1A14855  12.790   1.805   6.934 -0.0706  0.0209 -0.3150
  992loPI   C2A14856  12.931   1.720   7.365 -0.2778 -0.1636  0.0095
  992loPI   C3A14857  13.033   1.577   7.677  0.0483 -0.2054  0.0657
  992loPI   C4A14858  12.965   1.458   8.038  0.0167  0.3023  0.1579
  992loPI   C5A14859  12.994   1.601   8.399  0.1427  0.0622 -0.0734
  992loPI   C6A14860  13.042   1.721   8.743  0.0050  0.2688 -0.0959
  992loPI   C1B14861  12.318   1.614   7.119 -0.1077  0.0279  0.0037
  992loPI   C2B14862  12.534   1.502   7.464  0.0399 -0.0168  0.3016
  992loPI   C3B14863  12.541   1.322   7.921  0.0038 -0.2030 -0.1487
  992loPI   C4B14864  12.491   1.325   8.383 -0.2039 -0.0615 -0.0554
  993loPI    C114865  12.341  10.940   5.885  0.0896  0.0880  0.1964
  993loPI    C214866  12.023  11.182   5.864 -0.0685 -0.1186  0.1705
  993loPI    C314867  12.014  10.825   5.685  0.2898 -0.0074 -0.0808
  993loPI   PO414868  12.330  10.940   6.286 -0.0879  0.2578  0.2755
  993loPI   GL114869  12.664  11.086   6.624 -0.4442  0.0748  0.0521
  993loPI   GL214870  12.747  10.661   6.579  0.1044 -0.1492 -0.0680
  993loPI   C1A14871  12.875  11.248   6.883  0.0569  0.1709 -0.2357
  993loPI   C2A14872  12.780  11.199   7.197  0.3607 -0.1832 -0.1258
  993loPI   C3A14873  12.760  11.166   7.650 -0.0170 -0.0480  0.2321
  993loPI   C4A14874  12.879  11.295   8.062 -0.0292 -0.3110 -0.1587
  993loPI   C5A14875  12.829  11.190   8.503  0.0783  0.4395 -0.0354
  993loPI   C6A14876  13.076  11.251   8.791 -0.1410 -0.1752 -0.2212
  993loPI   C1B14877  12.657  10.757   7.039  0.0754 -0.1535  0.0125
  993loPI   C2B14878  12.721  10.612   7.319  0.2359  0.2228  0.0380
  993loPI   C3B14879  12.719  10.676   7.721 -0.0879  0.0563 -0.1771
  993loPI   C4B14880  12.674  10.765   8.176  0.3133  0.1801 -0.0853
  994loPI    C114881  11.727   9.971   6.117 -0.0604 -0.2426  0.0743
  994loPI    C214882  11.766  10.014   5.721 -0.1183 -0.0141  0.0921
  994loPI    C314883  11.569   9.699   5.870 -0.2405 -0.0140 -0.0666
  994loPI   PO414884  11.641  10.154   6.218 -0.0173 -0.1817 -0.3111
  994loPI   GL114885  11.653  10.386   6.619 -0.1445  0.0103 -0.0386
  994loPI   GL214886  11.658  10.587   6.849  0.0241  0.2142  0.2490
  994loPI   C1A14887  11.971  10.226   6.860  0.1601  0.0931 -0.3926
  994loPI   C2A14888  12.090   9.995   7.284  0.0891 -0.3230  0.0170
  994loPI   C3A14889  12.038  10.066   7.736  0.0637  0.1266 -0.1067
  994loPI   C4A14890  11.997  10.125   8.112 -0.1882 -0.0574  0.4191
  994loPI   C5A14891  12.031  10.249   8.609  0.1122 -0.5577 -0.0109
  994loPI   C6A14892  11.808  10.213   8.968  0.1891  0.0532 -0.6086
  994loPI   C1B14893  11.746  10.393   7.256 -0.1846 -0.4062  0.0702
  994loPI   C2B14894  11.650  10.407   7.683 -0.0704  0.3241  0.2708
  994loPI   C3B14895  11.639  10.442   8.048  0.2846  0.1368  0.0015
  994loPI   C4B14896  11.602  10.590   8.556  0.2222 -0.0512 -0.2488
  995loPI    C114897  13.479   8.390   5.944 -0.0767 -0.3855  0.1630
  995loPI    C214898  13.633   8.306   5.584 -0.1445 -0.2918  0.1116
  995loPI    C314899  13.254   8.429   5.615 -0.1716 -0.4023  0.2258
  995loPI   PO414900  13.668   8.657   6.034 -0.0610 -0.1016  0.3143
  995loPI   GL114901  13.565   8.944   6.393 -0.2130 -0.3306 -0.0168
  995loPI   GL214902  13.829   9.017   6.460 -0.2020 -0.1918  0.1565
  995loPI   C1A14903  13.545   8.740   6.883  0.0002 -0.2856 -0.0478
  995loPI   C2A14904  13.622   8.643   7.322 -0.0574 -0.0156 -0.1795
  995loPI   C3A14905  13.510   8.526   7.717  0.0957 -0.2167  0.0705
  995loPI   C4A14906  13.547   8.656   8.143 -0.0569 -0.4034 -0.1778
  995loPI   C5A14907  13.485   8.751   8.500 -0.1871  0.4294 -0.1739
  995loPI   C6A14908  13.609   8.700   8.845 -0.2660  0.2458 -0.2019
  995loPI   C1B14909  13.789   9.206   6.911  0.0495  0.1462 -0.1145
  995loPI   C2B14910  13.677   9.143   7.282  0.4368  0.1764 -0.2152
  995loPI   C3B14911  13.594   9.080   7.756  0.1864  0.1991 -0.0503
  995loPI   C4B14912  13.649   9.236   8.176  0.3662  0.1478  0.1403
  996loPI    C114913   0.225  10.051   6.242 -0.0730 -0.1535 -0.0327
  996loPI    C214914  -0.047   9.758   6.237 -0.3951  0.1410 -0.1171
  996loPI    C314915  -0.070  10.057   5.973  0.0115  0.1741 -0.1213
  996loPI   PO414916   0.182  10.123   6.512  0.1970 -0.1432  0.1595
  996loPI   GL114917   0.277  10.123   6.799  0.4109 -0.0649 -0.0658
  996loPI   GL214918   0.431  10.212   7.022 -0.2468 -0.0008 -0.0219
  996loPI   C1A14919   0.259   9.775   7.132 -0.0367 -0.0426  0.0142
  996loPI   C2A14920   0.269   9.745   7.555 -0.1440 -0.1206  0.0235
  996loPI   C3A14921   0.176   9.707   7.933 -0.2299  0.4091  0.0931
  996loPI   C4A14922   0.214   9.662   8.392 -0.2591  0.2531  0.1212
  996loPI   C5A14923   0.407   9.472   8.800 -0.2038 -0.1334 -0.1429
  996loPI   C6A14924   0.676   9.731   9.056 -0.0208 -0.0593  0.2850
  996loPI   C1B14925   0.267  10.266   7.455 -0.1187  0.3982 -0.2861
  996loPI   C2B14926   0.432  10.165   7.859  0.2242 -0.2008 -0.0477
  996loPI   C3B14927   0.292  10.211   8.276 -0.0902  0.0106  0.0864
  996loPI   C4B14928   0.271  10.059   8.678 -0.0721  0.0848  0.1483
  997loPI    C114929  11.265   9.301   5.846 -0.1150 -0.2300  0.0270
  997loPI    C214930  11.359   8.951   5.674  0.2191 -0.0631 -0.1401
  997loPI    C314931  11.333   9.283   5.452  0.2154  0.0761  0.0649
  997loPI   PO414932  11.328   9.250   6.119  0.1994 -0.1149  0.0664
  997loPI   GL114933  11.289   9.133   6.580 -0.0618 -0.0845 -0.0859
  997loPI   GL214934  11.478   9.417   6.721  0.6209 -0.2222 -0.0149
  997loPI   C1A14935  11.216   8.953   6.958 -0.3221 -0.0197 -0.0093
  997loPI   C2A14936  11.272   8.855   7.358 -0.0908  0.0398  0.0041
  997loPI   C3A14937  11.304   8.868   7.804 -0.1350 -0.0199  0.2611
  997loPI   C4A14938  11.255   8.964   8.233 -0.0815 -0.0643 -0.1324
  997loPI   C5A14939  11.168   9.051   8.692 -0.0199  0.3510 -0.1071
  997loPI   C6A14940  11.233   8.848   9.046 -0.2765 -0.2456  0.2566
  997loPI   C1B14941  11.394   9.338   7.189  0.1075  0.0459  0.1284
  997loPI   C2B14942  11.437   9.449   7.588 -0.0613 -0.0610 -0.2295
  997loPI   C3B14943  11.331   9.474   8.051  0.1120 -0.1746  0.3532
  997loPI   C4B14944  11.266   9.637   8.514 -0.3650  0.1614  0.0915
  998loPI    C114945   0.242   7.439   5.898  0.1210  0.1117 -0.0608
  998loPI    C214946  -0.108   7.499   5.715  0.1033 -0.1356 -0.1116
  998loPI    C314947   0.135   7.207   5.591  0.1237 -0.2598  0.2118
  998loPI   PO414948   0.205   7.500   6.191 -0.2157  0.0535  0.0083
  998loPI   GL114949   0.329   7.297   6.571  0.1858  0.0426  0.1810
  998loPI   GL214950   0.042   7.400   6.636  0.1100  0.1545 -0.0805
  998loPI   C1A14951   0.521   7.471   6.906 -0.0408  0.0326  0.2271
  998loPI   C2A14952   0.534   7.358   7.501  0.2168 -0.4515 -0.2396
  998loPI   C3A14953   0.578   7.521   7.882  0.2419  0.1587 -0.1743
  998loPI   C4A14954   0.713   7.842   8.150  0.1521 -0.0889 -0.0428
  998loPI   C5A14955   0.738   7.777   8.664  0.1871  0.1851 -0.1559
  998loPI   C6A14956   1.030   7.851   8.882 -0.0391  0.1192  0.0955
  998loPI   C1B14957  -0.008   7.295   7.071  0.0528  0.0070 -0.0684
  998loPI   C2B14958   0.011   7.292   7.463 -0.0481  0.1309  0.0247
  998loPI   C3B14959   0.089   7.369   7.862  0.0417 -0.0828  0.0665
  998loPI   C4B14960   0.151   7.381   8.290 -0.2246 -0.2833 -0.1344
  999loPI    C114961   6.783  15.405   6.141  0.1286  0.1378  0.0263
  999loPI    C214962   6.635  15.166   5.856  0.0072  0.1855  0.0488
  999loPI    C314963   6.875  15.470   5.757  0.0738  0.1209  0.0103
  999loPI   PO414964   6.962  15.228   6.354  0.0752 -0.2482 -0.1200
  999loPI   GL114965   7.195  15.364   6.596 -0.2059  0.2208  0.1361
  999loPI   GL214966   6.976  15.635   6.659 -0.1017 -0.0930 -0.0749
  999loPI   C1A14967   7.480  15.415   6.944 -0.0631  0.1252  0.0598
  999loPI   C2A14968   7.398  15.345   7.361  0.0591 -0.2149 -0.1091
  999loPI   C3A14969   7.446  15.451   7.822  0.0502  0.0329 -0.1140
  999loPI   C4A14970   7.339  15.415   8.270  0.1053 -0.0703  0.2815
  999loPI   C5A14971   7.136  15.645   8.685  0.2189  0.2136  0.1016
  999loPI   C6A14972   6.851  16.031   8.745  0.0475  0.1308 -0.0632
  999loPI   C1B14973   7.168  15.742   7.048  0.0597  0.2234  0.1966
  999loPI   C2B14974   7.152  15.819   7.452  0.0962  0.1258  0.1925
  999loPI   C3B14975   7.039  15.862   7.801 -0.1859 -0.2365 -0.2276
  999loPI   C4B14976   6.959  15.810   8.228  0.0600 -0.2236 -0.1273
 1000loPI    C114977  14.553   6.843   5.958 -0.0918 -0.1157 -0.1040
 1000loPI    C214978  14.638   6.521   5.736  0.0695 -0.0208 -0.1817
 1000loPI    C314979  14.638   6.885   5.570  0.0639  0.0379 -0.0547
 1000loPI   PO414980  14.599   6.765   6.172 -0.0999  0.3113  0.2637
 1000loPI   GL114981  14.964   6.808   6.442 -0.0754  0.1351  0.0042
 1000loPI   GL214982  14.793   7.115   6.543  0.0891  0.1109  0.1195
 1000loPI   C1A14983  15.300   6.907   6.729 -0.0787 -0.2062 -0.1291
 1000loPI   C2A14984  15.428   6.865   7.061 -0.1332 -0.2115  0.2882
 1000loPI   C3A14985  15.467   6.860   7.438  0.2930  0.1667 -0.2769
 1000loPI   C4A14986  15.508   6.797   7.852  0.2526  0.1793 -0.5356
 1000loPI   C5A14987  15.465   6.863   8.306 -0.4452 -0.0614 -0.0636
 1000loPI   C6A14988  15.509   7.092   8.672  0.4825 -0.0573 -0.1988
 1000loPI   C1B14989  14.954   7.186   6.977 -0.1070 -0.0402  0.0555
 1000loPI   C2B14990  15.125   7.198   7.363  0.3465  0.0383 -0.1354
 1000loPI   C3B14991  15.124   7.128   7.745 -0.2983  0.1552 -0.2476
 1000loPI   C4B14992  15.051   7.206   8.211 -0.1251  0.0282  0.2790
 1001loPI    C114993  16.901   8.394   5.873 -0.1868 -0.3212  0.1764
 1001loPI    C214994  16.510   8.478   5.884 -0.0772  0.2770 -0.0789
 1001loPI    C314995  16.719   8.547   5.551  0.2238 -0.1785  0.0064
 1001loPI   PO414996  16.863   8.162   6.040 -0.3494  0.1847  0.1054
 1001loPI   GL114997  16.904   7.916   6.380  0.1041  0.1022 -0.1036
 1001loPI   GL214998  17.103   7.878   6.532 -0.2015  0.2248  0.1981
 1001loPI   C1A14999  16.672   8.063   6.838  0.0481  0.0905 -0.2970
 1001loPI   C2A15000  16.706   8.030   7.312 -0.1642 -0.1504 -0.0922
 1001loPI   C3A15001  16.724   8.073   7.728 -0.1892  0.4362 -0.1570
 1001loPI   C4A15002  16.761   8.086   8.287  0.3190 -0.2226  0.0594
 1001loPI   C5A15003  16.739   8.211   8.687 -0.0354 -0.1393 -0.4235
 1001loPI   C6A15004  16.679   8.538   8.935 -0.2815  0.0518  0.0896
 1001loPI   C1B15005  17.029   7.701   6.866 -0.2675  0.1320 -0.1955
 1001loPI   C2B15006  17.018   7.627   7.279  0.1596  0.3402 -0.3908
 1001loPI   C3B15007  17.104   7.742   7.685  0.1351 -0.1384  0.0264
 1001loPI   C4B15008  17.053   7.708   8.093 -0.1336 -0.0847 -0.0779
 1002loPI    C115009   7.523   0.043   5.923 -0.2171  0.1070  0.0487
 1002loPI    C215010   7.393  -0.300   5.764  0.0515 -0.0778  0.2188
 1002loPI    C315011   7.680  -0.090   5.581 -0.0314 -0.0017  0.1748
 1002loPI   PO415012   7.497  -0.053   6.216 -0.2366 -0.1168  0.0692
 1002loPI   GL115013   7.323  -0.216   6.589 -0.0334  0.4476  0.1204
 1002loPI   GL215014   7.711  -0.243   6.630 -0.2142  0.2241  0.0011
 1002loPI   C1A15015   7.452   0.037   6.971  0.0041  0.0186 -0.0003
 1002loPI   C2A15016   7.372   0.014   7.479 -0.0667 -0.3397 -0.1395
 1002loPI   C3A15017   7.386  -0.046   7.827  0.2562  0.0706  0.0213
 1002loPI   C4A15018   7.417  -0.092   8.301 -0.2119  0.0365  0.3807
 1002loPI   C5A15019   7.537  -0.135   8.642 -0.0211  0.2701  0.2966
 1002loPI   C6A15020   7.875  -0.303   8.776  0.0080  0.0128 -0.1402
 1002loPI   C1B15021   7.830  -0.410   6.981  0.0587  0.1568 -0.2372
 1002loPI   C2B15022   7.742  -0.335   7.449 -0.1108  0.0938  0.2367
 1002loPI   C3B15023   7.792  -0.346   7.847  0.0331 -0.2094  0.0211
 1002loPI   C4B15024   7.746  -0.464   8.301  0.1064 -0.0027  0.0814
 1003loPI    C115025   6.816  16.511   5.979  0.1652 -0.0673  0.1296
 1003loPI    C215026   7.195  16.575   5.867  0.1053 -0.0416 -0.0623
 1003loPI    C315027   6.929  16.433   5.603  0.0171 -0.2068  0.1125
 1003loPI   PO415028   6.940  16.344   6.239  0.2100  0.2195  0.1634
 1003loPI   GL115029   6.838  16.242   6.654 -0.0771 -0.3293  0.0451
 1003loPI   GL215030   7.172  16.100   6.629  0.0227 -0.1348  0.2569
 1003loPI   C1A15031   6.739  16.170   7.107  0.2258  0.1020 -0.2649
 1003loPI   C2A15032   6.780  16.238   7.542  0.0960 -0.0432 -0.2281
 1003loPI   C3A15033   6.628  16.139   7.888 -0.0195  0.0780  0.3928
 1003loPI   C4A15034   6.638  16.168   8.310 -0.2581 -0.0961  0.0284
 1003loPI   C5A15035   6.896  16.533   8.625  0.2259  0.0269 -0.2072
 1003loPI   C6A15036   7.055  16.822   9.008  0.1512 -0.0444 -0.0435
 1003loPI   C1B15037   7.298  16.286   6.983  0.1547 -0.1013 -0.0775
 1003loPI   C2B15038   7.222  16.400   7.392  0.2697  0.3780  0.0253
 1003loPI   C3B15039   7.171  16.345   7.806 -0.0746  0.2653  0.1083
 1003loPI   C4B15040   7.124  16.333   8.130 -0.2185  0.2849  0.2363
 1004loPI    C115041   5.842  13.835   6.178  0.0799  0.4325  0.0458
 1004loPI    C215042   6.054  13.747   5.850 -0.1997 -0.0454 -0.0171
 1004loPI    C315043   5.714  13.955   5.819  0.0250  0.3397  0.0339
 1004loPI   PO415044   6.038  13.869   6.350  0.0712  0.1276 -0.1458
 1004loPI   GL115045   5.869  14.016   6.813 -0.0348  0.1889 -0.0737
 1004loPI   GL215046   6.111  14.109   6.853 -0.1269 -0.3292  0.1346
 1004loPI   C1A15047   5.590  13.935   7.130 -0.2930  0.1272 -0.0062
 1004loPI   C2A15048   5.572  14.066   7.541 -0.0048  0.1605  0.2522
 1004loPI   C3A15049   5.647  13.975   7.945  0.2064 -0.1670  0.0108
 1004loPI   C4A15050   5.860  13.911   8.358  0.0174 -0.0632 -0.6002
 1004loPI   C5A15051   5.802  14.251   8.721 -0.0045 -0.1065 -0.1759
 1004loPI   C6A15052   6.130  14.389   8.992 -0.0191  0.0246  0.2126
 1004loPI   C1B15053   6.050  14.072   7.296  0.1601  0.3526 -0.1951
 1004loPI   C2B15054   6.088  14.087   7.682  0.0699  0.1719  0.0330
 1004loPI   C3B15055   6.208  14.100   8.099  0.0263 -0.0238 -0.2871
 1004loPI   C4B15056   6.258  14.163   8.557  0.3082  0.0665  0.1671
 1005loPI    C115057   9.698   0.811   5.942 -0.4328  0.0544  0.1726
 1005loPI    C215058   9.333   0.726   5.803 -0.3263  0.0017 -0.0793
 1005loPI    C315059   9.656   0.584   5.615 -0.1763  0.0074  0.1709
 1005loPI   PO415060   9.660   0.950   6.083  0.0001  0.0415 -0.0786
 1005loPI   GL115061   9.744   0.934   6.516 -0.0502 -0.0857  0.0236
 1005loPI   GL215062   9.831   0.768   6.798 -0.2006 -0.1127  0.0898
 1005loPI   C1A15063   9.491   1.040   6.954  0.1009  0.1840 -0.2970
 1005loPI   C2A15064   9.488   1.053   7.325 -0.1525 -0.0427  0.0676
 1005loPI   C3A15065   9.446   1.001   7.767 -0.4683  0.3559  0.2473
 1005loPI   C4A15066   9.590   0.897   8.185  0.1088 -0.0853  0.0394
 1005loPI   C5A15067   9.565   0.987   8.575  0.1001 -0.0419  0.1245
 1005loPI   C6A15068   9.554   1.280   8.949 -0.0043 -0.0113 -0.0683
 1005loPI   C1B15069   9.833   0.696   7.233 -0.2097  0.1753 -0.0561
 1005loPI   C2B15070   9.822   0.659   7.711  0.0272  0.1730  0.2567
 1005loPI   C3B15071   9.949   0.589   8.137 -0.0651  0.0903 -0.0157
 1005loPI   C4B15072   9.990   0.712   8.647 -0.2383  0.2564  0.2060
 1006loPI    C115073   7.704  14.014   5.636 -0.0618  0.1553  0.0390
 1006loPI    C215074   8.037  13.865   5.473 -0.0843 -0.0907  0.2113
 1006loPI    C315075   7.827  14.145   5.279 -0.1701 -0.4513 -0.2329
 1006loPI   PO415076   7.838  14.010   5.942 -0.2206 -0.0988  0.1106
 1006loPI   GL115077   7.722  14.027   6.423 -0.0408 -0.1864  0.0533
 1006loPI   GL215078   7.955  13.869   6.502  0.1027 -0.0049  0.0939
 1006loPI   C1A15079   7.518  13.996   6.778 -0.3435  0.1465 -0.5204
 1006loPI   C2A15080   7.606  14.080   7.166 -0.1070  0.2277  0.1022
 1006loPI   C3A15081   7.589  14.083   7.588 -0.0471  0.0340 -0.2301
 1006loPI   C4A15082   7.485  14.113   8.020 -0.2390 -0.1807  0.0116
 1006loPI   C5A15083   7.483  14.152   8.488  0.1397 -0.3299 -0.1238
 1006loPI   C6A15084   7.553  14.241   8.972 -0.0135  0.1054 -0.1253
 1006loPI   C1B15085   7.988  13.702   6.907  0.0596 -0.2302  0.0194
 1006loPI   C2B15086   7.969  13.673   7.339 -0.0828 -0.1034 -0.0932
 1006loPI   C3B15087   7.964  13.677   7.741 -0.2105  0.0619  0.3301
 1006loPI   C4B15088   7.822  13.729   7.967 -0.1803  0.0389  0.3256
 1007loPI    C115089  13.097   2.757   6.065 -0.0407  0.0992  0.0994
 1007loPI    C215090  12.892   2.533   5.805  0.0634  0.0873  0.0272
 1007loPI    C315091  12.756   2.894   5.907  0.1623  0.2077 -0.2566
 1007loPI   PO415092  13.133   2.665   6.275 -0.0652  0.0539 -0.2801
 1007loPI   GL115093  12.910   2.504   6.674 -0.0077  0.2141 -0.2653
 1007loPI   GL215094  12.955   2.810   6.753  0.4261  0.1370 -0.0085
 1007loPI   C1A15095  13.051   2.252   6.881  0.1608 -0.1966 -0.2275
 1007loPI   C2A15096  13.062   2.223   7.336  0.0476 -0.2393  0.1141
 1007loPI   C3A15097  13.092   2.093   7.858  0.1579 -0.0239  0.1571
 1007loPI   C4A15098  13.176   2.049   8.268  0.0421 -0.0457  0.1520
 1007loPI   C5A15099  13.552   2.026   8.587 -0.1287 -0.0945  0.1780
 1007loPI   C6A15100  13.916   2.186   8.596 -0.0336  0.3153 -0.2636
 1007loPI   C1B15101  13.113   2.757   7.195 -0.1851  0.1792 -0.0318
 1007loPI   C2B15102  13.303   2.635   7.612 -0.1156  0.7823  0.2348
 1007loPI   C3B15103  13.252   2.508   8.072  0.2879 -0.2991 -0.0974
 1007loPI   C4B15104  13.299   2.524   8.511  0.1129 -0.0914  0.0296
 1008loPI    C115105   6.940  12.346   5.801  0.0261 -0.0383  0.0126
 1008loPI    C215106   7.200  12.278   5.505  0.0159  0.0767 -0.0233
 1008loPI    C315107   6.810  12.320   5.424  0.0231  0.1853 -0.0031
 1008loPI   PO415108   6.919  12.144   6.012 -0.0193 -0.1720 -0.1048
 1008loPI   GL115109   6.914  12.310   6.420  0.2978 -0.0564 -0.0730
 1008loPI   GL215110   7.233  12.159   6.475 -0.1785 -0.0201  0.1862
 1008loPI   C1A15111   6.623  12.239   6.754  0.0942 -0.1080 -0.2992
 1008loPI   C2A15112   6.590  12.380   7.194  0.3337 -0.2653  0.0474
 1008loPI   C3A15113   6.529  12.309   7.604 -0.1555 -0.2844 -0.1837
 1008loPI   C4A15114   6.534  12.356   7.983 -0.2106  0.0146 -0.0258
 1008loPI   C5A15115   6.465  12.348   8.466  0.3339 -0.1474  0.0549
 1008loPI   C6A15116   6.552  12.127   8.911  0.2520 -0.1282  0.0236
 1008loPI   C1B15117   7.528  12.175   6.750 -0.1505 -0.4681 -0.1483
 1008loPI   C2B15118   7.481  12.160   7.176  0.0185 -0.4122  0.2885
 1008loPI   C3B15119   7.390  12.134   7.648 -0.0506  0.1076  0.2655
 1008loPI   C4B15120   7.486  12.123   8.041 -0.0347 -0.1908 -0.2582
 1009loPI    C115121  16.449   1.795   5.921 -0.1979  0.0641  0.0875
 1009loPI    C215122  16.281   2.017   5.633 -0.1055 -0.0385 -0.0470
 1009loPI    C315123  16.409   1.648   5.551  0.1335  0.0168  0.0680
 1009loPI   PO415124  16.664   1.908   6.072 -0.3263 -0.2343  0.0228
 1009loPI   GL115125  16.713   1.833   6.490  0.0314  0.2661 -0.0207
 1009loPI   GL215126  16.903   2.131   6.504 -0.2260  0.1685  0.0086
 1009loPI   C1A15127  16.699   1.631   6.838 -0.0562  0.2601 -0.0094
 1009loPI   C2A15128  16.674   1.590   7.302 -0.1729 -0.1214 -0.0431
 1009loPI   C3A15129  16.816   1.516   7.727 -0.0896  0.0176  0.1484
 1009loPI   C4A15130  16.746   1.731   8.171  0.0084  0.0591  0.0253
 1009loPI   C5A15131  16.670   1.923   8.693 -0.0724 -0.0327 -0.1253
 1009loPI   C6A15132  16.220   1.821   8.818  0.1408 -0.0150 -0.1247
 1009loPI   C1B15133  16.812   2.101   6.981 -0.1488  0.0634  0.0468
 1009loPI   C2B15134  16.972   2.177   7.349  0.3193 -0.1823 -0.1271
 1009loPI   C3B15135  16.906   2.042   7.748  0.1555 -0.2854  0.0261
 1009loPI   C4B15136  16.914   2.230   8.185  0.0754  0.0381  0.1107
 1010loPI    C115137  12.156   7.182   5.712  0.0516  0.0382  0.0822
 1010loPI    C215138  12.296   6.951   5.418  0.0648  0.0712  0.0625
 1010loPI    C315139  11.931   6.885   5.567  0.0035  0.1411 -0.0557
 1010loPI   PO415140  12.353   7.206   5.933  0.1900  0.3625  0.2338
 1010loPI   GL115141  12.248   7.212   6.423  0.2296  0.2342  0.0806
 1010loPI   GL215142  12.510   7.378   6.426 -0.0818  0.2617  0.4058
 1010loPI   C1A15143  12.184   7.432   6.808 -0.0162 -0.0241 -0.2844
 1010loPI   C2A15144  12.366   7.681   7.158  0.2789  0.1665 -0.2823
 1010loPI   C3A15145  12.402   7.789   7.624  0.0607 -0.2011  0.4261
 1010loPI   C4A15146  12.460   7.838   8.040  0.1618 -0.2647 -0.2601
 1010loPI   C5A15147  12.284   7.960   8.438 -0.0764 -0.0409  0.0649
 1010loPI   C6A15148  12.320   8.261   8.611 -0.1233 -0.0359 -0.2246
 1010loPI   C1B15149  12.652   7.277   6.787  0.2551 -0.2852 -0.0598
 1010loPI   C2B15150  12.772   7.408   7.195 -0.0816  0.1942 -0.0551
 1010loPI   C3B15151  12.783   7.462   7.704 -0.1067  0.2048 -0.0008
 1010loPI   C4B15152  12.810   7.496   8.158  0.0577  0.1671 -0.0841
 1011loPI    C115153  10.072  16.318   5.930 -0.0258  0.1065 -0.0724
 1011loPI    C215154   9.842  15.998   5.864  0.1978 -0.0855  0.0617
 1011loPI    C315155   9.833  16.307   5.610 -0.2996 -0.0326  0.1336
 1011loPI   PO415156  10.071  16.322   6.185 -0.0426  0.0967 -0.1763
 1011loPI   GL115157  10.037  16.196   6.565  0.1052 -0.0011  0.1746
 1011loPI   GL215158   9.818  15.935   6.572  0.0224  0.1222  0.1230
 1011loPI   C1A15159   9.959  16.098   7.101  0.5149 -0.0237  0.1531
 1011loPI   C2A15160   9.868  16.146   7.480 -0.0666 -0.2526 -0.3774
 1011loPI   C3A15161   9.936  16.132   7.928 -0.0361 -0.1313  0.0445
 1011loPI   C4A15162   9.889  16.184   8.366  0.4944 -0.0821 -0.3804
 1011loPI   C5A15163  10.285  16.196   8.599  0.0039  0.0300  0.0680
 1011loPI   C6A15164  10.627  16.260   8.833 -0.2410  0.1634 -0.1762
 1011loPI   C1B15165   9.594  16.320   6.804 -0.2193  0.0106 -0.0578
 1011loPI   C2B15166   9.444  16.516   7.179 -0.2425  0.3487 -0.2345
 1011loPI   C3B15167   9.455  16.448   7.581 -0.0092  0.0165  0.1852
 1011loPI   C4B15168   9.571  16.469   7.993 -0.0652  0.0262 -0.0146
 1012loPI    C115169  13.800   5.993   5.964  0.1976 -0.1042  0.1481
 1012loPI    C215170  13.886   6.313   5.739  0.1138 -0.0379  0.2099
 1012loPI    C315171  13.860   5.951   5.571  0.0574  0.0107  0.1133
 1012loPI   PO415172  13.984   6.015   6.169 -0.3674  0.0153  0.0114
 1012loPI   GL115173  14.002   6.110   6.634  0.1365  0.3446 -0.0112
 1012loPI   GL215174  14.039   6.347   6.692 -0.1975 -0.1954 -0.2636
 1012loPI   C1A15175  14.105   6.007   7.102  0.2390 -0.1199  0.1501
 1012loPI   C2A15176  14.128   6.099   7.625 -0.0790 -0.1021  0.0583
 1012loPI   C3A15177  14.307   6.117   8.053 -0.3048  0.0318  0.1969
 1012loPI   C4A15178  14.339   6.300   8.502  0.3312  0.1161 -0.3528
 1012loPI   C5A15179  14.686   6.544   8.680  0.0533  0.2501  0.1078
 1012loPI   C6A15180  14.938   6.853   8.547 -0.1278  0.2114 -0.1224
 1012loPI   C1B15181  14.181   6.556   7.056 -0.0717  0.1184  0.2194
 1012loPI   C2B15182  14.317   6.584   7.513  0.4319 -0.0239  0.0394
 1012loPI   C3B15183  14.402   6.582   7.924  0.0576 -0.1840 -0.2239
 1012loPI   C4B15184  14.585   6.644   8.206 -0.3400 -0.2043  0.1807
 1013loPI    C115185  17.077   7.057   5.825  0.2592 -0.1650  0.1190
 1013loPI    C215186  16.961   6.745   5.602  0.0116 -0.0989  0.1518
 1013loPI    C315187  16.977   7.112   5.442 -0.2778 -0.0325  0.2693
 1013loPI   PO415188  16.984   6.943   6.084  0.0201 -0.1960  0.1520
 1013loPI   GL115189  17.065   6.982   6.493 -0.0326  0.3248 -0.0185
 1013loPI   GL215190  17.377   6.860   6.635  0.1309 -0.0829  0.0977
 1013loPI   C1A15191  16.904   7.207   6.844  0.1715 -0.2942 -0.1800
 1013loPI   C2A15192  16.905   7.157   7.284 -0.1988 -0.1004  0.1352
 1013loPI   C3A15193  16.904   7.263   7.717 -0.2532 -0.0814 -0.0118
 1013loPI   C4A15194  16.988   7.220   8.109 -0.1359 -0.0759  0.0177
 1013loPI   C5A15195  17.115   7.246   8.610  0.0549 -0.0423  0.0471
 1013loPI   C6A15196  16.889   7.368   8.995 -0.1803  0.2511  0.1669
 1013loPI   C1B15197  17.246   6.836   7.126  0.1206 -0.0782  0.1016
 1013loPI   C2B15198  17.224   6.781   7.528 -0.1123  0.3860 -0.1478
 1013loPI   C3B15199  17.240   6.847   7.915 -0.1142  0.1617  0.0761
 1013loPI   C4B15200  17.350   6.906   8.307  0.2015  0.1312 -0.2596
 1014loPI    C115201   9.183  11.794   5.814  0.0342  0.0134  0.1357
 1014loPI    C215202   8.954  12.028   5.584 -0.1075 -0.0523  0.2088
 1014loPI    C315203   9.309  11.900   5.450 -0.2192 -0.1471 -0.0011
 1014loPI   PO415204   9.259  12.025   6.139  0.0671  0.1585  0.0684
 1014loPI   GL115205   9.218  12.070   6.561 -0.1742 -0.2555 -0.0898
 1014loPI   GL215206   8.874  12.017   6.660 -0.1394 -0.0232  0.2633
 1014loPI   C1A15207   9.358  12.253   6.950 -0.0410  0.0299 -0.0107
 1014loPI   C2A15208   9.295  12.187   7.282  0.1111 -0.2441 -0.1547
 1014loPI   C3A15209   9.290  12.190   7.756  0.2270 -0.2282  0.0280
 1014loPI   C4A15210   9.274  12.041   8.148 -0.0470  0.1684 -0.1835
 1014loPI   C5A15211   9.367  12.048   8.551 -0.0501  0.0984  0.1092
 1014loPI   C6A15212   9.695  11.851   8.786 -0.1943  0.0715 -0.0561
 1014loPI   C1B15213   8.712  12.073   7.047  0.0374 -0.0751  0.0248
 1014loPI   C2B15214   8.602  12.042   7.403 -0.0286 -0.0189  0.0658
 1014loPI   C3B15215   8.819  11.958   7.875  0.3859  0.1205 -0.0754
 1014loPI   C4B15216   8.819  11.988   8.295  0.2626 -0.5004  0.1050
 1015loPI    C115217  16.972  14.261   6.167 -0.0672  0.0377 -0.0647
 1015loPI    C215218  17.203  13.998   5.972  0.1519  0.2226 -0.0588
 1015loPI    C315219  17.129  14.357   5.812 -0.0701  0.1937 -0.0243
 1015loPI   PO415220  17.018  14.412   6.380 -0.0290 -0.2349 -0.2764
 1015loPI   GL115221  16.746  14.461   6.819 -0.0437 -0.2130 -0.1066
 1015loPI   GL215222  16.862  14.791   6.810 -0.1840  0.3152 -0.0160
 1015loPI   C1A15223  16.919  14.360   7.270 -0.2659  0.0649 -0.1165
 1015loPI   C2A15224  16.877  14.266   7.709  0.1671  0.0306 -0.1895
 1015loPI   C3A15225  17.006  14.318   8.182  0.1163  0.0114 -0.0049
 1015loPI   C4A15226  17.078  14.235   8.548  0.0919 -0.0457  0.0723
 1015loPI   C5A15227  17.317  14.092   8.924  0.1340 -0.1621  0.0363
 1015loPI   C6A15228  17.592  14.070   9.343 -0.1418  0.0978  0.0665
 1015loPI   C1B15229  17.027  14.844   7.251  0.1406 -0.3263  0.2517
 1015loPI   C2B15230  17.009  14.743   7.626  0.0049 -0.0949 -0.0287
 1015loPI   C3B15231  17.148  14.827   7.964 -0.1784  0.2262  0.2270
 1015loPI   C4B15232  17.143  14.850   8.399 -0.0589  0.2305  0.0318
 1016loPI    C115233  14.886  16.342   5.928  0.0821 -0.1062 -0.1121
 1016loPI    C215234  15.129  16.606   5.752  0.1219  0.0264  0.1364
 1016loPI    C315235  15.156  16.217   5.661  0.1149  0.0956 -0.1752
 1016loPI   PO415236  14.874  16.434   6.126  0.1787  0.3979  0.1265
 1016loPI   GL115237  15.139  16.444   6.531  0.0344 -0.1262 -0.0959
 1016loPI   GL215238  15.067  16.179   6.733  0.3833 -0.3413 -0.0075
 1016loPI   C1A15239  15.156  16.612   6.981  0.3931  0.3888  0.4274
 1016loPI   C2A15240  15.187  16.615   7.355  0.0236  0.2637  0.2190
 1016loPI   C3A15241  15.217  16.679   7.780  0.1027 -0.0331  0.1248
 1016loPI   C4A15242  15.213  16.593   8.248 -0.1701 -0.0254 -0.4022
 1016loPI   C5A15243  15.218  16.596   8.658  0.1852  0.1193  0.1271
 1016loPI   C6A15244  15.303  16.526   9.104  0.4504  0.0413  0.1694
 1016loPI   C1B15245  15.016  16.156   7.206  0.1088  0.1104 -0.3885
 1016loPI   C2B15246  15.139  16.182   7.625  0.0283  0.0817  0.1986
 1016loPI   C3B15247  15.121  16.127   8.062  0.2464  0.2112 -0.0576
 1016loPI   C4B15248  15.087  16.088   8.488  0.0569  0.2862  0.4415
 1017loPI    C115249   3.133   0.338   5.935  0.0944 -0.1344  0.2341
 1017loPI    C215250   3.485   0.158   5.876  0.0277 -0.1825 -0.0312
 1017loPI    C315251   3.439   0.544   5.781 -0.0130 -0.1964 -0.0681
 1017loPI   PO415252   3.104   0.307   6.207  0.2235 -0.0312 -0.1743
 1017loPI   GL115253   3.165   0.323   6.623 -0.2752 -0.1174  0.2429
 1017loPI   GL215254   3.223   0.649   6.618  0.1881 -0.1035 -0.3247
 1017loPI   C1A15255   3.244   0.238   7.086 -0.1777  0.2285 -0.1528
 1017loPI   C2A15256   3.260   0.274   7.463 -0.4569  0.3238  0.0520
 1017loPI   C3A15257   3.384   0.272   7.902  0.0829 -0.1066 -0.0385
 1017loPI   C4A15258   3.395   0.263   8.384 -0.0649 -0.2318  0.1840
 1017loPI   C5A15259   3.592  -0.033   8.696 -0.1263  0.0544 -0.1099
 1017loPI   C6A15260   3.841  -0.031   8.873 -0.4231 -0.2270  0.2810
 1017loPI   C1B15261   3.292   0.740   7.126  0.1688 -0.1120 -0.1133
 1017loPI   C2B15262   3.435   0.764   7.441  0.1339  0.1427  0.0614
 1017loPI   C3B15263   3.389   0.733   7.904  0.0608  0.2357 -0.1502
 1017loPI   C4B15264   3.562   0.755   8.384  0.1616 -0.3577 -0.1080
 1018loPI    C115265  15.384   4.575   5.940  0.1152 -0.0749 -0.0919
 1018loPI    C215266  15.122   4.281   5.870 -0.0371  0.0302  0.0280
 1018loPI    C315267  15.205   4.548   5.584  0.0688 -0.1027 -0.0666
 1018loPI   PO415268  15.505   4.498   6.230  0.0099  0.4097  0.1544
 1018loPI   GL115269  15.829   4.530   6.475  0.0568 -0.1261  0.0250
 1018loPI   GL215270  16.005   4.693   6.368 -0.0749  0.1849 -0.0382
 1018loPI   C1A15271  15.677   4.528   6.812  0.2636  0.0349  0.0332
 1018loPI   C2A15272  15.814   4.629   7.131  0.0721 -0.3800  0.1520
 1018loPI   C3A15273  15.661   4.634   7.537 -0.1949  0.0785  0.3986
 1018loPI   C4A15274  15.790   4.682   7.938 -0.0973 -0.0217  0.1293
 1018loPI   C5A15275  16.001   4.556   8.295  0.1107  0.0240  0.0488
 1018loPI   C6A15276  16.207   4.448   8.760 -0.0759 -0.0555 -0.2685
 1018loPI   C1B15277  16.150   4.664   6.823  0.0217  0.0799  0.1472
 1018loPI   C2B15278  16.327   4.751   7.163  0.1287 -0.1723  0.1041
 1018loPI   C3B15279  16.228   4.708   7.583  0.0181 -0.1683 -0.1977
 1018loPI   C4B15280  16.312   4.776   7.975 -0.2980 -0.0186  0.0880
 1019loPI    C115281  16.804  15.378   6.121 -0.1185  0.0201  0.1071
 1019loPI    C215282  16.671  15.139   5.829 -0.0431  0.0640  0.0362
 1019loPI    C315283  17.056  15.247   5.838 -0.0706  0.1576  0.0854
 1019loPI   PO415284  16.760  15.241   6.368 -0.1818 -0.1656  0.0263
 1019loPI   GL115285  16.499  15.115   6.693 -0.1925 -0.0405 -0.2050
 1019loPI   GL215286  16.148  15.231   6.661 -0.2408 -0.0608 -0.0565
 1019loPI   C1A15287  16.630  15.219   7.007  0.2399 -0.1616 -0.0398
 1019loPI   C2A15288  16.665  15.161   7.425 -0.0047 -0.2492  0.0413
 1019loPI   C3A15289  16.731  15.154   7.817 -0.0859  0.0269  0.0378
 1019loPI   C4A15290  16.774  15.176   8.268  0.1752 -0.0354 -0.2910
 1019loPI   C5A15291  16.825  15.010   8.773 -0.1309  0.1734 -0.0116
 1019loPI   C6A15292  16.738  14.988   9.209  0.2219 -0.1213 -0.3134
 1019loPI   C1B15293  16.046  15.123   7.136  0.0811 -0.0047 -0.3367
 1019loPI   C2B15294  16.166  15.008   7.591 -0.1922  0.0104  0.2221
 1019loPI   C3B15295  16.232  14.989   7.975  0.3607  0.0464 -0.1653
 1019loPI   C4B15296  16.370  14.977   8.401 -0.0526  0.0008  0.2898
 1020loPI    C115297  10.038   3.935   6.194  0.1265 -0.1481 -0.0666
 1020loPI    C215298   9.860   4.100   5.876  0.2305 -0.2297 -0.1685
 1020loPI    C315299   9.733   3.748   6.015  0.0284 -0.0814  0.0301
 1020loPI   PO415300  10.003   4.061   6.361 -0.3328 -0.0130 -0.4927
 1020loPI   GL115301  10.082   3.933   6.839  0.1033 -0.2766  0.2733
 1020loPI   GL215302  10.262   3.805   6.836 -0.1654 -0.0076 -0.2459
 1020loPI   C1A15303   9.969   4.011   7.205  0.2117 -0.0768 -0.4725
 1020loPI   C2A15304   9.988   4.059   7.589 -0.2018  0.3828 -0.0635
 1020loPI   C3A15305   9.865   3.985   7.961  0.0689  0.1735 -0.0233
 1020loPI   C4A15306   9.886   3.905   8.371 -0.1851 -0.2476 -0.2532
 1020loPI   C5A15307   9.671   3.750   8.763 -0.0601 -0.3550 -0.3095
 1020loPI   C6A15308   9.461   3.494   8.937 -0.0332 -0.2037 -0.1358
 1020loPI   C1B15309  10.311   3.742   7.354  0.2616  0.3293 -0.2239
 1020loPI   C2B15310  10.321   3.726   7.795 -0.0321  0.0117  0.2832
 1020loPI   C3B15311  10.229   3.581   8.171  0.1496  0.3132 -0.0589
 1020loPI   C4B15312  10.097   3.496   8.648 -0.2479 -0.0275  0.1280
 1021loPI    C115313  14.854  11.871   6.192  0.0523 -0.0887  0.0637
 1021loPI    C215314  14.473  11.860   6.312  0.0686 -0.3564  0.0975
 1021loPI    C315315  14.625  11.555   6.102  0.2161 -0.1718 -0.0672
 1021loPI   PO415316  15.020  11.900   6.401  0.1675  0.0810  0.3286
 1021loPI   GL115317  15.123  12.168   6.740  0.0447 -0.0607 -0.2297
 1021loPI   GL215318  14.917  12.326   6.815 -0.1066  0.0750  0.0336
 1021loPI   C1A15319  15.278  12.190   7.141  0.0489  0.3005  0.1423
 1021loPI   C2A15320  15.292  12.135   7.505 -0.0930 -0.3637 -0.1338
 1021loPI   C3A15321  15.384  11.942   7.921 -0.1900 -0.2482 -0.3282
 1021loPI   C4A15322  15.478  11.845   8.400 -0.1331  0.3784  0.2324
 1021loPI   C5A15323  15.735  11.498   8.524 -0.1067 -0.1002 -0.3073
 1021loPI   C6A15324  15.929  11.110   8.670  0.0066 -0.2708  0.1951
 1021loPI   C1B15325  14.805  12.371   7.155 -0.1935  0.0955 -0.0176
 1021loPI   C2B15326  14.836  12.272   7.630  0.0297  0.0556 -0.0712
 1021loPI   C3B15327  14.965  12.286   8.039  0.2264 -0.0675  0.0838
 1021loPI   C4B15328  15.089  12.144   8.377  0.1288 -0.2753 -0.5142
 1022loPI    C115329  10.884   9.723   5.855  0.1463 -0.2696  0.1456
 1022loPI    C215330  10.572   9.491   5.761  0.0083 -0.0399  0.0266
 1022loPI    C315331  10.871   9.540   5.499  0.0519 -0.1059  0.0637
 1022loPI   PO415332  10.966   9.677   6.110 -0.0493 -0.0633  0.0849
 1022loPI   GL115333  10.971   9.497   6.551 -0.1139  0.0664  0.3390
 1022loPI   GL215334  10.828   9.234   6.611  0.3913 -0.0418  0.0821
 1022loPI   C1A15335  10.665   9.717   6.825 -0.3253 -0.0661  0.1458
 1022loPI   C2A15336  10.502   9.613   7.220 -0.1608  0.2121  0.2429
 1022loPI   C3A15337  10.573   9.587   7.693 -0.1552 -0.0498  0.2892
 1022loPI   C4A15338  10.523   9.744   8.046  0.0691 -0.2444  0.2515
 1022loPI   C5A15339  10.668   9.763   8.511 -0.0572 -0.2362 -0.3320
 1022loPI   C6A15340  10.971  10.051   8.734  0.3735 -0.1959 -0.3827
 1022loPI   C1B15341  10.874   9.316   7.023 -0.1443  0.2525  0.1345
 1022loPI   C2B15342  10.928   9.322   7.458  0.2705 -0.2539  0.0490
 1022loPI   C3B15343  10.930   9.238   7.843  0.2751  0.2265  0.0357
 1022loPI   C4B15344  10.861   9.336   8.205  0.3722 -0.0667 -0.1739
 1023loPI    C115345   5.735  13.006   5.941  0.1257  0.0575  0.1148
 1023loPI    C215346   5.801  12.940   5.552 -0.1070  0.1874  0.0512
 1023loPI    C315347   6.017  13.214   5.749 -0.0176  0.1514  0.0040
 1023loPI   PO415348   5.769  12.814   6.196  0.0042 -0.1631 -0.1420
 1023loPI   GL115349   5.607  12.730   6.614  0.2477 -0.2043 -0.0510
 1023loPI   GL215350   5.560  13.067   6.571  0.0294 -0.1397 -0.1073
 1023loPI   C1A15351   5.700  12.735   7.011 -0.0492  0.0964 -0.0863
 1023loPI   C2A15352   5.779  12.444   7.236  0.2570  0.0213 -0.1779
 1023loPI   C3A15353   5.801  12.618   7.583 -0.1855 -0.0090  0.1168
 1023loPI   C4A15354   5.747  12.662   8.036  0.1205 -0.0509  0.0798
 1023loPI   C5A15355   5.656  12.675   8.376 -0.0720 -0.0762 -0.2990
 1023loPI   C6A15356   5.448  12.608   8.742 -0.0157 -0.2595 -0.1270
 1023loPI   C1B15357   5.310  13.086   6.928 -0.2923  0.2664  0.0967
 1023loPI   C2B15358   5.340  12.962   7.323  0.0489 -0.0289 -0.2716
 1023loPI   C3B15359   5.307  12.934   7.719 -0.0120  0.1857  0.0729
 1023loPI   C4B15360   5.304  13.009   8.137  0.2094 -0.3954 -0.3644
 1024loPI    C115361   0.764   1.630   5.977 -0.3359 -0.1833 -0.3086
 1024loPI    C215362   0.943   1.575   5.623  0.0478 -0.0720 -0.1357
 1024loPI    C315363   0.852   1.945   5.747  0.3233 -0.0703  0.0737
 1024loPI   PO415364   0.905   1.456   6.151  0.3524  0.0021  0.1541
 1024loPI   GL115365   0.899   1.270   6.557  0.2078  0.1643  0.0416
 1024loPI   GL215366   1.147   1.485   6.637  0.2789  0.2094 -0.1927
 1024loPI   C1A15367   1.072   1.071   6.984 -0.2120 -0.0130  0.0048
 1024loPI   C2A15368   1.166   0.997   7.422 -0.0166 -0.3412 -0.3090
 1024loPI   C3A15369   1.253   1.006   7.842 -0.3936  0.2039 -0.0744
 1024loPI   C4A15370   1.312   0.931   8.292  0.2074  0.3288 -0.0931
 1024loPI   C5A15371   1.419   1.126   8.714  0.2209  0.0863 -0.0604
 1024loPI   C6A15372   1.489   1.297   9.040  0.0229 -0.0804 -0.2605
 1024loPI   C1B15373   1.286   1.484   7.067  0.0025  0.1896 -0.0891
 1024loPI   C2B15374   1.330   1.504   7.457  0.3191 -0.1039 -0.0376
 1024loPI   C3B15375   1.409   1.514   7.927  0.0285 -0.0375  0.0373
 1024loPI   C4B15376   1.335   1.528   8.309 -0.1394  0.0076 -0.0226
 1025loPI    C115377   9.813   0.261   5.942  0.3185  0.0700 -0.2063
 1025loPI    C215378   9.744  -0.133   5.933  0.2443  0.0740  0.0904
 1025loPI    C315379   9.834   0.062   5.596  0.0942 -0.1627 -0.0896
 1025loPI   PO415380   9.609   0.311   6.084  0.1552  0.1061 -0.0417
 1025loPI   GL115381   9.597   0.393   6.485  0.1386  0.1498  0.1528
 1025loPI   GL215382   9.363   0.565   6.597 -0.0278  0.1226 -0.1967
 1025loPI   C1A15383   9.747   0.150   6.906  0.3476  0.0857 -0.0741
 1025loPI   C2A15384   9.758   0.207   7.423  0.1011  0.0614 -0.1292
 1025loPI   C3A15385   9.786   0.064   7.852 -0.3238  0.0477 -0.0301
 1025loPI   C4A15386   9.896   0.132   8.250  0.0543  0.3870 -0.0583
 1025loPI   C5A15387  10.247   0.228   8.538  0.3367 -0.1769  0.3900
 1025loPI   C6A15388  10.526   0.530   8.693  0.2677 -0.1834 -0.0163
 1025loPI   C1B15389   9.350   0.522   7.001 -0.0771 -0.0579 -0.1730
 1025loPI   C2B15390   9.379   0.574   7.425 -0.0191  0.0054  0.1235
 1025loPI   C3B15391   9.377   0.455   7.910  0.5685  0.0404  0.0638
 1025loPI   C4B15392   9.474   0.468   8.342 -0.3159  0.2170  0.2942
 1026loPI    C115393  10.147   9.047   5.643 -0.0743 -0.0893  0.0539
 1026loPI    C215394  10.435   9.204   5.415  0.0030  0.1370  0.3026
 1026loPI    C315395  10.077   9.124   5.257  0.1502  0.0019  0.0299
 1026loPI   PO415396  10.271   9.107   5.930 -0.0229 -0.3296  0.2136
 1026loPI   GL115397  10.392   9.080   6.372 -0.1212 -0.0105 -0.1323
 1026loPI   GL215398  10.077   9.182   6.405  0.3128 -0.0549 -0.0035
 1026loPI   C1A15399  10.411   9.101   6.842  0.2628 -0.2605  0.3058
 1026loPI   C2A15400  10.389   9.090   7.258 -0.0274 -0.0250  0.0314
 1026loPI   C3A15401  10.396   9.112   7.696 -0.1642 -0.2501  0.0948
 1026loPI   C4A15402  10.429   9.236   8.040 -0.0084  0.1252  0.1449
 1026loPI   C5A15403  10.305   9.383   8.395 -0.0128  0.0786  0.0327
 1026loPI   C6A15404   9.960   9.555   8.628  0.2148  0.0480 -0.2230
 1026loPI   C1B15405   9.992   9.325   6.789  0.3876  0.0592  0.2570
 1026loPI   C2B15406  10.002   9.409   7.153  0.0165  0.0812 -0.1379
 1026loPI   C3B15407  10.014   9.575   7.500  0.0311 -0.1982  0.0029
 1026loPI   C4B15408  10.035   9.535   7.884 -0.1301  0.2279  0.2515
 1027loPI    C115409  13.053   0.091   6.239 -0.1026  0.1194  0.2016
 1027loPI    C215410  13.420   0.247   6.263 -0.0648  0.0616  0.0120
 1027loPI    C315411  13.219   0.262   5.918 -0.1954 -0.0085  0.0845
 1027loPI   PO415412  13.081  -0.081   6.426  0.4173  0.1952  0.0213
 1027loPI   GL115413  13.250  -0.341   6.732 -0.1894 -0.1426 -0.2363
 1027loPI   GL215414  12.978  -0.377   6.842  0.1193 -0.2784 -0.1546
 1027loPI   C1A15415  13.501  -0.201   7.067  0.1263  0.1885 -0.0166
 1027loPI   C2A15416  13.679  -0.080   7.373 -0.3823  0.0248 -0.1668
 1027loPI   C3A15417  13.976  -0.091   7.664  0.1072  0.1763 -0.0664
 1027loPI   C4A15418  13.925  -0.111   8.117  0.0778 -0.1269  0.3194
 1027loPI   C5A15419  14.005  -0.193   8.429  0.1193 -0.0489 -0.0233
 1027loPI   C6A15420  13.917  -0.251   8.823 -0.1932 -0.1377 -0.0263
 1027loPI   C1B15421  12.948  -0.324   7.266 -0.4699  0.2517 -0.1596
 1027loPI   C2B15422  12.927  -0.364   7.736 -0.2068 -0.2235  0.0780
 1027loPI   C3B15423  13.033  -0.601   8.134 -0.1984  0.0062 -0.1194
 1027loPI   C4B15424  13.441  -0.822   8.206 -0.1377 -0.4197 -0.4188
 1028loPI    C115425   2.429  10.908   5.825  0.1935 -0.0609 -0.1450
 1028loPI    C215426   2.088  10.970   5.624  0.0725 -0.0326  0.0657
 1028loPI    C315427   2.348  10.692   5.498 -0.0515 -0.0892 -0.0677
 1028loPI   PO415428   2.366  10.871   6.071 -0.0651 -0.0598 -0.1595
 1028loPI   GL115429   2.259  10.533   6.358 -0.0137 -0.4210  0.0662
 1028loPI   GL215430   1.961  10.510   6.407 -0.3563 -0.3531 -0.1027
 1028loPI   C1A15431   2.435  10.709   6.662 -0.0494  0.0889  0.2152
 1028loPI   C2A15432   2.487  10.801   7.133 -0.2298  0.3596  0.1321
 1028loPI   C3A15433   2.447  10.812   7.550 -0.1548  0.1039 -0.1233
 1028loPI   C4A15434   2.440  10.753   7.962 -0.0408  0.1509  0.1890
 1028loPI   C5A15435   2.469  10.756   8.344 -0.2878 -0.4837 -0.1113
 1028loPI   C6A15436   2.213  10.808   8.634  0.2584  0.0243  0.0087
 1028loPI   C1B15437   1.946  10.628   6.825 -0.1384 -0.2933 -0.2379
 1028loPI   C2B15438   1.989  10.665   7.272 -0.3014  0.2641 -0.0275
 1028loPI   C3B15439   1.916  10.582   7.755 -0.0350 -0.0728  0.1322
 1028loPI   C4B15440   1.895  10.588   8.246 -0.0780 -0.1174  0.4553
 1029loPI    C115441   0.946  10.397   6.205  0.0520 -0.0429  0.0837
 1029loPI    C215442   0.692  10.187   5.978 -0.0222  0.1595 -0.0236
 1029loPI    C315443   0.552  10.452   6.243  0.0661 -0.0352  0.2221
 1029loPI   PO415444   1.131  10.283   6.354 -0.1646 -0.0785 -0.2563
 1029loPI   GL115445   1.354  10.463   6.691 -0.2539  0.2503  0.0353
 1029loPI   GL215446   1.604  10.257   6.590 -0.0894  0.2732  0.0324
 1029loPI   C1A15447   1.491  10.496   7.079 -0.1342 -0.0820  0.0680
 1029loPI   C2A15448   1.346  10.503   7.508  0.0202  0.0531  0.0061
 1029loPI   C3A15449   1.410  10.498   7.821  0.1456  0.1367 -0.1287
 1029loPI   C4A15450   1.433  10.471   8.307 -0.1394 -0.1088  0.1511
 1029loPI   C5A15451   1.671  10.614   8.671  0.0866  0.0355 -0.1275
 1029loPI   C6A15452   1.796  10.767   9.016 -0.2088 -0.1301  0.2443
 1029loPI   C1B15453   1.842  10.117   6.993  0.1105 -0.1699 -0.1312
 1029loPI   C2B15454   1.898  10.172   7.459  0.3140  0.0461  0.0211
 1029loPI   C3B15455   1.812  10.085   7.827 -0.1899 -0.0063 -0.2181
 1029loPI   C4B15456   1.779  10.149   8.267  0.0338 -0.0237 -0.0091
 1030loPI    C115457   5.402   2.783   5.581  0.2022  0.0663  0.0996
 1030loPI    C215458   5.726   2.766   5.347  0.0750  0.2574 -0.0940
 1030loPI    C315459   5.367   2.841   5.187 -0.0575  0.1068  0.1268
 1030loPI   PO415460   5.523   2.593   5.815 -0.1440  0.4898  0.1892
 1030loPI   GL115461   5.513   2.790   6.227 -0.0047 -0.0435  0.1616
 1030loPI   GL215462   5.667   2.982   6.313 -0.1150 -0.2542  0.3021
 1030loPI   C1A15463   5.313   2.644   6.556 -0.1632  0.1662 -0.0808
 1030loPI   C2A15464   5.396   2.698   6.962 -0.3122 -0.0807 -0.0959
 1030loPI   C3A15465   5.426   2.758   7.300  0.0572 -0.2155  0.1908
 1030loPI   C4A15466   5.410   2.662   7.719  0.2772 -0.1279  0.1759
 1030loPI   C5A15467   5.415   2.700   8.081 -0.1187 -0.1776  0.0924
 1030loPI   C6A15468   5.465   2.805   8.434 -0.0446  0.0958 -0.2364
 1030loPI   C1B15469   5.602   3.088   6.661  0.0250  0.1453 -0.1299
 1030loPI   C2B15470   5.497   3.214   7.150 -0.0647  0.1089 -0.2397
 1030loPI   C3B15471   5.475   3.184   7.545  0.1289 -0.1086 -0.0956
 1030loPI   C4B15472   5.474   3.167   7.965  0.0870 -0.1371 -0.0034
 1031loPI    C115473   9.367  10.784   5.934 -0.1931  0.1767  0.0141
 1031loPI    C215474   9.657  10.968   6.140 -0.0509 -0.0728  0.0398
 1031loPI    C315475   9.648  10.994   5.741  0.0520 -0.1263  0.0336
 1031loPI   PO415476   9.333  10.555   6.056 -0.0439 -0.1011  0.1402
 1031loPI   GL115477   9.253  10.376   6.408 -0.1009  0.1004 -0.0925
 1031loPI   GL215478   9.024  10.605   6.555  0.0775 -0.0464 -0.5565
 1031loPI   C1A15479   9.473  10.302   6.741 -0.1878  0.0246  0.1782
 1031loPI   C2A15480   9.406  10.236   7.107  0.1787  0.1486 -0.1372
 1031loPI   C3A15481   9.242  10.381   7.430  0.3762  0.1678  0.1414
 1031loPI   C4A15482   9.315  10.270   7.808 -0.1899 -0.3552  0.0259
 1031loPI   C5A15483   9.308  10.316   8.235 -0.1946 -0.0666 -0.2548
 1031loPI   C6A15484   9.249  10.048   8.624  0.0639  0.2869 -0.1355
 1031loPI   C1B15485   8.930  10.696   6.972  0.2243  0.0737  0.0869
 1031loPI   C2B15486   8.878  10.764   7.396 -0.0403 -0.0900 -0.1502
 1031loPI   C3B15487   8.866  10.621   7.693  0.0719  0.0177  0.0645
 1031loPI   C4B15488   8.979  10.634   8.097  0.0682  0.0270 -0.2243
 1032loPI    C115489   5.290   3.853   5.809  0.0761 -0.0096  0.0701
 1032loPI    C215490   5.571   3.768   5.537 -0.0111 -0.0981  0.0068
 1032loPI    C315491   5.327   4.081   5.482 -0.0516 -0.1369 -0.0342
 1032loPI   PO415492   5.352   3.863   6.031 -0.0277 -0.1041 -0.0477
 1032loPI   GL115493   5.533   4.098   6.330 -0.3996 -0.0102  0.0762
 1032loPI   GL215494   5.327   3.992   6.552 -0.0222 -0.3551  0.0270
 1032loPI   C1A15495   5.730   4.183   6.775 -0.2406  0.1990  0.0258
 1032loPI   C2A15496   5.731   4.216   7.147 -0.3518 -0.1643  0.0521
 1032loPI   C3A15497   5.676   4.205   7.575 -0.2196 -0.2430 -0.1788
 1032loPI   C4A15498   5.702   4.223   8.001  0.2181 -0.0030 -0.0873
 1032loPI   C5A15499   5.651   4.187   8.501  0.2725  0.3900  0.1004
 1032loPI   C6A15500   5.265   4.310   8.721  0.0700  0.0968  0.0143
 1032loPI   C1B15501   5.237   4.075   7.011 -0.3018  0.2193  0.1033
 1032loPI   C2B15502   5.227   4.071   7.426 -0.2601  0.2276 -0.1493
 1032loPI   C3B15503   5.271   4.024   7.894  0.0544  0.1871 -0.1454
 1032loPI   C4B15504   5.151   3.913   8.273 -0.3655 -0.0537  0.0120
 1033loPI    C115505   3.674  15.726   5.877 -0.2281 -0.0089  0.2095
 1033loPI    C215506   3.318  15.903   5.835 -0.1002  0.2037 -0.0016
 1033loPI    C315507   3.564  15.871   5.521  0.2470  0.4504  0.2379
 1033loPI   PO415508   3.683  15.836   6.141 -0.1978  0.2331  0.0239
 1033loPI   GL115509   3.947  15.812   6.516  0.1205  0.1631 -0.2221
 1033loPI   GL215510   3.815  15.593   6.598 -0.3723  0.0392  0.3376
 1033loPI   C1A15511   4.299  15.924   6.759  0.0844 -0.1270  0.0609
 1033loPI   C2A15512   4.340  15.883   7.189  0.3558 -0.0099  0.0008
 1033loPI   C3A15513   4.342  15.958   7.678  0.2260  0.0350 -0.0307
 1033loPI   C4A15514   4.260  16.085   8.041 -0.0767  0.1942 -0.1527
 1033loPI   C5A15515   4.176  16.080   8.550  0.1256 -0.1511 -0.0029
 1033loPI   C6A15516   4.074  16.189   9.016 -0.0386  0.3069  0.0447
 1033loPI   C1B15517   3.825  15.849   7.058 -0.1214  0.0943  0.0898
 1033loPI   C2B15518   3.821  15.842   7.501  0.0373 -0.1264  0.1089
 1033loPI   C3B15519   3.830  15.866   7.881 -0.0165 -0.2440  0.3685
 1033loPI   C4B15520   3.811  15.936   8.251  0.0311 -0.1745  0.0839
 1034loPI    C115521   2.808  11.497   5.864 -0.2939  0.1132 -0.0904
 1034loPI    C215522   2.798  11.187   5.612  0.0484  0.0965 -0.0878
 1034loPI    C315523   2.677  11.548   5.489  0.0877  0.0604 -0.2351
 1034loPI   PO415524   2.604  11.400   6.036  0.1423 -0.0309  0.2074
 1034loPI   GL115525   2.556  11.229   6.402  0.0283  0.0733  0.0336
 1034loPI   GL215526   2.876  11.426   6.513 -0.2473  0.1138  0.0158
 1034loPI   C1A15527   2.531  11.204   6.839  0.1244  0.0026  0.2469
 1034loPI   C2A15528   2.518  11.280   7.202  0.0694  0.0725 -0.4265
 1034loPI   C3A15529   2.587  11.290   7.611  0.2321 -0.2427 -0.2259
 1034loPI   C4A15530   2.537  11.215   7.959 -0.0943 -0.2372  0.2018
 1034loPI   C5A15531   2.610  11.237   8.353  0.1909 -0.3056 -0.2301
 1034loPI   C6A15532   2.907  11.230   8.695  0.1260 -0.1892 -0.2324
 1034loPI   C1B15533   3.005  11.378   6.904 -0.2707 -0.0904 -0.1341
 1034loPI   C2B15534   3.032  11.403   7.376 -0.3350  0.1839 -0.0997
 1034loPI   C3B15535   3.006  11.460   7.864  0.1553 -0.0692  0.1072
 1034loPI   C4B15536   3.109  11.460   8.348 -0.3371 -0.0698  0.3066
 1035loPI    C115537   3.430  11.356   5.903 -0.0468  0.1941 -0.2676
 1035loPI    C215538   3.713  11.294   6.179 -0.2077  0.2783 -0.0813
 1035loPI    C315539   3.699  11.064   5.852  0.0296  0.2257 -0.0563
 1035loPI   PO415540   3.209  11.563   6.092  0.0842  0.0728  0.0030
 1035loPI   GL115541   3.336  11.672   6.417  0.2987  0.0696 -0.0726
 1035loPI   GL215542   3.080  11.888   6.581 -0.0807 -0.1074  0.2261
 1035loPI   C1A15543   3.448  11.609   6.799  0.1483  0.2171 -0.0727
 1035loPI   C2A15544   3.579  11.548   7.170 -0.1101  0.0140 -0.3058
 1035loPI   C3A15545   3.527  11.587   7.592  0.3370 -0.2243  0.0077
 1035loPI   C4A15546   3.477  11.600   8.057 -0.0869  0.1244  0.0439
 1035loPI   C5A15547   3.625  11.671   8.468 -0.0287 -0.2581  0.2342
 1035loPI   C6A15548   3.596  11.958   8.878 -0.0447  0.2718  0.2211
 1035loPI   C1B15549   3.127  11.981   7.042  0.1952  0.2162  0.0857
 1035loPI   C2B15550   3.213  11.895   7.410  0.0452 -0.3654 -0.0280
 1035loPI   C3B15551   3.223  11.982   7.804 -0.0609 -0.0637  0.0007
 1035loPI   C4B15552   3.178  12.023   8.315 -0.1258  0.1611 -0.0821
 1036loPI    C115553  10.245   2.161   6.184 -0.1271 -0.0010  0.1468
 1036loPI    C215554  10.241   1.775   6.077 -0.2050  0.0132  0.0969
 1036loPI    C315555  10.250   2.060   5.796 -0.3257  0.0498  0.1296
 1036loPI   PO415556  10.104   2.154   6.371 -0.1795 -0.1206 -0.1519
 1036loPI   GL115557  10.106   2.244   6.721 -0.0792 -0.1947 -0.3879
 1036loPI   GL215558   9.848   2.034   6.849 -0.1806  0.1265  0.2135
 1036loPI   C1A15559  10.037   2.457   7.144 -0.3246  0.1940 -0.2761
 1036loPI   C2A15560  10.054   2.337   7.540 -0.3103  0.0419  0.0149
 1036loPI   C3A15561  10.216   2.144   7.968  0.0262  0.1838 -0.0230
 1036loPI   C4A15562  10.429   2.134   8.322  0.1626 -0.0049  0.3875
 1036loPI   C5A15563  10.369   1.973   8.702 -0.1560  0.0108 -0.0427
 1036loPI   C6A15564  10.504   1.559   8.773  0.1432  0.0926 -0.0326
 1036loPI   C1B15565   9.715   2.008   7.213 -0.1269  0.1521 -0.0966
 1036loPI   C2B15566   9.759   1.989   7.639  0.1812  0.1165  0.0759
 1036loPI   C3B15567   9.761   1.925   8.089 -0.2718 -0.0319 -0.0035
 1036loPI   C4B15568   9.901   1.987   8.463 -0.1835 -0.2302  0.0415
 1037loPI    C115569   0.675   7.052   5.911 -0.1486 -0.1385 -0.0026
 1037loPI    C215570   0.647   7.335   5.630 -0.0946  0.0060  0.1362
 1037loPI    C315571   0.863   7.006   5.561  0.1321  0.1585  0.1036
 1037loPI   PO415572   0.721   7.127   6.077  0.2024  0.3228  0.0349
 1037loPI   GL115573   0.820   7.404   6.421  0.0110  0.1287  0.1738
 1037loPI   GL215574   0.675   7.674   6.470 -0.0928  0.1161  0.0799
 1037loPI   C1A15575   0.943   7.156   6.755  0.1775 -0.1486  0.0205
 1037loPI   C2A15576   0.857   7.130   7.188  0.1034 -0.0445 -0.1717
 1037loPI   C3A15577   0.945   7.068   7.638  0.1159  0.0210 -0.0200
 1037loPI   C4A15578   0.981   7.085   7.997  0.0106  0.1549 -0.5219
 1037loPI   C5A15579   1.238   7.072   8.380 -0.0136 -0.0290  0.3282
 1037loPI   C6A15580   1.467   6.817   8.656  0.1954  0.0393  0.0877
 1037loPI   C1B15581   0.722   7.997   6.784  0.2510  0.1524 -0.0988
 1037loPI   C2B15582   0.682   7.960   7.300  0.0300  0.0781  0.1871
 1037loPI   C3B15583   0.870   7.950   7.662  0.1312 -0.4317  0.1692
 1037loPI   C4B15584   1.268   8.056   7.872 -0.0942 -0.0281 -0.0785
 1038loPI    C115585  10.825  10.602   6.036  0.0331  0.1070  0.0013
 1038loPI    C215586  10.756  10.889   5.767 -0.0425 -0.0901 -0.1931
 1038loPI    C315587  11.120  10.725   5.795 -0.0125 -0.0120 -0.1161
 1038loPI   PO415588  10.576  10.655   6.214  0.2291  0.1958 -0.0155
 1038loPI   GL115589  10.495  10.565   6.577  0.4886 -0.2490 -0.1463
 1038loPI   GL215590  10.226  10.708   6.710  0.2954  0.0556 -0.1881
 1038loPI   C1A15591  10.670  10.252   6.908  0.2334 -0.1620  0.2534
 1038loPI   C2A15592  10.803  10.066   7.277 -0.0258 -0.1284 -0.1198
 1038loPI   C3A15593  10.716  10.180   7.655  0.0379 -0.1140 -0.1286
 1038loPI   C4A15594  10.698  10.177   8.027 -0.0588 -0.0138 -0.3539
 1038loPI   C5A15595  10.653  10.348   8.476  0.1465 -0.4993  0.0647
 1038loPI   C6A15596  10.822  10.453   8.966 -0.0815 -0.1045 -0.0711
 1038loPI   C1B15597  10.319  10.610   7.116 -0.0027 -0.1756 -0.1513
 1038loPI   C2B15598  10.356  10.575   7.636  0.0112  0.1932 -0.0077
 1038loPI   C3B15599  10.320  10.586   8.002  0.1370  0.0284  0.2371
 1038loPI   C4B15600  10.272  10.630   8.467  0.0625 -0.0461 -0.2769
 1039loPI    C115601  13.409  11.805   6.119 -0.0497 -0.1056 -0.2411
 1039loPI    C215602  13.683  12.006   5.908  0.0206 -0.0658 -0.1128
 1039loPI    C315603  13.784  11.668   6.096  0.0581  0.1041  0.1778
 1039loPI   PO415604  13.253  12.067   6.301 -0.1466 -0.2157 -0.0722
 1039loPI   GL115605  13.567  12.100   6.629 -0.0140  0.0020 -0.0755
 1039loPI   GL215606  13.615  11.701   6.604  0.0299 -0.4646  0.3676
 1039loPI   C1A15607  13.559  11.953   7.027 -0.0795  0.2960 -0.0049
 1039loPI   C2A15608  13.449  11.991   7.532  0.1177  0.1274 -0.3954
 1039loPI   C3A15609  13.493  11.875   7.969  0.0879 -0.1625 -0.0567
 1039loPI   C4A15610  13.553  11.925   8.330  0.0760  0.1595  0.1311
 1039loPI   C5A15611  13.743  11.773   8.607  0.1444 -0.0225 -0.0922
 1039loPI   C6A15612  13.806  11.758   8.984  0.1852  0.0280 -0.0515
 1039loPI   C1B15613  13.833  11.488   6.887  0.1069 -0.2242 -0.0655
 1039loPI   C2B15614  13.820  11.537   7.260 -0.3114  0.0360 -0.1438
 1039loPI   C3B15615  13.836  11.551   7.665  0.3398  0.0580 -0.0981
 1039loPI   C4B15616  13.883  11.542   8.136 -0.1900  0.3660 -0.2377
 1040loPI    C115617   5.550   3.207   5.864 -0.2497  0.0024 -0.0957
 1040loPI    C215618   5.485   3.276   5.475 -0.3047 -0.1056 -0.1058
 1040loPI    C315619   5.856   3.296   5.622 -0.2585 -0.2479 -0.2013
 1040loPI   PO415620   5.395   3.334   6.061 -0.0573 -0.5586  0.1952
 1040loPI   GL115621   5.390   3.472   6.413 -0.0210  0.1928  0.0197
 1040loPI   GL215622   5.114   3.535   6.542 -0.3225  0.0163 -0.0746
 1040loPI   C1A15623   5.615   3.647   6.845 -0.3110 -0.4835 -0.0266
 1040loPI   C2A15624   5.580   3.707   7.247 -0.1827 -0.0807 -0.1257
 1040loPI   C3A15625   5.559   3.680   7.715 -0.0892  0.0340  0.1926
 1040loPI   C4A15626   5.613   3.752   8.161 -0.1185  0.2376 -0.0943
 1040loPI   C5A15627   5.559   3.697   8.635  0.2175  0.0414  0.0312
 1040loPI   C6A15628   5.760   3.420   9.002  0.0257 -0.1529 -0.3670
 1040loPI   C1B15629   5.150   3.528   7.002 -0.1135 -0.1618  0.1429
 1040loPI   C2B15630   5.121   3.580   7.465 -0.2259 -0.1730 -0.2177
 1040loPI   C3B15631   5.095   3.553   7.962  0.0400 -0.0817 -0.1604
 1040loPI   C4B15632   5.168   3.417   8.423 -0.1875 -0.2199 -0.2361
 1041loPI    C115633  14.014  12.207   5.602  0.2012 -0.0203 -0.0646
 1041loPI    C215634  14.345  12.124   5.393  0.0937  0.0681 -0.2729
 1041loPI    C315635  14.149  12.467   5.329  0.0742  0.1085 -0.0060
 1041loPI   PO415636  14.109  12.224   5.961  0.0078 -0.0226 -0.0534
 1041loPI   GL115637  14.079  12.299   6.397 -0.1084  0.0270 -0.1359
 1041loPI   GL215638  13.950  12.005   6.376 -0.0384  0.0996 -0.0227
 1041loPI   C1A15639  13.915  12.276   6.931  0.0467  0.1948  0.1396
 1041loPI   C2A15640  13.894  12.102   7.352  0.0176  0.0498  0.0580
 1041loPI   C3A15641  13.936  12.060   7.741 -0.1001  0.1532 -0.0610
 1041loPI   C4A15642  13.962  12.106   8.094  0.0891  0.0357 -0.1877
 1041loPI   C5A15643  14.065  12.102   8.518 -0.0566 -0.1750 -0.0982
 1041loPI   C6A15644  14.187  12.104   8.957  0.0155 -0.0281 -0.1354
 1041loPI   C1B15645  14.146  11.902   6.657 -0.0308  0.2202 -0.1113
 1041loPI   C2B15646  14.234  11.695   7.098  0.0009 -0.0530 -0.0709
 1041loPI   C3B15647  14.274  11.703   7.522 -0.2340 -0.2166  0.2569
 1041loPI   C4B15648  14.347  11.682   8.049 -0.1010 -0.0795  0.3176
 1042loPI    C115649   7.577  13.580   5.931  0.1252 -0.0081 -0.0359
 1042loPI    C215650   7.528  13.224   5.754 -0.0329 -0.0171  0.0246
 1042loPI    C315651   7.799  13.482   5.613  0.1232 -0.1845  0.0161
 1042loPI   PO415652   7.679  13.599   6.181  0.1112 -0.1566  0.2067
 1042loPI   GL115653   7.606  13.457   6.641 -0.2509 -0.2141 -0.0560
 1042loPI   GL215654   7.943  13.366   6.591  0.1805  0.2287 -0.1662
 1042loPI   C1A15655   7.429  13.517   7.062 -0.2514  0.0386 -0.1434
 1042loPI   C2A15656   7.405  13.552   7.486  0.3280  0.0139  0.1561
 1042loPI   C3A15657   7.343  13.538   7.949  0.0537 -0.1662  0.0470
 1042loPI   C4A15658   7.386  13.530   8.328  0.0839  0.1366 -0.0924
 1042loPI   C5A15659   7.751  13.761   8.597  0.2539  0.1810 -0.2167
 1042loPI   C6A15660   7.910  13.748   8.925  0.3684 -0.2490 -0.1341
 1042loPI   C1B15661   7.852  13.232   7.017  0.1193 -0.1872 -0.4470
 1042loPI   C2B15662   7.870  13.223   7.434  0.2636  0.5917 -0.1323
 1042loPI   C3B15663   7.776  13.253   7.835  0.0898  0.1218  0.0218
 1042loPI   C4B15664   7.727  13.222   8.269 -0.4193 -0.1160 -0.1807
 1043loPI    C115665   3.723  13.493   5.885 -0.1823 -0.0688 -0.0375
 1043loPI    C215666   3.482  13.803   5.807 -0.0974 -0.0132 -0.0803
 1043loPI    C315667   3.583  13.549   5.514  0.0348  0.0626 -0.1014
 1043loPI   PO415668   3.659  13.372   6.079  0.1105  0.1256 -0.0184
 1043loPI   GL115669   3.768  13.496   6.470  0.2678  0.1780 -0.0664
 1043loPI   GL215670   3.443  13.314   6.505  0.0075 -0.2450 -0.1313
 1043loPI   C1A15671   4.013  13.462   6.883 -0.0914 -0.0500  0.0271
 1043loPI   C2A15672   4.059  13.498   7.383  0.0852  0.0786  0.1812
 1043loPI   C3A15673   4.158  13.577   7.769  0.0123  0.1065 -0.1337
 1043loPI   C4A15674   4.073  13.672   8.210  0.1340  0.1228  0.1082
 1043loPI   C5A15675   3.889  13.580   8.464 -0.2733 -0.0110 -0.2808
 1043loPI   C6A15676   3.875  13.381   8.733  0.3380 -0.0521 -0.0987
 1043loPI   C1B15677   3.508  13.371   6.854 -0.0202  0.0874 -0.1542
 1043loPI   C2B15678   3.586  13.389   7.284 -0.0809 -0.1074 -0.1832
 1043loPI   C3B15679   3.637  13.424   7.710 -0.2166  0.0449  0.4112
 1043loPI   C4B15680   3.627  13.480   8.081 -0.1129 -0.0575  0.0732
 1044loPI    C115681   6.260   9.196   6.023  0.2028  0.1015  0.1114
 1044loPI    C215682   6.236   9.560   5.859  0.1785  0.1671  0.2592
 1044loPI    C315683   6.433   9.268   5.670 -0.2047  0.1254 -0.0886
 1044loPI   PO415684   6.043   9.163   6.144  0.1607 -0.0902 -0.0566
 1044loPI   GL115685   5.927   9.118   6.539 -0.1651 -0.0281  0.1858
 1044loPI   GL215686   6.166   8.994   6.777 -0.0936 -0.0517  0.0985
 1044loPI   C1A15687   5.823   9.281   6.918  0.1478  0.3227  0.1567
 1044loPI   C2A15688   5.831   9.264   7.401 -0.2209  0.1072  0.1502
 1044loPI   C3A15689   5.835   9.265   7.869  0.1194  0.1019 -0.1736
 1044loPI   C4A15690   5.838   9.213   8.286 -0.1910 -0.0293  0.2225
 1044loPI   C5A15691   5.915   9.571   8.554  0.2499  0.0228  0.1464
 1044loPI   C6A15692   6.071   9.816   8.702 -0.0820  0.1112 -0.2858
 1044loPI   C1B15693   6.230   8.933   7.202  0.1256 -0.1965  0.0868
 1044loPI   C2B15694   6.136   8.956   7.659 -0.0577  0.1508 -0.1311
 1044loPI   C3B15695   6.189   8.915   8.083  0.2408 -0.0197  0.0012
 1044loPI   C4B15696   6.293   8.785   8.578 -0.1506  0.0532  0.2225
 1045loPI    C115697   1.001   0.993   5.978  0.3270  0.1102  0.1982
 1045loPI    C215698   1.258   1.207   5.759  0.3627 -0.2218 -0.0924
 1045loPI    C315699   0.916   1.078   5.597  0.2683 -0.2519  0.1270
 1045loPI   PO415700   1.196   0.740   6.111  0.1210 -0.2219  0.2933
 1045loPI   GL115701   1.067   0.446   6.418  0.0490  0.2947  0.2717
 1045loPI   GL215702   0.790   0.269   6.477 -0.0694 -0.0699  0.4602
 1045loPI   C1A15703   1.032   0.609   6.780  0.3955  0.0101 -0.1137
 1045loPI   C2A15704   0.970   0.617   7.225 -0.2566 -0.0002 -0.1856
 1045loPI   C3A15705   1.071   0.508   7.640  0.0345 -0.4137 -0.1736
 1045loPI   C4A15706   1.063   0.620   8.001  0.0868  0.1614 -0.1769
 1045loPI   C5A15707   1.138   0.459   8.348 -0.0104 -0.0176  0.1811
 1045loPI   C6A15708   1.065   0.098   8.688 -0.2881  0.1011 -0.0113
 1045loPI   C1B15709   0.896   0.098   6.852 -0.2089  0.2714 -0.0737
 1045loPI   C2B15710   0.888   0.094   7.277 -0.1529  0.0883 -0.0860
 1045loPI   C3B15711   0.957  -0.006   7.646 -0.0391 -0.1992  0.1492
 1045loPI   C4B15712   0.933   0.114   8.084  0.4297 -0.0808  0.3820
 1046loPI    C115713  15.137   7.671   5.507 -0.1812 -0.1855 -0.1842
 1046loPI    C215714  15.375   7.987   5.442  0.0247 -0.2867  0.0597
 1046loPI    C315715  15.167   7.827   5.140  0.0526 -0.0262 -0.1001
 1046loPI   PO415716  15.248   7.563   5.759 -0.0584  0.0910 -0.2930
 1046loPI   GL115717  15.316   7.689   6.266 -0.1990  0.0347 -0.0783
 1046loPI   GL215718  15.422   7.991   6.354 -0.1248 -0.0492 -0.1285
 1046loPI   C1A15719  15.101   7.567   6.623 -0.1505 -0.0421 -0.1931
 1046loPI   C2A15720  15.103   7.648   7.118 -0.0599 -0.0743 -0.0751
 1046loPI   C3A15721  15.202   7.718   7.553 -0.0144 -0.3417 -0.0130
 1046loPI   C4A15722  15.169   7.655   8.013  0.0607 -0.0320  0.1823
 1046loPI   C5A15723  15.304   7.600   8.421 -0.0265 -0.0697 -0.3342
 1046loPI   C6A15724  15.231   7.552   8.870  0.0576  0.1287  0.0152
 1046loPI   C1B15725  15.329   7.996   6.760  0.0228 -0.0863  0.4436
 1046loPI   C2B15726  15.314   8.083   7.229 -0.0730  0.2552 -0.0320
 1046loPI   C3B15727  15.307   8.208   7.680  0.2181  0.0126 -0.1357
 1046loPI   C4B15728  15.345   8.121   8.079 -0.0938  0.0590 -0.1331
 1047loPI    C115729  11.816   0.749   6.040 -0.1007  0.0839 -0.1699
 1047loPI    C215730  12.205   0.777   5.951  0.0240 -0.0840  0.2929
 1047loPI    C315731  11.968   0.537   5.737  0.2068 -0.0992  0.1047
 1047loPI   PO415732  11.829   0.691   6.339  0.0531  0.1150 -0.0727
 1047loPI   GL115733  11.975   0.376   6.662  0.2777  0.1777 -0.0038
 1047loPI   GL215734  12.066   0.142   6.614 -0.0473  0.0299  0.1724
 1047loPI   C1A15735  11.842   0.395   7.013 -0.1127 -0.0128 -0.1159
 1047loPI   C2A15736  11.829   0.302   7.456  0.0439  0.2966  0.1215
 1047loPI   C3A15737  11.700   0.208   7.884  0.0335 -0.1014  0.2162
 1047loPI   C4A15738  11.675   0.163   8.318  0.0870 -0.1025 -0.2966
 1047loPI   C5A15739  11.616   0.049   8.716 -0.1727 -0.1047 -0.1604
 1047loPI   C6A15740  11.784  -0.132   9.138 -0.1694  0.0474 -0.2149
 1047loPI   C1B15741  12.089  -0.072   7.012  0.1261  0.1674 -0.2223
 1047loPI   C2B15742  12.119  -0.099   7.402 -0.1718 -0.0572  0.0657
 1047loPI   C3B15743  12.158  -0.130   7.888  0.0983  0.2032  0.2683
 1047loPI   C4B15744  12.015  -0.214   8.259  0.0117  0.0577 -0.2812
 1048loPI    C115745   4.582   5.400   5.695 -0.1132  0.1438 -0.1185
 1048loPI    C215746   4.980   5.357   5.703 -0.1266  0.0331 -0.0017
 1048loPI    C315747   4.799   5.490   5.371 -0.0123 -0.1165 -0.1255
 1048loPI   PO415748   4.579   5.437   5.966  0.0783 -0.2350 -0.3111
 1048loPI   GL115749   4.655   5.357   6.410  0.1305  0.0741 -0.0593
 1048loPI   GL215750   5.032   5.448   6.431  0.1508  0.1451  0.0329
 1048loPI   C1A15751   4.764   5.361   6.827 -0.0619 -0.0654  0.2698
 1048loPI   C2A15752   4.687   5.304   7.279  0.1673 -0.0632 -0.3122
 1048loPI   C3A15753   4.730   5.312   7.700  0.0431  0.0386 -0.2202
 1048loPI   C4A15754   4.712   5.386   8.143 -0.2114 -0.1465  0.1154
 1048loPI   C5A15755   4.839   5.171   8.486 -0.0902 -0.0412 -0.1647
 1048loPI   C6A15756   4.933   4.732   8.673 -0.0624  0.1355  0.1376
 1048loPI   C1B15757   5.213   5.500   6.883 -0.2967 -0.1859 -0.2575
 1048loPI   C2B15758   5.197   5.478   7.327 -0.0987  0.0251 -0.3808
 1048loPI   C3B15759   5.214   5.384   7.749  0.1426 -0.0958  0.1726
 1048loPI   C4B15760   5.237   5.455   8.177 -0.1502  0.2927 -0.2247
 1049loPI    C115761  13.769   5.534   6.182 -0.0920 -0.0338 -0.1962
 1049loPI    C215762  13.615   5.265   5.930  0.0923 -0.1918 -0.1429
 1049loPI    C315763  13.909   5.507   5.808  0.1083 -0.1955 -0.1117
 1049loPI   PO415764  13.676   5.397   6.436  0.0093 -0.1038 -0.1502
 1049loPI   GL115765  13.717   5.611   6.773 -0.3304  0.0885  0.1814
 1049loPI   GL215766  14.026   5.541   6.956 -0.3338  0.0446 -0.2057
 1049loPI   C1A15767  13.640   5.767   7.171  0.0641 -0.1384 -0.0148
 1049loPI   C2A15768  13.641   5.906   7.546 -0.2746 -0.2195 -0.1383
 1049loPI   C3A15769  13.792   6.011   8.054  0.3923  0.4677  0.1808
 1049loPI   C4A15770  13.855   6.098   8.509 -0.0643  0.0729  0.0949
 1049loPI   C5A15771  13.856   6.451   8.727 -0.1939  0.1871  0.4349
 1049loPI   C6A15772  13.747   6.810   8.894  0.0291 -0.1091  0.0854
 1049loPI   C1B15773  14.095   5.589   7.381 -0.2479 -0.0668  0.1678
 1049loPI   C2B15774  14.080   5.625   7.774  0.1616  0.1172 -0.0098
 1049loPI   C3B15775  14.210   5.665   8.110 -0.3901  0.1576 -0.2858
 1049loPI   C4B15776  14.213   5.696   8.449 -0.0511 -0.3076  0.0865
 1050loPI    C115777  13.972  15.326   6.035 -0.0681  0.0202 -0.1393
 1050loPI    C215778  13.579  15.302   5.961 -0.1104 -0.1444  0.1257
 1050loPI    C315779  13.829  15.028   5.810 -0.1000 -0.0557 -0.0195
 1050loPI   PO415780  14.032  15.303   6.295  0.0102 -0.2081  0.2460
 1050loPI   GL115781  13.777  15.291   6.715  0.1964  0.1711  0.0507
 1050loPI   GL215782  13.846  15.631   6.782 -0.0378  0.3520 -0.1095
 1050loPI   C1A15783  13.855  15.313   7.170  0.3105  0.2416  0.1947
 1050loPI   C2A15784  13.941  15.382   7.543  0.1345  0.3590  0.1948
 1050loPI   C3A15785  14.004  15.298   7.944 -0.0126 -0.1673 -0.1595
 1050loPI   C4A15786  13.934  15.273   8.443 -0.2001  0.0240 -0.1005
 1050loPI   C5A15787  14.047  15.483   8.875  0.2978  0.0322  0.0901
 1050loPI   C6A15788  14.233  15.519   9.204  0.1028 -0.1894  0.2639
 1050loPI   C1B15789  13.997  15.895   7.211 -0.0312  0.0531  0.3781
 1050loPI   C2B15790  14.068  15.837   7.630  0.0979  0.1229 -0.0004
 1050loPI   C3B15791  14.081  15.745   8.062 -0.0936 -0.2614  0.0937
 1050loPI   C4B15792  14.205  15.706   8.496  0.3777  0.3343  0.0456
 1051loPI    C115793   0.384   9.192   5.976 -0.1290 -0.0962  0.1367
 1051loPI    C215794   0.102   9.210   5.693  0.0450 -0.1144 -0.0409
 1051loPI    C315795   0.336   8.887   5.721 -0.1033 -0.2005  0.2558
 1051loPI   PO415796   0.175   9.226   6.241 -0.2827  0.3533 -0.2349
 1051loPI   GL115797  -0.052   9.245   6.620  0.0922 -0.0697 -0.1881
 1051loPI   GL215798  -0.415   9.308   6.502 -0.1244 -0.1326 -0.1452
 1051loPI   C1A15799   0.197   9.319   6.933  0.1571  0.1187  0.0541
 1051loPI   C2A15800   0.206   9.290   7.305 -0.1186 -0.0466 -0.4328
 1051loPI   C3A15801   0.097   9.198   7.753  0.1194 -0.3376 -0.0902
 1051loPI   C4A15802   0.064   9.227   8.185  0.0965  0.3054 -0.2695
 1051loPI   C5A15803   0.028   8.996   8.493 -0.0112 -0.2012  0.1616
 1051loPI   C6A15804   0.097   8.684   8.697 -0.3132  0.0896  0.3073
 1051loPI   C1B15805  -0.520   9.126   6.861  0.1903  0.0260 -0.1347
 1051loPI   C2B15806  -0.480   9.006   7.207  0.2028 -0.2616  0.1739
 1051loPI   C3B15807  -0.417   9.030   7.678  0.1542  0.0480  0.2894
 1051loPI   C4B15808  -0.468   9.001   8.065 -0.3314 -0.0986 -0.3052
 1052loPI    C115809  16.021   1.619   5.907  0.0602  0.1072  0.0632
 1052loPI    C215810  15.758   1.499   5.631 -0.2793  0.0878  0.3869
 1052loPI    C315811  16.076   1.272   5.716 -0.2529  0.0221  0.1210
 1052loPI   PO415812  15.823   1.648   6.154 -0.0533  0.1234 -0.0860
 1052loPI   GL115813  15.900   1.867   6.621  0.0919 -0.0777 -0.1562
 1052loPI   GL215814  15.958   1.496   6.608  0.2844  0.2155 -0.1157
 1052loPI   C1A15815  15.812   1.807   7.000 -0.2039 -0.0031 -0.1026
 1052loPI   C2A15816  16.028   1.779   7.412 -0.1134  0.3170 -0.0388
 1052loPI   C3A15817  15.922   1.827   7.842  0.2038  0.0961  0.0014
 1052loPI   C4A15818  15.946   1.914   8.214  0.1141 -0.2873  0.1030
 1052loPI   C5A15819  15.901   2.160   8.595 -0.1131  0.1297 -0.0751
 1052loPI   C6A15820  15.921   2.231   9.045  0.1178 -0.1549  0.1389
 1052loPI   C1B15821  16.223   1.404   7.011 -0.1963 -0.1049 -0.1944
 1052loPI   C2B15822  16.255   1.346   7.441 -0.0114  0.1409 -0.0699
 1052loPI   C3B15823  16.314   1.468   7.907  0.1984  0.0887  0.1880
 1052loPI   C4B15824  16.252   1.546   8.370 -0.0522 -0.0110 -0.0421
 1053loPI    C115825  11.953  12.047   6.262  0.0764 -0.3215 -0.3800
 1053loPI    C215826  11.568  12.128   6.186  0.0252 -0.2187 -0.0275
 1053loPI    C315827  11.856  12.343   6.011 -0.0855 -0.0746 -0.0346
 1053loPI   PO415828  11.955  11.782   6.247  0.0230 -0.3416  0.1288
 1053loPI   GL115829  11.930  11.582   6.698 -0.1272 -0.2453 -0.2013
 1053loPI   GL215830  12.241  11.316   6.703 -0.1325 -0.1735  0.3035
 1053loPI   C1A15831  11.903  11.499   6.996 -0.1023 -0.1638  0.0959
 1053loPI   C2A15832  11.870  11.468   7.413  0.1144  0.4563 -0.2210
 1053loPI   C3A15833  12.018  11.442   7.814  0.0601 -0.1269  0.2663
 1053loPI   C4A15834  11.906  11.508   8.227  0.0589 -0.3564 -0.0477
 1053loPI   C5A15835  11.899  11.834   8.526  0.1543  0.0209 -0.0265
 1053loPI   C6A15836  11.730  11.795   8.905  0.1410  0.3097 -0.0887
 1053loPI   C1B15837  12.242  11.143   7.028 -0.1488  0.3530 -0.2077
 1053loPI   C2B15838  12.261  11.176   7.440  0.0168 -0.3021  0.2039
 1053loPI   C3B15839  12.318  11.096   7.894 -0.2668 -0.2358 -0.0319
 1053loPI   C4B15840  12.333  11.104   8.262 -0.1065  0.0987 -0.3163
 1054loPI    C115841  16.705  11.646   6.237 -0.0487  0.0370 -0.0319
 1054loPI    C215842  16.843  11.280   6.154 -0.0996  0.0244 -0.0606
 1054loPI    C315843  16.531  11.427   5.951 -0.0278  0.1158 -0.1055
 1054loPI   PO415844  16.749  11.747   6.505  0.0706 -0.3506  0.0828
 1054loPI   GL115845  16.981  11.776   6.880  0.0563 -0.1148  0.2041
 1054loPI   GL215846  16.723  11.942   7.059  0.1905  0.1515 -0.3195
 1054loPI   C1A15847  17.070  11.529   7.297 -0.1457 -0.1109 -0.1513
 1054loPI   C2A15848  17.031  11.396   7.687 -0.1554  0.0158 -0.0430
 1054loPI   C3A15849  17.151  11.541   8.027  0.3515 -0.0023  0.2209
 1054loPI   C4A15850  17.102  11.445   8.436 -0.1071 -0.0345  0.0011
 1054loPI   C5A15851  17.265  11.319   8.808  0.0903 -0.1465 -0.0521
 1054loPI   C6A15852  17.243  11.575   9.073  0.1184 -0.0618  0.2948
 1054loPI   C1B15853  16.739  11.908   7.518  0.1480 -0.0139 -0.2717
 1054loPI   C2B15854  16.710  11.840   7.993 -0.1604 -0.1560  0.4007
 1054loPI   C3B15855  16.613  11.765   8.531 -0.1589 -0.1402  0.0750
 1054loPI   C4B15856  16.942  11.827   8.796  0.1394 -0.1912  0.3080
 1055loPI    C115857   4.060   8.277   5.608 -0.0813 -0.0671 -0.0522
 1055loPI    C215858   3.842   8.597   5.507 -0.0390  0.1278  0.4437
 1055loPI    C315859   4.201   8.539   5.340 -0.0967  0.2749  0.2651
 1055loPI   PO415860   4.091   8.350   5.891 -0.0522  0.1966 -0.0531
 1055loPI   GL115861   4.179   8.598   6.257 -0.1337 -0.1268 -0.0688
 1055loPI   GL215862   4.423   8.719   6.286 -0.1299 -0.3740  0.0423
 1055loPI   C1A15863   4.246   8.882   6.668 -0.0167  0.4552  0.0815
 1055loPI   C2A15864   4.326   8.991   7.018  0.0461  0.3103 -0.1221
 1055loPI   C3A15865   4.273   8.951   7.473  0.0453 -0.1352 -0.0566
 1055loPI   C4A15866   4.305   8.861   7.941 -0.1690  0.0513 -0.3049
 1055loPI   C5A15867   4.363   8.679   8.378 -0.0043 -0.0689 -0.1960
 1055loPI   C6A15868   4.796   8.536   8.584 -0.2639  0.2672  0.0379
 1055loPI   C1B15869   4.757   8.974   6.635  0.0398  0.0223  0.1738
 1055loPI   C2B15870   4.932   9.147   7.022  0.0121 -0.0927  0.0457
 1055loPI   C3B15871   4.792   9.164   7.394  0.1623  0.0166 -0.3609
 1055loPI   C4B15872   4.764   8.992   7.804  0.0783 -0.1135 -0.1467
 1056loPI    C115873  14.131  15.826   6.217 -0.2046  0.0716 -0.0401
 1056loPI    C215874  14.434  15.579   6.131  0.0806  0.2501  0.4183
 1056loPI    C315875  14.426  15.947   5.975 -0.1245  0.1039  0.0732
 1056loPI   PO415876  14.121  15.908   6.437 -0.0498 -0.1785 -0.0580
 1056loPI   GL115877  14.233  16.011   6.727  0.1322  0.1281 -0.2000
 1056loPI   GL215878  14.201  16.360   6.932 -0.1048  0.1226  0.3677
 1056loPI   C1A15879  14.499  15.946   7.087  0.3374 -0.0672  0.0721
 1056loPI   C2A15880  14.648  15.961   7.597  0.1423 -0.0098  0.2226
 1056loPI   C3A15881  14.584  15.965   8.089 -0.1737  0.5582 -0.1982
 1056loPI   C4A15882  14.605  15.973   8.557  0.0009  0.0576  0.0356
 1056loPI   C5A15883  14.520  15.937   8.987 -0.0448  0.4398 -0.0574
 1056loPI   C6A15884  14.552  15.875   9.495 -0.0876  0.4981  0.0603
 1056loPI   C1B15885  14.202  16.284   7.367  0.0958 -0.2185 -0.3406
 1056loPI   C2B15886  14.198  16.323   7.826 -0.3135 -0.1562 -0.2745
 1056loPI   C3B15887  14.221  16.317   8.242 -0.0136 -0.1525 -0.1011
 1056loPI   C4B15888  14.244  16.364   8.611 -0.0571 -0.0807 -0.0635
 1057loPI    C115889  12.422  17.269   6.197 -0.1991 -0.3704  0.0639
 1057loPI    C215890  12.752  17.070   6.091 -0.0136 -0.0518  0.0292
 1057loPI    C315891  12.412  17.016   5.887  0.1059 -0.1236 -0.1545
 1057loPI   PO415892  12.492  17.351   6.376  0.0620  0.1281 -0.0876
 1057loPI   GL115893  12.542  17.274   6.753 -0.1355  0.1617 -0.0190
 1057loPI   GL215894  12.465  16.919   6.660  0.2136 -0.1288 -0.0792
 1057loPI   C1A15895  12.608  17.329   7.146  0.2204 -0.0127 -0.0897
 1057loPI   C2A15896  12.648  17.361   7.474 -0.0980  0.0468 -0.0203
 1057loPI   C3A15897  12.624  17.349   7.874 -0.2058  0.2276  0.0787
 1057loPI   C4A15898  12.519  17.282   8.221 -0.2298 -0.0365  0.0049
 1057loPI   C5A15899  12.498  17.361   8.595  0.2973 -0.2004  0.1755
 1057loPI   C6A15900  12.111  17.473   8.617  0.3360  0.1834 -0.1681
 1057loPI   C1B15901  12.410  16.891   7.070  0.0468 -0.0799 -0.4085
 1057loPI   C2B15902  12.447  16.857   7.530 -0.0155 -0.1956  0.1130
 1057loPI   C3B15903  12.539  16.783   7.982  0.2745 -0.0481  0.0591
 1057loPI   C4B15904  12.378  16.778   8.344  0.1585 -0.0582  0.0714
 1058loPI    C115905  14.039  17.289   6.133 -0.0667 -0.0952 -0.0783
 1058loPI    C215906  13.720  17.380   5.909 -0.1068 -0.1826 -0.0572
 1058loPI    C315907  14.087  17.483   5.786 -0.1769  0.3302  0.1384
 1058loPI   PO415908  14.022  17.329   6.348  0.2861  0.0367  0.2243
 1058loPI   GL115909  13.873  17.343   6.729  0.4752  0.1095 -0.2396
 1058loPI   GL215910  13.532  17.470   6.749 -0.2860  0.2165  0.0786
 1058loPI   C1A15911  14.042  17.307   7.084  0.0368  0.0638 -0.1581
 1058loPI   C2A15912  14.357  17.262   7.308 -0.1029  0.1825 -0.0379
 1058loPI   C3A15913  14.463  17.326   7.741 -0.0788 -0.0528 -0.3131
 1058loPI   C4A15914  14.397  17.370   8.188 -0.0615 -0.1102 -0.2686
 1058loPI   C5A15915  14.584  17.330   8.576 -0.1632  0.0688  0.0661
 1058loPI   C6A15916  14.735  17.067   8.964  0.1739  0.0533 -0.0173
 1058loPI   C1B15917  13.632  17.658   7.098 -0.1024 -0.0546  0.2480
 1058loPI   C2B15918  13.581  17.764   7.490 -0.1027 -0.0754 -0.1421
 1058loPI   C3B15919  13.646  17.641   7.994  0.1852  0.2238 -0.0450
 1058loPI   C4B15920  13.596  17.475   8.371  0.1840 -0.2564  0.0360
 1059loPI    C115921  16.739   4.739   5.765  0.2349  0.2326 -0.1898
 1059loPI    C215922  16.643   4.396   5.584  0.1606  0.2121 -0.1123
 1059loPI    C315923  16.727   4.721   5.366 -0.2135  0.2659 -0.1827
 1059loPI   PO415924  16.530   4.657   6.109  0.3209  0.2564 -0.2790
 1059loPI   GL115925  16.423   4.476   6.452 -0.0344  0.2274 -0.0476
 1059loPI   GL215926  16.732   4.324   6.405 -0.0503 -0.0776  0.2588
 1059loPI   C1A15927  16.721   4.748   6.713 -0.1918 -0.3054  0.1100
 1059loPI   C2A15928  16.830   4.863   7.181  0.2401  0.1498 -0.2104
 1059loPI   C3A15929  16.732   4.916   7.690 -0.0907  0.1088 -0.2172
 1059loPI   C4A15930  16.791   4.926   8.172  0.0796  0.0181 -0.3578
 1059loPI   C5A15931  16.894   5.232   8.550  0.0512  0.0819 -0.1128
 1059loPI   C6A15932  16.972   5.130   8.992 -0.0088  0.1689 -0.0223
 1059loPI   C1B15933  16.726   4.276   6.757  0.1282 -0.0503 -0.2609
 1059loPI   C2B15934  16.666   4.376   7.207 -0.2540 -0.2225 -0.2583
 1059loPI   C3B15935  16.556   4.331   7.529  0.0651 -0.0440 -0.2105
 1059loPI   C4B15936  16.664   4.382   8.052 -0.3430 -0.2895  0.0174
 1060loPI    C115937  14.592   4.449   5.987  0.0351 -0.2643  0.0317
 1060loPI    C215938  14.819   4.728   5.812  0.0313 -0.2448  0.0578
 1060loPI    C315939  14.681   4.419   5.598  0.0399 -0.2295  0.0301
 1060loPI   PO415940  14.676   4.402   6.184 -0.0094  0.1915  0.2434
 1060loPI   GL115941  14.554   4.323   6.611 -0.2400  0.0496 -0.1438
 1060loPI   GL215942  14.642   4.653   6.695 -0.1671  0.1113 -0.1530
 1060loPI   C1A15943  14.638   4.368   7.054  0.0470 -0.0878  0.1668
 1060loPI   C2A15944  14.726   4.342   7.393 -0.0491  0.3396  0.1687
 1060loPI   C3A15945  14.751   4.296   7.805  0.0273  0.3298  0.0253
 1060loPI   C4A15946  14.792   4.428   8.210  0.0758  0.0391  0.1015
 1060loPI   C5A15947  15.070   4.631   8.455 -0.1653  0.0270 -0.0158
 1060loPI   C6A15948  15.537   4.666   8.532 -0.1127 -0.0694 -0.1128
 1060loPI   C1B15949  14.854   4.809   7.102  0.3080  0.0686 -0.2396
 1060loPI   C2B15950  14.833   4.903   7.549 -0.2159 -0.0202  0.0353
 1060loPI   C3B15951  14.882   4.870   7.910  0.1008  0.2292  0.1880
 1060loPI   C4B15952  14.729   5.035   8.303  0.0762 -0.0932 -0.2277
 1061loPI    C115953   6.122   3.275   6.043 -0.0655  0.0711  0.1027
 1061loPI    C215954   6.247   3.645   6.126 -0.1856  0.1407 -0.0220
 1061loPI    C315955   6.353   3.471   5.781 -0.0379  0.0155  0.0851
 1061loPI   PO415956   6.218   3.109   6.240  0.3051  0.0237 -0.0270
 1061loPI   GL115957   6.153   3.020   6.599 -0.1663 -0.2936  0.3057
 1061loPI   GL215958   6.377   2.924   6.777  0.1915 -0.1108 -0.2229
 1061loPI   C1A15959   5.988   3.293   7.018 -0.3315 -0.1147 -0.0491
 1061loPI   C2A15960   6.006   3.283   7.412  0.1310 -0.3362 -0.3685
 1061loPI   C3A15961   6.041   3.398   7.775  0.5424  0.1552 -0.0812
 1061loPI   C4A15962   5.939   3.395   8.150 -0.1640  0.0390  0.1073
 1061loPI   C5A15963   5.766   3.254   8.517 -0.3201 -0.1104 -0.0426
 1061loPI   C6A15964   5.873   2.993   8.797 -0.2003 -0.1237 -0.0324
 1061loPI   C1B15965   6.400   2.890   7.210 -0.1853  0.0552  0.5306
 1061loPI   C2B15966   6.360   2.976   7.625  0.0834 -0.1765  0.0237
 1061loPI   C3B15967   6.325   2.985   8.055 -0.0463 -0.0331 -0.1586
 1061loPI   C4B15968   6.317   3.119   8.409 -0.0776 -0.2345 -0.1991
 1062loPI    C115969  15.538  16.776   6.050 -0.0419  0.0923 -0.0353
 1062loPI    C215970  15.703  16.919   6.385  0.0139  0.1221 -0.0751
 1062loPI    C315971  15.796  17.081   6.032  0.1334 -0.0591 -0.1283
 1062loPI   PO415972  15.461  16.530   6.149 -0.1658  0.2000 -0.0043
 1062loPI   GL115973  15.670  16.407   6.527 -0.2681 -0.5006 -0.1017
 1062loPI   GL215974  15.526  16.173   6.538 -0.0668  0.2544  0.0376
 1062loPI   C1A15975  15.623  16.709   6.795  0.3144  0.2146 -0.0129
 1062loPI   C2A15976  15.667  16.669   7.180  0.1758 -0.2646 -0.0270
 1062loPI   C3A15977  15.715  16.736   7.681 -0.0643 -0.2164 -0.2645
 1062loPI   C4A15978  15.692  16.711   8.092  0.1621 -0.1346  0.0132
 1062loPI   C5A15979  15.696  16.716   8.506  0.3487 -0.1278 -0.0645
 1062loPI   C6A15980  15.766  16.732   8.910 -0.0156  0.1351 -0.0007
 1062loPI   C1B15981  15.483  16.228   7.052  0.1174  0.0384  0.0946
 1062loPI   C2B15982  15.577  16.290   7.525  0.0826  0.0448  0.1274
 1062loPI   C3B15983  15.627  16.232   7.947 -0.0020  0.2331  0.0376
 1062loPI   C4B15984  15.598  16.180   8.395 -0.3512 -0.0109 -0.1752
 1063loPI    C115985   4.166  10.034   5.888  0.1149  0.0580  0.0226
 1063loPI    C215986   4.507  10.025   5.678  0.1036 -0.1009  0.0095
 1063loPI    C315987   4.155  10.049   5.488  0.1010 -0.0755  0.0175
 1063loPI   PO415988   4.226   9.884   6.022 -0.1786 -0.0756  0.0490
 1063loPI   GL115989   4.476   9.854   6.295  0.0522  0.0777 -0.1437
 1063loPI   GL215990   4.654   9.835   6.507  0.1717  0.2659  0.0944
 1063loPI   C1A15991   4.118   9.742   6.597  0.0403 -0.0528  0.1307
 1063loPI   C2A15992   4.040   9.791   7.018  0.2132  0.2222  0.0857
 1063loPI   C3A15993   4.120   9.826   7.409 -0.0517  0.0191 -0.0445
 1063loPI   C4A15994   4.071   9.848   7.807 -0.0987  0.1060  0.2985
 1063loPI   C5A15995   4.001   9.812   8.259  0.0218  0.3110  0.2461
 1063loPI   C6A15996   4.064   9.420   8.415 -0.2262 -0.1182 -0.0952
 1063loPI   C1B15997   4.626   9.919   6.936 -0.3799  0.0550  0.3065
 1063loPI   C2B15998   4.635   9.918   7.417  0.1565 -0.4550  0.1233
 1063loPI   C3B15999   4.529  10.014   7.740  0.2525 -0.0308 -0.0701
 1063loPI   C4B16000   4.585   9.819   8.121 -0.3985  0.0796 -0.1025
 1064loPI    C116001   3.838   0.694   6.119  0.0306 -0.0940 -0.0093
 1064loPI    C216002   3.644   1.007   5.963  0.0367 -0.1674 -0.1667
 1064loPI    C316003   3.956   1.066   6.206 -0.0848 -0.0504 -0.0374
 1064loPI   PO416004   3.665   0.591   6.252 -0.1976  0.0489  0.0238
 1064loPI   GL116005   3.868   0.409   6.593 -0.0376  0.3728 -0.0981
 1064loPI   GL216006   3.809   0.783   6.720  0.0808  0.1988 -0.0947
 1064loPI   C1A16007   3.689   0.390   6.950 -0.0124  0.3812  0.1646
 1064loPI   C2A16008   3.766   0.413   7.343 -0.1835 -0.0624 -0.1914
 1064loPI   C3A16009   3.826   0.336   7.662 -0.0807  0.3678  0.0260
 1064loPI   C4A16010   3.861   0.468   7.966  0.0236 -0.2290 -0.1838
 1064loPI   C5A16011   3.846   0.298   8.440 -0.0812 -0.0150  0.1740
 1064loPI   C6A16012   3.984   0.553   8.723 -0.1033  0.4109 -0.0486
 1064loPI   C1B16013   3.833   0.828   7.170 -0.3747 -0.1277 -0.1604
 1064loPI   C2B16014   3.979   0.852   7.593 -0.1834  0.1182  0.0640
 1064loPI   C3B16015   3.998   0.950   8.036 -0.1623  0.0976 -0.2962
 1064loPI   C4B16016   3.936   1.036   8.540 -0.0279 -0.1749 -0.0052
 1065loPI    C116017   3.107  16.729   5.618  0.0404  0.1559 -0.0703
 1065loPI    C216018   3.257  16.366   5.545 -0.1371  0.0354  0.1522
 1065loPI    C316019   2.967  16.513   5.312 -0.0018  0.0737  0.0066
 1065loPI   PO416020   3.116  16.662   5.947 -0.1201  0.2571 -0.0624
 1065loPI   GL116021   3.102  16.724   6.352 -0.0046  0.1608  0.1910
 1065loPI   GL216022   3.082  16.500   6.574 -0.0992 -0.1498 -0.1077
 1065loPI   C1A16023   2.885  16.816   6.908  0.0120  0.1474 -0.0141
 1065loPI   C2A16024   2.695  16.815   7.246 -0.1766  0.2214  0.1659
 1065loPI   C3A16025   2.759  16.930   7.729  0.2262  0.2506 -0.0403
 1065loPI   C4A16026   2.740  17.020   8.252 -0.0084 -0.1079 -0.1140
 1065loPI   C5A16027   2.449  16.842   8.573 -0.1171 -0.1743  0.2686
 1065loPI   C6A16028   2.480  16.659   8.864 -0.0840 -0.0582 -0.0027
 1065loPI   C1B16029   2.972  16.359   7.011 -0.0550 -0.0065 -0.1328
 1065loPI   C2B16030   3.005  16.412   7.433  0.1298  0.0549 -0.2114
 1065loPI   C3B16031   3.067  16.565   7.802 -0.1364 -0.0427  0.1623
 1065loPI   C4B16032   3.029  16.644   8.145 -0.0804  0.1695  0.0871
 1066loPI    C116033   1.430  12.998   6.415  0.1863 -0.3596  0.0433
 1066loPI    C216034   1.343  12.775   6.094  0.0255  0.0522 -0.2066
 1066loPI    C316035   1.054  12.981   6.280  0.1373 -0.0971  0.1406
 1066loPI   PO416036   1.589  12.877   6.543 -0.1122 -0.0036  0.0698
 1066loPI   GL116037   1.511  12.986   6.954 -0.0677  0.0558 -0.0630
 1066loPI   GL216038   1.878  12.957   6.955 -0.1687  0.1186 -0.2237
 1066loPI   C1A16039   1.560  12.994   7.397 -0.3666  0.1736  0.1485
 1066loPI   C2A16040   1.480  12.899   7.814 -0.0231  0.0525 -0.2346
 1066loPI   C3A16041   1.641  12.818   8.303  0.1527 -0.1145  0.2192
 1066loPI   C4A16042   1.606  13.025   8.763  0.1879 -0.0829  0.3675
 1066loPI   C5A16043   1.301  13.132   8.988 -0.1183 -0.0159  0.0851
 1066loPI   C6A16044   1.071  12.966   9.240  0.0185  0.1276  0.0791
 1066loPI   C1B16045   2.054  13.032   7.365 -0.2804  0.1818  0.1476
 1066loPI   C2B16046   2.101  12.971   7.871 -0.1639 -0.0839  0.0341
 1066loPI   C3B16047   2.118  12.972   8.342 -0.2242 -0.1136  0.2590
 1066loPI   C4B16048   2.205  12.895   8.833 -0.0181 -0.2180  0.0882
 1067loPI    C116049   3.751   5.531   5.847 -0.0142  0.0491 -0.0490
 1067loPI    C216050   3.982   5.571   5.523 -0.0147 -0.1543 -0.0759
 1067loPI    C316051   4.054   5.277   5.784 -0.1751 -0.1510 -0.0267
 1067loPI   PO416052   3.754   5.723   6.057 -0.3213 -0.1749 -0.0058
 1067loPI   GL116053   3.866   5.813   6.497 -0.2230 -0.1577 -0.0522
 1067loPI   GL216054   3.646   5.979   6.605 -0.2566  0.0358  0.0657
 1067loPI   C1A16055   3.882   5.485   6.824  0.2524 -0.0901  0.2149
 1067loPI   C2A16056   3.856   5.524   7.219 -0.2219 -0.1341  0.0900
 1067loPI   C3A16057   3.776   5.529   7.647 -0.0819 -0.2487  0.0265
 1067loPI   C4A16058   3.853   5.476   8.074 -0.2433  0.1187 -0.0388
 1067loPI   C5A16059   3.735   5.232   8.446 -0.2709 -0.1397  0.0087
 1067loPI   C6A16060   3.619   4.752   8.402  0.1634 -0.0482 -0.0550
 1067loPI   C1B16061   3.480   5.985   7.081 -0.0510  0.0486  0.2195
 1067loPI   C2B16062   3.491   5.959   7.473  0.0490  0.2000  0.1882
 1067loPI   C3B16063   3.453   5.864   7.939  0.0090 -0.3520  0.1615
 1067loPI   C4B16064   3.238   5.793   8.314  0.2253 -0.1774  0.1708
 1068loPI    C116065  10.425  14.602   5.939  0.0357 -0.0561  0.0298
 1068loPI    C216066  10.694  14.762   5.690  0.0843 -0.0384  0.0932
 1068loPI    C316067  10.619  14.369   5.679 -0.0358 -0.0120 -0.0635
 1068loPI   PO416068  10.550  14.652   6.219  0.0516 -0.1972  0.0350
 1068loPI   GL116069  10.433  14.585   6.535  0.1206 -0.3550  0.2049
 1068loPI   GL216070  10.092  14.808   6.595  0.0746  0.1083  0.0527
 1068loPI   C1A16071  10.551  14.820   6.918  0.2421  0.1064 -0.0613
 1068loPI   C2A16072  10.547  14.932   7.358 -0.3278 -0.1296 -0.0106
 1068loPI   C3A16073  10.471  14.852   7.699 -0.1162  0.0572 -0.1909
 1068loPI   C4A16074  10.460  14.833   8.207  0.1954 -0.2611 -0.2721
 1068loPI   C5A16075  10.620  14.921   8.639  0.0142 -0.0553 -0.0737
 1068loPI   C6A16076  10.876  14.768   9.087 -0.0958  0.1706 -0.1112
 1068loPI   C1B16077  10.028  14.657   6.970  0.2056  0.2165  0.1772
 1068loPI   C2B16078  10.126  14.767   7.285 -0.0616 -0.1497  0.2064
 1068loPI   C3B16079   9.991  14.756   7.674 -0.0466  0.1510 -0.2039
 1068loPI   C4B16080  10.010  14.750   8.078 -0.0063 -0.0024  0.0801
 1069loPI    C116081  10.727  12.952   5.746  0.1679 -0.1357 -0.1239
 1069loPI    C216082  10.606  13.146   5.418  0.1603 -0.3144 -0.2281
 1069loPI    C316083  10.986  13.026   5.451  0.3012  0.1857  0.0690
 1069loPI   PO416084  10.525  13.088   5.960 -0.1542  0.3625 -0.1124
 1069loPI   GL116085  10.491  13.018   6.376 -0.0932 -0.2151  0.1627
 1069loPI   GL216086  10.296  13.158   6.444 -0.0018 -0.0423 -0.2690
 1069loPI   C1A16087  10.610  12.912   6.803 -0.3065  0.1672 -0.3015
 1069loPI   C2A16088  10.467  12.976   7.232 -0.0665  0.0107 -0.1970
 1069loPI   C3A16089  10.428  12.959   7.672 -0.1127 -0.1525  0.2197
 1069loPI   C4A16090  10.371  12.904   8.151 -0.1206 -0.0176 -0.0427
 1069loPI   C5A16091  10.572  13.020   8.577  0.3160 -0.0571  0.0112
 1069loPI   C6A16092  10.447  13.049   9.009 -0.1063 -0.2678  0.0156
 1069loPI   C1B16093  10.156  13.208   6.835  0.0067  0.2875  0.0316
 1069loPI   C2B16094  10.154  13.385   7.233  0.3015 -0.0410 -0.0014
 1069loPI   C3B16095  10.021  13.314   7.588  0.0036  0.1529  0.3490
 1069loPI   C4B16096  10.046  13.307   8.024  0.1543 -0.0595 -0.0173
 1070loPI    C116097   6.893   7.417   6.027 -0.2610  0.1943  0.0841
 1070loPI    C216098   6.623   7.123   6.007 -0.2770  0.1874  0.3540
 1070loPI    C316099   6.541   7.481   5.848 -0.2463  0.0412 -0.0011
 1070loPI   PO416100   6.949   7.310   6.345  0.0204 -0.1778  0.0533
 1070loPI   GL116101   6.985   7.419   6.629 -0.1949  0.3975 -0.1847
 1070loPI   GL216102   7.359   7.323   6.644 -0.1587 -0.2011  0.0280
 1070loPI   C1A16103   6.888   7.251   7.095  0.0943  0.1848 -0.0525
 1070loPI   C2A16104   6.710   7.253   7.474 -0.1854  0.1083  0.1162
 1070loPI   C3A16105   6.537   7.156   7.809 -0.3409  0.0841 -0.0767
 1070loPI   C4A16106   6.641   7.009   8.224 -0.0102 -0.0169 -0.0499
 1070loPI   C5A16107   6.754   6.835   8.529 -0.2303  0.0971  0.1087
 1070loPI   C6A16108   7.021   6.550   8.781  0.0924 -0.3566  0.0506
 1070loPI   C1B16109   7.381   7.187   7.003  0.0254  0.1297 -0.1484
 1070loPI   C2B16110   7.369   7.040   7.456 -0.1570  0.0885  0.1242
 1070loPI   C3B16111   7.490   6.963   7.871 -0.0111  0.2368  0.2578
 1070loPI   C4B16112   7.439   6.969   8.325 -0.3474  0.1587  0.2467
 1071loPI    C116113   3.209  15.066   6.002  0.0423 -0.0908  0.0656
 1071loPI    C216114   3.185  15.384   5.761 -0.0798  0.0098  0.2085
 1071loPI    C316115   3.500  15.139   5.737 -0.1611 -0.0649 -0.1534
 1071loPI   PO416116   3.138  15.165   6.190 -0.0714  0.3682 -0.1439
 1071loPI   GL116117   3.412  15.088   6.562 -0.2798  0.4183  0.0355
 1071loPI   GL216118   3.037  15.216   6.726 -0.0008  0.0608  0.2893
 1071loPI   C1A16119   3.481  15.251   6.990  0.1652  0.1386 -0.0545
 1071loPI   C2A16120   3.714  15.379   7.350 -0.1613 -0.0228  0.0237
 1071loPI   C3A16121   3.756  15.419   7.807  0.0268 -0.3190  0.1386
 1071loPI   C4A16122   3.624  15.406   8.170 -0.2230  0.4909 -0.0351
 1071loPI   C5A16123   3.438  15.406   8.606 -0.1093  0.2700  0.1507
 1071loPI   C6A16124   3.335  15.564   8.934 -0.0565 -0.2950 -0.0485
 1071loPI   C1B16125   2.940  15.148   7.060  0.0894  0.0118  0.0660
 1071loPI   C2B16126   3.133  15.138   7.396 -0.0043  0.0543 -0.3625
 1071loPI   C3B16127   3.242  15.207   7.766  0.0376 -0.1651  0.1610
 1071loPI   C4B16128   3.123  15.224   8.196 -0.1285  0.1063 -0.0836
 1072loPI    C116129  13.215   1.846   6.016 -0.0683 -0.0979 -0.0247
 1072loPI    C216130  12.940   1.621   6.199  0.0556 -0.2104  0.0254
 1072loPI    C316131  13.103   1.497   5.856 -0.0845 -0.0595 -0.0975
 1072loPI   PO416132  13.403   1.912   6.205  0.0887 -0.1491  0.0841
 1072loPI   GL116133  13.588   2.028   6.574  0.1187  0.2618  0.0241
 1072loPI   GL216134  13.436   2.364   6.549 -0.1026 -0.0307 -0.2742
 1072loPI   C1A16135  13.849   1.945   6.942  0.0325 -0.2890 -0.1594
 1072loPI   C2A16136  13.996   1.923   7.198  0.1711 -0.2896 -0.5365
 1072loPI   C3A16137  14.014   1.821   7.634 -0.0971  0.0553 -0.0863
 1072loPI   C4A16138  14.098   1.778   8.044  0.0678  0.1481  0.2490
 1072loPI   C5A16139  13.980   1.724   8.415  0.0461 -0.0413  0.0223
 1072loPI   C6A16140  14.063   1.323   8.643  0.2588  0.2184  0.2287
 1072loPI   C1B16141  13.522   2.359   6.905 -0.0769 -0.3280 -0.0805
 1072loPI   C2B16142  13.612   2.293   7.288  0.0071 -0.1070 -0.1483
 1072loPI   C3B16143  13.556   2.237   7.733 -0.0982 -0.2783  0.0163
 1072loPI   C4B16144  13.684   2.098   8.116  0.0962 -0.0565  0.0998
 1073loPI    C116145   5.814   1.919   5.617 -0.0757  0.1669 -0.0365
 1073loPI    C216146   5.435   2.028   5.679 -0.1191 -0.0611  0.1121
 1073loPI    C316147   5.529   1.809   5.359 -0.1216 -0.0507  0.1042
 1073loPI   PO416148   5.941   1.943   5.927 -0.0723 -0.0007 -0.0480
 1073loPI   GL116149   6.061   1.954   6.315 -0.0054 -0.0656  0.0504
 1073loPI   GL216150   5.736   1.784   6.424  0.2797 -0.0672 -0.0215
 1073loPI   C1A16151   6.117   1.933   6.721  0.2514  0.0380  0.2901
 1073loPI   C2A16152   6.071   1.933   7.260 -0.2352 -0.1251 -0.2107
 1073loPI   C3A16153   6.146   1.933   7.641 -0.1322 -0.1089 -0.1660
 1073loPI   C4A16154   6.042   2.047   8.109  0.0337  0.2861 -0.0900
 1073loPI   C5A16155   6.076   2.023   8.484 -0.2262  0.0194  0.0737
 1073loPI   C6A16156   5.748   2.074   8.807 -0.1880 -0.3230  0.0142
 1073loPI   C1B16157   5.546   1.857   6.845 -0.0946 -0.1467  0.1761
 1073loPI   C2B16158   5.630   1.759   7.327  0.0534 -0.0883 -0.1112
 1073loPI   C3B16159   5.600   1.759   7.853  0.4619 -0.3119  0.1518
 1073loPI   C4B16160   5.645   1.813   8.331  0.2387  0.2370  0.0452
 1074loPI    C116161   3.755  12.491   6.205  0.1850  0.1119 -0.0667
 1074loPI    C216162   3.761  12.252   5.884 -0.3044  0.0043 -0.0044
 1074loPI    C316163   4.021  12.193   6.183 -0.1599 -0.1965 -0.1664
 1074loPI   PO416164   3.544  12.520   6.322  0.1645  0.1977  0.1059
 1074loPI   GL116165   3.418  12.390   6.682  0.1026  0.2592  0.0374
 1074loPI   GL216166   3.563  12.098   6.657  0.3138 -0.1568 -0.0249
 1074loPI   C1A16167   3.268  12.453   6.965  0.0621  0.0736  0.3488
 1074loPI   C2A16168   3.296  12.400   7.264  0.2333 -0.2916  0.2849
 1074loPI   C3A16169   3.301  12.496   7.699 -0.3065 -0.1263 -0.0938
 1074loPI   C4A16170   3.350  12.484   8.166  0.1262 -0.1585 -0.0573
 1074loPI   C5A16171   3.432  12.396   8.612 -0.0821  0.0170  0.0589
 1074loPI   C6A16172   3.468  12.448   9.071  0.0319 -0.2067 -0.2994
 1074loPI   C1B16173   3.592  12.064   7.067  0.0640  0.1665 -0.0214
 1074loPI   C2B16174   3.678  12.091   7.538 -0.3028 -0.1645 -0.0364
 1074loPI   C3B16175   3.664  12.080   7.963  0.0894  0.2106 -0.0332
 1074loPI   C4B16176   3.724  12.175   8.284 -0.0463 -0.0952  0.0787
 1075loPI    C116177  16.774   0.445   5.730 -0.0592 -0.0448 -0.1767
 1075loPI    C216178  17.141   0.476   5.574 -0.0722 -0.1739 -0.2348
 1075loPI    C316179  16.901   0.176   5.463 -0.1946 -0.0920 -0.1946
 1075loPI   PO416180  16.836   0.496   5.972  0.0545 -0.0341  0.2739
 1075loPI   GL116181  16.941   0.592   6.371 -0.0036  0.3067  0.0436
 1075loPI   GL216182  16.992   0.873   6.440  0.0469  0.1312 -0.3951
 1075loPI   C1A16183  17.161   0.314   6.669 -0.0866 -0.2517  0.0987
 1075loPI   C2A16184  17.266   0.386   7.119  0.0850  0.1448 -0.0072
 1075loPI   C3A16185  17.413   0.291   7.582 -0.1098 -0.1473 -0.0128
 1075loPI   C4A16186  17.372   0.337   8.113 -0.0380  0.0604  0.1169
 1075loPI   C5A16187  17.433   0.300   8.527  0.7249 -0.0819 -0.0184
 1075loPI   C6A16188  17.080   0.460   8.751  0.0534 -0.1568 -0.2161
 1075loPI   C1B16189  16.969   0.741   6.918 -0.0418  0.2377 -0.0472
 1075loPI   C2B16190  16.978   0.655   7.349  0.1602  0.0673 -0.3691
 1075loPI   C3B16191  16.917   0.621   7.808 -0.0073 -0.0388 -0.0086
 1075loPI   C4B16192  16.846   0.708   8.341 -0.0213 -0.3737  0.2047
 1076loPI    C116193  11.436  17.199   5.967  0.0665 -0.0237 -0.0540
 1076loPI    C216194  11.472  17.584   5.865 -0.2093 -0.0039 -0.0835
 1076loPI    C316195  11.535  17.298   5.593 -0.3273  0.0309 -0.1482
 1076loPI   PO416196  11.286  17.218   6.176  0.0994 -0.0934 -0.1654
 1076loPI   GL116197  11.203  17.135   6.596  0.0948  0.0368  0.3260
 1076loPI   GL216198  11.158  17.544   6.689  0.1320  0.1817 -0.2695
 1076loPI   C1A16199  11.000  16.996   6.882 -0.2546  0.0723  0.0088
 1076loPI   C2A16200  10.914  16.976   7.323 -0.0993 -0.0738 -0.0218
 1076loPI   C3A16201  10.895  16.956   7.781 -0.4667 -0.0249  0.0784
 1076loPI   C4A16202  11.081  16.787   8.142 -0.0465  0.2525  0.4243
 1076loPI   C5A16203  10.927  16.901   8.523 -0.0524  0.1948  0.0185
 1076loPI   C6A16204  10.682  17.308   8.632  0.1510 -0.1599 -0.0134
 1076loPI   C1B16205  11.027  17.493   7.110 -0.1092 -0.4347  0.2596
 1076loPI   C2B16206  10.986  17.433   7.520 -0.1014 -0.0991  0.0372
 1076loPI   C3B16207  11.104  17.350   7.964  0.0415  0.3006 -0.2188
 1076loPI   C4B16208  11.182  17.324   8.457 -0.0286  0.2419  0.4401
 1077loPI    C116209   0.101   2.370   5.871 -0.0915 -0.2862 -0.0751
 1077loPI    C216210   0.425   2.603   5.846 -0.2034 -0.1187  0.0129
 1077loPI    C316211   0.416   2.252   5.655  0.0940 -0.2024  0.1455
 1077loPI   PO416212   0.067   2.321   6.092  0.2533 -0.3734 -0.1494
 1077loPI   GL116213  -0.079   2.623   6.519 -0.2769 -0.0505  0.2745
 1077loPI   GL216214   0.120   2.781   6.708  0.0241 -0.0151  0.4319
 1077loPI   C1A16215  -0.009   2.311   6.809 -0.1719  0.3018  0.3055
 1077loPI   C2A16216   0.138   2.226   7.255  0.3379 -0.3056 -0.1242
 1077loPI   C3A16217   0.004   2.228   7.683  0.2873 -0.0764  0.4498
 1077loPI   C4A16218   0.081   2.239   8.112 -0.2345  0.2529  0.1116
 1077loPI   C5A16219  -0.157   1.896   8.466  0.1581  0.1687  0.3625
 1077loPI   C6A16220   0.025   1.476   8.454 -0.0492  0.1517  0.1557
 1077loPI   C1B16221   0.114   2.719   7.126 -0.0954 -0.1696 -0.0927
 1077loPI   C2B16222   0.166   2.750   7.502 -0.3063  0.1811 -0.3443
 1077loPI   C3B16223   0.163   2.778   7.939 -0.2498 -0.3139  0.0089
 1077loPI   C4B16224   0.295   2.661   8.331  0.3725 -0.1329 -0.2636
 1078loPI    C116225   3.681   2.261   5.918  0.0645 -0.2539 -0.2226
 1078loPI    C216226   3.361   2.369   5.705 -0.0723 -0.1968  0.0086
 1078loPI    C316227   3.686   2.228   5.519 -0.1581 -0.0711 -0.2423
 1078loPI   PO416228   3.529   2.124   6.110 -0.1093 -0.1545 -0.1049
 1078loPI   GL116229   3.420   2.138   6.500  0.3257 -0.1134 -0.1442
 1078loPI   GL216230   3.776   2.040   6.566 -0.0194  0.1210 -0.2403
 1078loPI   C1A16231   3.354   2.033   6.936  0.1769 -0.0184  0.1634
 1078loPI   C2A16232   3.173   2.054   7.341 -0.0991 -0.0927 -0.0233
 1078loPI   C3A16233   3.408   2.135   7.646 -0.0112  0.0859 -0.2328
 1078loPI   C4A16234   3.446   2.075   8.130 -0.3017  0.2620  0.0011
 1078loPI   C5A16235   3.471   2.138   8.558  0.2021 -0.3356  0.1225
 1078loPI   C6A16236   3.343   2.197   9.004  0.0590 -0.0025 -0.0794
 1078loPI   C1B16237   3.827   2.209   7.016  0.1597 -0.0898 -0.0515
 1078loPI   C2B16238   3.875   2.296   7.539  0.0173 -0.2658 -0.1530
 1078loPI   C3B16239   3.922   2.197   7.942 -0.2073 -0.1176  0.0282
 1078loPI   C4B16240   3.916   2.119   8.376  0.2347 -0.1227 -0.0806
 1079loPI    C116241   0.974  11.187   6.119 -0.1383 -0.0827  0.0471
 1079loPI    C216242   1.252  11.113   5.841 -0.1465 -0.1030  0.0442
 1079loPI    C316243   1.083  11.475   5.863 -0.3153 -0.1699 -0.1288
 1079loPI   PO416244   0.796  10.912   6.144 -0.0477  0.1523 -0.0877
 1079loPI   GL116245   0.819  10.840   6.598 -0.0809  0.0639  0.0384
 1079loPI   GL216246   0.865  10.518   6.728 -0.2480 -0.1130 -0.0060
 1079loPI   C1A16247   1.058  10.870   7.019 -0.3777 -0.1179  0.2252
 1079loPI   C2A16248   1.049  10.870   7.511 -0.0589 -0.3558  0.0481
 1079loPI   C3A16249   1.067  10.928   7.992  0.1561 -0.0924 -0.0080
 1079loPI   C4A16250   1.048  10.839   8.376 -0.0131  0.1272  0.0190
 1079loPI   C5A16251   0.835  10.912   8.779 -0.0163  0.1806 -0.0064
 1079loPI   C6A16252   0.887  10.644   9.166  0.0476  0.3459  0.2814
 1079loPI   C1B16253   0.869  10.366   7.158 -0.0529 -0.4012 -0.0350
 1079loPI   C2B16254   0.775  10.303   7.483 -0.2126  0.0414  0.1602
 1079loPI   C3B16255   0.903  10.322   7.892  0.1004  0.0878  0.0583
 1079loPI   C4B16256   0.785  10.388   8.314  0.0096  0.0101  0.0846
 1080loPI    C116257  15.703   2.119   6.104  0.2071  0.0625  0.0188
 1080loPI    C216258  15.414   2.215   5.845  0.0299 -0.2232  0.1063
 1080loPI    C316259  15.746   2.033   5.716  0.0867 -0.0703  0.0342
 1080loPI   PO416260  15.610   2.216   6.322 -0.4059  0.3180  0.2144
 1080loPI   GL116261  15.942   2.433   6.416 -0.0489 -0.1687 -0.2613
 1080loPI   GL216262  15.982   2.672   6.522 -0.2556 -0.0566  0.1041
 1080loPI   C1A16263  15.878   2.331   6.893 -0.1047  0.3364 -0.1034
 1080loPI   C2A16264  16.017   2.284   7.287 -0.1789 -0.1292  0.0938
 1080loPI   C3A16265  16.104   2.321   7.718 -0.0151  0.2401 -0.3578
 1080loPI   C4A16266  16.064   2.449   8.143 -0.1793  0.2707 -0.1904
 1080loPI   C5A16267  16.186   2.546   8.547 -0.0476 -0.0199  0.0790
 1080loPI   C6A16268  16.424   2.297   8.846  0.0151 -0.0294 -0.0790
 1080loPI   C1B16269  16.167   2.792   6.958  0.2048  0.2104 -0.1439
 1080loPI   C2B16270  16.165   2.849   7.459 -0.0443 -0.0065  0.3994
 1080loPI   C3B16271  16.153   2.900   7.905 -0.1497 -0.0081  0.4206
 1080loPI   C4B16272  16.177   2.925   8.267 -0.0280  0.4488  0.1444
 1081loPI    C116273   0.407   0.138   5.930 -0.0431  0.1607 -0.1297
 1081loPI    C216274   0.060   0.098   5.735 -0.0821  0.2391 -0.0765
 1081loPI    C316275   0.312   0.392   5.637 -0.0049  0.1479 -0.1533
 1081loPI   PO416276   0.374   0.018   6.139  0.1316 -0.1700 -0.1794
 1081loPI   GL116277   0.638  -0.226   6.443 -0.1927  0.0786  0.0913
 1081loPI   GL216278   0.368   0.033   6.673 -0.0703 -0.3226  0.2430
 1081loPI   C1A16279   0.690  -0.355   6.855 -0.2466 -0.0704 -0.0334
 1081loPI   C2A16280   0.755  -0.421   7.207  0.0176  0.0047  0.1399
 1081loPI   C3A16281   0.773  -0.464   7.602 -0.1083  0.3029 -0.2325
 1081loPI   C4A16282   0.885  -0.376   8.008  0.4378  0.1183  0.1791
 1081loPI   C5A16283   0.868  -0.396   8.477  0.1090  0.0051  0.0302
 1081loPI   C6A16284   0.686  -0.244   8.833 -0.2406 -0.0788 -0.1868
 1081loPI   C1B16285   0.272  -0.065   7.081  0.1171  0.2640  0.0199
 1081loPI   C2B16286   0.411  -0.070   7.398  0.1367  0.1277  0.0549
 1081loPI   C3B16287   0.514  -0.082   7.846  0.1311  0.0583 -0.0377
 1081loPI   C4B16288   0.542  -0.050   8.341  0.0401  0.0513 -0.1303
 1082loPI    C116289  10.797   1.014   6.282  0.2096  0.0961 -0.2436
 1082loPI    C216290  10.554   0.753   6.101  0.1751  0.1436 -0.2660
 1082loPI    C316291  10.661   1.090   5.913 -0.0887  0.3294 -0.0907
 1082loPI   PO416292  10.737   0.960   6.531 -0.0935  0.0914  0.0085
 1082loPI   GL116293  10.452   1.137   6.661  0.3619  0.0263 -0.1095
 1082loPI   GL216294  10.279   0.826   6.623 -0.0039 -0.3022 -0.0513
 1082loPI   C1A16295  10.462   1.316   7.110 -0.2398  0.1293 -0.0243
 1082loPI   C2A16296  10.471   1.300   7.490 -0.0975  0.2025 -0.0913
 1082loPI   C3A16297  10.545   1.204   7.960  0.1245 -0.0124 -0.0661
 1082loPI   C4A16298  10.602   1.243   8.347 -0.0937 -0.0700 -0.0510
 1082loPI   C5A16299  10.643   1.029   8.695  0.0517  0.2585 -0.2111
 1082loPI   C6A16300  10.905   0.726   8.958  0.0359 -0.0559  0.0461
 1082loPI   C1B16301  10.287   0.815   7.010 -0.0811 -0.0059 -0.1241
 1082loPI   C2B16302  10.300   0.820   7.473 -0.1124  0.2213  0.3116
 1082loPI   C3B16303  10.429   0.758   7.796 -0.0453  0.0501  0.0036
 1082loPI   C4B16304  10.478   0.731   8.234  0.2715  0.0319  0.0714
 1083loPI    C116305   4.522   7.529   5.627 -0.1883 -0.2513 -0.1448
 1083loPI    C216306   4.237   7.802   5.562  0.1011  0.0548 -0.1579
 1083loPI    C316307   4.425   7.632   5.252 -0.1398 -0.2327 -0.1522
 1083loPI   PO416308   4.389   7.479   5.915  0.1900  0.2694  0.1013
 1083loPI   GL116309   4.395   7.088   6.224 -0.0017  0.1281 -0.1652
 1083loPI   GL216310   4.622   7.172   6.383 -0.1655  0.0824  0.1413
 1083loPI   C1A16311   4.152   7.012   6.657  0.2556 -0.0990  0.1184
 1083loPI   C2A16312   4.217   7.055   7.201  0.3038 -0.2706 -0.0842
 1083loPI   C3A16313   4.266   7.002   7.667 -0.1242  0.1217 -0.1337
 1083loPI   C4A16314   4.133   6.943   8.060 -0.1581 -0.0009 -0.2129
 1083loPI   C5A16315   4.054   7.205   8.333  0.0447 -0.0239  0.0363
 1083loPI   C6A16316   4.152   7.549   8.670 -0.0816 -0.0693 -0.0903
 1083loPI   C1B16317   4.634   7.177   6.926  0.0358 -0.2002 -0.2161
 1083loPI   C2B16318   4.661   7.219   7.379 -0.1904  0.0408 -0.0600
 1083loPI   C3B16319   4.744   7.084   7.821 -0.1160 -0.0098  0.2528
 1083loPI   C4B16320   4.619   7.252   8.281  0.0708  0.4122 -0.1532
 1084loPI    C116321   1.601  13.224   6.041 -0.0696 -0.2311 -0.0804
 1084loPI    C216322   1.524  13.439   5.712  0.0301 -0.2751 -0.1330
 1084loPI    C316323   1.223  13.305   5.939 -0.0274  0.1659  0.0612
 1084loPI   PO416324   1.782  13.332   6.277 -0.0680  0.0645  0.0507
 1084loPI   GL116325   1.751  13.414   6.727  0.0520 -0.2527 -0.0038
 1084loPI   GL216326   1.922  13.732   6.556  0.0389  0.1454 -0.1378
 1084loPI   C1A16327   1.676  13.458   7.183 -0.1722 -0.1859 -0.0104
 1084loPI   C2A16328   1.625  13.404   7.593  0.0037  0.0824  0.2844
 1084loPI   C3A16329   1.696  13.508   8.071  0.4077  0.2363 -0.2368
 1084loPI   C4A16330   1.747  13.340   8.383 -0.1138 -0.1485 -0.1571
 1084loPI   C5A16331   1.632  13.628   8.796  0.2900  0.1527 -0.2952
 1084loPI   C6A16332   1.429  13.579   9.290  0.0407  0.0089  0.0534
 1084loPI   C1B16333   1.799  13.846   6.947 -0.2228 -0.1917 -0.1098
 1084loPI   C2B16334   1.854  13.887   7.387  0.1669 -0.1200  0.2869
 1084loPI   C3B16335   1.898  13.969   7.904  0.0340 -0.0812 -0.0304
 1084loPI   C4B16336   1.876  13.980   8.312 -0.2253 -0.3005 -0.1888
 1085loPI    C116337   7.221  11.698   5.891 -0.0987  0.0407  0.0691
 1085loPI    C216338   7.441  11.827   5.582  0.0950  0.2753  0.3003
 1085loPI    C316339   7.043  11.805   5.549  0.1353  0.0081 -0.0651
 1085loPI   PO416340   7.247  11.801   6.100 -0.3313  0.3295  0.1585
 1085loPI   GL116341   6.907  11.766   6.486 -0.1854 -0.0404  0.2786
 1085loPI   GL216342   6.676  11.823   6.566  0.3275  0.1351 -0.0845
 1085loPI   C1A16343   7.063  11.976   6.902 -0.1539 -0.0370 -0.2842
 1085loPI   C2A16344   7.023  11.991   7.323  0.0193  0.1005 -0.1863
 1085loPI   C3A16345   6.913  11.983   7.796  0.2560  0.2497  0.2715
 1085loPI   C4A16346   6.850  12.077   8.311  0.2516  0.0296 -0.0531
 1085loPI   C5A16347   6.944  12.359   8.615  0.1450 -0.0176  0.0990
 1085loPI   C6A16348   7.133  12.248   9.121 -0.0321  0.1060 -0.0975
 1085loPI   C1B16349   6.490  11.823   7.005 -0.2457  0.0443  0.0009
 1085loPI   C2B16350   6.588  11.750   7.361  0.1564 -0.2183 -0.0979
 1085loPI   C3B16351   6.437  11.780   7.742  0.1102 -0.1349  0.1022
 1085loPI   C4B16352   6.414  11.872   8.123 -0.0255  0.3944  0.0735
 1086loPI    C116353   1.959  16.612   5.694  0.0947 -0.0242  0.0300
 1086loPI    C216354   1.789  16.360   5.433  0.3000 -0.1461  0.0115
 1086loPI    C316355   1.846  16.743   5.333 -0.1521 -0.0512  0.0958
 1086loPI   PO416356   2.093  16.374   5.849  0.1571  0.2266 -0.0189
 1086loPI   GL116357   2.162  16.284   6.243  0.1823 -0.0901 -0.0419
 1086loPI   GL216358   2.253  16.053   6.441  0.1350  0.3147  0.1003
 1086loPI   C1A16359   2.004  16.632   6.551 -0.1514  0.0727 -0.0200
 1086loPI   C2A16360   2.121  16.669   7.036  0.5657  0.0024 -0.2080
 1086loPI   C3A16361   2.203  16.782   7.490  0.0859 -0.1338  0.1185
 1086loPI   C4A16362   2.274  16.898   7.948 -0.2635  0.0089  0.2851
 1086loPI   C5A16363   2.035  17.111   8.288  0.1056  0.2009  0.3862
 1086loPI   C6A16364   1.974  16.975   8.640  0.2734 -0.0905  0.1149
 1086loPI   C1B16365   2.378  16.258   6.801 -0.2325  0.0571  0.0697
 1086loPI   C2B16366   2.496  16.304   7.249  0.0159 -0.3541 -0.0631
 1086loPI   C3B16367   2.578  16.412   7.679  0.2763 -0.1928 -0.1633
 1086loPI   C4B16368   2.528  16.472   8.046  0.0998 -0.2036 -0.4006
 1087loPI    C116369  15.513   8.398   5.840  0.1070 -0.0818  0.0877
 1087loPI    C216370  15.522   8.755   5.660 -0.0396  0.0102  0.2593
 1087loPI    C316371  15.626   8.426   5.458  0.2070  0.1622  0.1333
 1087loPI   PO416372  15.275   8.432   6.045  0.0690 -0.1123  0.0755
 1087loPI   GL116373  15.189   8.529   6.328 -0.1063  0.1098  0.0967
 1087loPI   GL216374  14.969   8.348   6.525  0.1057 -0.0667  0.3202
 1087loPI   C1A16375  15.335   8.665   6.728  0.1468  0.1290  0.1593
 1087loPI   C2A16376  15.420   8.582   7.178  0.1310 -0.2132  0.0167
 1087loPI   C3A16377  15.399   8.697   7.623  0.2296 -0.0945 -0.1854
 1087loPI   C4A16378  15.416   8.677   8.026  0.0847 -0.3335 -0.0168
 1087loPI   C5A16379  15.263   8.794   8.561 -0.1837 -0.0577 -0.3171
 1087loPI   C6A16380  15.456   8.810   8.951  0.0624 -0.0795  0.1938
 1087loPI   C1B16381  14.999   8.367   6.949 -0.4186  0.0347 -0.1666
 1087loPI   C2B16382  14.945   8.457   7.400  0.0683 -0.0644 -0.0916
 1087loPI   C3B16383  14.896   8.595   7.802 -0.1152 -0.0674 -0.2290
 1087loPI   C4B16384  14.866   8.617   8.264 -0.0272  0.2448 -0.3744
 1088loPI    C116385   2.963   8.207   5.685 -0.1025 -0.0144 -0.1795
 1088loPI    C216386   2.576   8.280   5.753 -0.0538  0.0697  0.0134
 1088loPI    C316387   2.708   8.235   5.378 -0.2599 -0.0189 -0.0500
 1088loPI   PO416388   3.044   8.117   5.923 -0.0977 -0.3265  0.1728
 1088loPI   GL116389   3.308   8.151   6.315 -0.1765  0.2878  0.0012
 1088loPI   GL216390   3.300   8.392   6.338  0.0136 -0.0644  0.4233
 1088loPI   C1A16391   2.993   8.180   6.672  0.1313  0.1655 -0.1100
 1088loPI   C2A16392   2.972   8.130   7.119 -0.2242  0.2859  0.1267
 1088loPI   C3A16393   3.063   8.163   7.545  0.2606 -0.1415  0.0146
 1088loPI   C4A16394   3.111   8.229   7.976 -0.1523 -0.0866  0.0767
 1088loPI   C5A16395   3.159   8.367   8.333 -0.3856  0.1104 -0.0790
 1088loPI   C6A16396   2.949   8.479   8.664  0.1403  0.0091  0.0850
 1088loPI   C1B16397   3.493   8.299   6.773  0.0973  0.0204 -0.3667
 1088loPI   C2B16398   3.683   8.295   7.210  0.0066  0.0184 -0.2334
 1088loPI   C3B16399   3.648   8.278   7.682 -0.0071  0.2700  0.3426
 1088loPI   C4B16400   3.624   8.252   8.113  0.1800 -0.1366  0.0022
 1089loPI    C116401   4.757   4.575   5.789 -0.0472 -0.0962  0.0612
 1089loPI    C216402   4.798   4.923   5.598  0.1277 -0.0419  0.1943
 1089loPI    C316403   4.767   4.583   5.389  0.0494  0.0428  0.0659
 1089loPI   PO416404   4.828   4.576   6.024 -0.0552  0.1863  0.0485
 1089loPI   GL116405   4.563   4.694   6.401 -0.3167  0.0054 -0.0791
 1089loPI   GL216406   4.513   4.491   6.494 -0.0340 -0.2058  0.1690
 1089loPI   C1A16407   4.565   4.843   6.933  0.0057  0.0136 -0.0748
 1089loPI   C2A16408   4.578   4.852   7.333  0.2550  0.0062 -0.2234
 1089loPI   C3A16409   4.592   4.815   7.820 -0.0078 -0.3188 -0.0922
 1089loPI   C4A16410   4.676   4.755   8.246  0.2100 -0.0297  0.0844
 1089loPI   C5A16411   4.408   4.747   8.519 -0.0186  0.0213  0.3652
 1089loPI   C6A16412   4.042   4.824   8.686  0.3813 -0.1407  0.1149
 1089loPI   C1B16413   4.411   4.283   6.917  0.0813 -0.2989 -0.2006
 1089loPI   C2B16414   4.460   4.371   7.280 -0.3000 -0.1240 -0.3240
 1089loPI   C3B16415   4.407   4.264   7.733  0.4219 -0.0099  0.1708
 1089loPI   C4B16416   4.416   4.254   8.174 -0.0556  0.0873  0.1254
 1090loPI    C116417   9.327  16.376   5.764  0.0512 -0.0363  0.0320
 1090loPI    C216418   9.375  15.981   5.811  0.0412 -0.0500 -0.0693
 1090loPI    C316419   9.365  16.139   5.444 -0.2417  0.0088 -0.0389
 1090loPI   PO416420   9.152  16.462   5.969 -0.1081 -0.2646 -0.0459
 1090loPI   GL116421   9.114  16.722   6.270 -0.2030 -0.2501  0.1248
 1090loPI   GL216422   9.054  16.444   6.453  0.1088  0.0640  0.1875
 1090loPI   C1A16423   9.146  16.925   6.606 -0.2153  0.1849  0.0301
 1090loPI   C2A16424   9.090  16.959   7.061 -0.0860 -0.1011 -0.0019
 1090loPI   C3A16425   9.091  16.891   7.463 -0.0607  0.4302  0.1656
 1090loPI   C4A16426   9.137  16.755   7.843 -0.2692  0.0559  0.0494
 1090loPI   C5A16427   9.136  16.806   8.275  0.1002 -0.1330  0.1054
 1090loPI   C6A16428   8.854  16.575   8.557  0.1910  0.1316  0.0393
 1090loPI   C1B16429   9.099  16.344   6.888 -0.0271 -0.1766 -0.1482
 1090loPI   C2B16430   9.002  16.203   7.226 -0.2419  0.1351  0.1205
 1090loPI   C3B16431   8.947  16.312   7.660 -0.5396 -0.0374  0.0987
 1090loPI   C4B16432   8.994  16.338   8.113 -0.1771  0.0586  0.0311
 1091loPI    C116433   6.212   6.871   5.929 -0.2719 -0.2481  0.2193
 1091loPI    C216434   6.294   7.104   5.614 -0.2136 -0.1044  0.3399
 1091loPI    C316435   6.048   6.791   5.572 -0.1229 -0.1489  0.1275
 1091loPI   PO416436   6.154   7.036   6.140  0.1504  0.1719 -0.1566
 1091loPI   GL116437   5.812   7.147   6.409  0.3460 -0.0524 -0.1909
 1091loPI   GL216438   5.923   6.843   6.530  0.4977  0.2680 -0.0720
 1091loPI   C1A16439   5.517   7.107   6.713 -0.1980 -0.0421  0.1959
 1091loPI   C2A16440   5.506   6.988   7.085 -0.3947  0.1004 -0.1412
 1091loPI   C3A16441   5.552   6.875   7.573 -0.2663 -0.2544 -0.1777
 1091loPI   C4A16442   5.569   7.001   7.975 -0.4224 -0.1520 -0.2088
 1091loPI   C5A16443   5.480   7.027   8.409 -0.1627 -0.0034 -0.0533
 1091loPI   C6A16444   5.485   7.235   8.779  0.2128  0.3714  0.0105
 1091loPI   C1B16445   6.037   7.050   6.903  0.2776  0.0104  0.0813
 1091loPI   C2B16446   5.975   7.134   7.340 -0.3519  0.1253 -0.2186
 1091loPI   C3B16447   6.021   7.063   7.764 -0.0548  0.1038 -0.0864
 1091loPI   C4B16448   5.976   6.892   8.246 -0.0718  0.2603 -0.0641
 1092loPI    C116449   2.671   7.223   6.025 -0.1096 -0.1598 -0.2375
 1092loPI    C216450   2.813   7.596   6.003 -0.1111 -0.1461 -0.0330
 1092loPI    C316451   2.933   7.321   5.739  0.2585 -0.1220  0.1033
 1092loPI   PO416452   2.670   7.173   6.302  0.0011  0.0351  0.5063
 1092loPI   GL116453   2.490   7.030   6.540 -0.2398 -0.2711 -0.0624
 1092loPI   GL216454   2.701   6.781   6.648 -0.0407  0.1055 -0.0365
 1092loPI   C1A16455   2.336   7.038   6.838 -0.3512  0.1693 -0.2052
 1092loPI   C2A16456   2.420   6.985   7.224 -0.2004 -0.0188  0.2104
 1092loPI   C3A16457   2.400   6.874   7.637  0.0481  0.2182  0.1207
 1092loPI   C4A16458   2.438   6.915   8.091 -0.1083  0.1233 -0.0872
 1092loPI   C5A16459   2.520   6.873   8.546 -0.0827 -0.1330 -0.0687
 1092loPI   C6A16460   2.752   6.651   8.847 -0.1721 -0.2483  0.0578
 1092loPI   C1B16461   2.741   6.646   6.993  0.0808  0.0766 -0.2383
 1092loPI   C2B16462   2.794   6.672   7.399  0.3133 -0.2291  0.1161
 1092loPI   C3B16463   2.747   6.569   7.792 -0.0933  0.0820 -0.0127
 1092loPI   C4B16464   2.762   6.500   8.274 -0.2449  0.1868 -0.0327
 1093loPI    C116465  13.698  14.174   6.341 -0.3841  0.2570 -0.0899
 1093loPI    C216466  13.778  14.174   5.949 -0.2337  0.0880 -0.0608
 1093loPI    C316467  13.399  14.185   6.076 -0.2916 -0.0945 -0.2141
 1093loPI   PO416468  13.866  14.416   6.451  0.0999 -0.0340  0.1664
 1093loPI   GL116469  14.187  14.552   6.700 -0.0818  0.0949  0.2819
 1093loPI   GL216470  14.205  14.953   6.710  0.0376  0.2056 -0.2744
 1093loPI   C1A16471  14.216  14.474   7.128  0.0963  0.1498 -0.1162
 1093loPI   C2A16472  14.266  14.487   7.589  0.1562 -0.3273 -0.0032
 1093loPI   C3A16473  14.225  14.404   8.005  0.4805 -0.1692 -0.0722
 1093loPI   C4A16474  14.146  14.478   8.400  0.1146  0.0809  0.0048
 1093loPI   C5A16475  13.993  14.335   8.778  0.2668 -0.1373 -0.0508
 1093loPI   C6A16476  13.921  13.880   8.800  0.2120  0.0405  0.2224
 1093loPI   C1B16477  14.251  15.003   7.191  0.0861  0.1889  0.1694
 1093loPI   C2B16478  14.322  15.035   7.609  0.0490  0.1541  0.4114
 1093loPI   C3B16479  14.330  14.891   7.914 -0.3977 -0.3383  0.1398
 1093loPI   C4B16480  14.274  14.959   8.426  0.2065 -0.2051  0.0327
 1094loPI    C116481   8.351  14.863   5.816  0.0126  0.1292  0.1106
 1094loPI    C216482   7.961  14.868   5.727 -0.0241  0.3427  0.2754
 1094loPI    C316483   8.217  15.094   5.519  0.0404  0.0701  0.0517
 1094loPI   PO416484   8.287  14.649   6.137  0.1473 -0.0131  0.1919
 1094loPI   GL116485   8.049  14.669   6.555  0.1967 -0.1317  0.0257
 1094loPI   GL216486   8.287  14.577   6.669 -0.0198 -0.0427  0.5892
 1094loPI   C1A16487   8.053  14.195   6.859  0.0739  0.0833  0.1477
 1094loPI   C2A16488   8.116  14.145   7.328 -0.1353 -0.1464  0.4030
 1094loPI   C3A16489   8.050  14.219   7.778  0.0572  0.2099 -0.1010
 1094loPI   C4A16490   7.960  14.150   8.210  0.2127 -0.1527  0.1886
 1094loPI   C5A16491   8.033  14.156   8.635 -0.1717 -0.0436  0.0333
 1094loPI   C6A16492   8.039  14.470   8.967  0.0924  0.0227  0.0510
 1094loPI   C1B16493   8.250  14.577   7.137  0.0744 -0.3117 -0.2156
 1094loPI   C2B16494   8.218  14.662   7.550 -0.1248 -0.1515 -0.3348
 1094loPI   C3B16495   8.113  14.668   8.031  0.2018  0.1555 -0.5828
 1094loPI   C4B16496   8.137  14.626   8.486 -0.1307  0.0003 -0.1474
 1095loPI    C116497   7.852   4.716   5.515  0.0653  0.0214  0.3200
 1095loPI    C216498   7.851   4.329   5.413  0.1326  0.0107  0.3601
 1095loPI    C316499   8.155   4.564   5.302 -0.2885  0.2414 -0.3728
 1095loPI   PO416500   7.750   4.629   5.808 -0.2390 -0.1042 -0.2557
 1095loPI   GL116501   7.724   4.727   6.282  0.1323 -0.2875 -0.4580
 1095loPI   GL216502   7.893   4.753   6.548  0.0676 -0.0454  0.2096
 1095loPI   C1A16503   7.468   4.732   6.763  0.0717  0.0111 -0.1033
 1095loPI   C2A16504   7.394   4.692   7.119 -0.0625 -0.1441  0.1780
 1095loPI   C3A16505   7.228   4.548   7.583 -0.1353  0.2042 -0.5782
 1095loPI   C4A16506   7.286   4.670   8.088  0.1578 -0.3177 -0.0257
 1095loPI   C5A16507   7.310   4.562   8.487 -0.0053  0.2866 -0.3348
 1095loPI   C6A16508   7.069   4.660   8.858 -0.0007 -0.2905  0.0229
 1095loPI   C1B16509   7.918   4.886   6.946 -0.1597  0.2613 -0.0100
 1095loPI   C2B16510   7.839   4.807   7.320  0.3093  0.1038  0.1524
 1095loPI   C3B16511   7.771   4.687   7.777  0.1642  0.0045  0.1688
 1095loPI   C4B16512   7.815   4.734   8.273 -0.0937  0.0630 -0.0720
 1096loPI    C116513   1.666  10.824   5.960  0.0546  0.1579 -0.1798
 1096loPI    C216514   1.775  10.521   5.722  0.2396  0.0665  0.0168
 1096loPI    C316515   1.591  10.842   5.568  0.1076 -0.1123 -0.2045
 1096loPI   PO416516   1.817  10.868   6.108 -0.0597  0.1676 -0.0323
 1096loPI   GL116517   1.735  10.946   6.489  0.1847  0.1112 -0.1573
 1096loPI   GL216518   2.054  11.032   6.555  0.2712 -0.1765 -0.0463
 1096loPI   C1A16519   1.535  10.981   6.856 -0.2594 -0.2287  0.3201
 1096loPI   C2A16520   1.595  10.937   7.280  0.3791  0.1636 -0.1371
 1096loPI   C3A16521   1.494  10.969   7.656  0.0945 -0.3173 -0.1290
 1096loPI   C4A16522   1.593  10.965   7.959  0.1865 -0.1869  0.1199
 1096loPI   C5A16523   1.600  11.041   8.374 -0.2808 -0.1496  0.0404
 1096loPI   C6A16524   1.883  11.184   8.716 -0.0425 -0.0974 -0.1127
 1096loPI   C1B16525   2.050  11.100   6.963  0.1541  0.2445  0.0347
 1096loPI   C2B16526   2.016  11.172   7.437 -0.0206 -0.0841  0.1570
 1096loPI   C3B16527   2.017  11.070   7.809  0.1483 -0.3345  0.1035
 1096loPI   C4B16528   2.087  11.085   8.213 -0.0320  0.2533  0.1017
 1097loPI    C116529  12.580   0.483   5.870 -0.1094 -0.1348  0.0026
 1097loPI    C216530  12.750   0.122   5.837  0.0079 -0.0771 -0.0287
 1097loPI    C316531  12.825   0.405   5.564 -0.0311 -0.0076  0.0324
 1097loPI   PO416532  12.684   0.531   6.145  0.1220  0.3664 -0.0081
 1097loPI   GL116533  12.654   0.825   6.468  0.2389  0.1369 -0.0883
 1097loPI   GL216534  12.320   0.808   6.498 -0.1255 -0.1154 -0.3308
 1097loPI   C1A16535  12.821   0.808   6.893  0.0932 -0.2912  0.2564
 1097loPI   C2A16536  12.767   0.460   7.152  0.1558  0.0867 -0.1855
 1097loPI   C3A16537  12.758   0.559   7.607  0.2400  0.0542  0.2074
 1097loPI   C4A16538  12.795   0.480   8.060  0.1995 -0.1014 -0.1531
 1097loPI   C5A16539  12.791   0.443   8.502 -0.2644 -0.1763  0.1149
 1097loPI   C6A16540  12.916   0.221   8.858  0.1215 -0.1584  0.1861
 1097loPI   C1B16541  12.370   0.644   6.893  0.1377  0.1882  0.0616
 1097loPI   C2B16542  12.268   0.450   7.308 -0.1362 -0.2271  0.1625
 1097loPI   C3B16543  12.282   0.321   7.670  0.0611 -0.2523 -0.3153
 1097loPI   C4B16544  12.170   0.282   8.137  0.1001  0.2241 -0.1880
 1098loPI    C116545  16.351   6.175   5.857  0.2821  0.0833 -0.1813
 1098loPI    C216546  16.229   6.474   5.622  0.1775  0.0587 -0.1589
 1098loPI    C316547  16.015   6.137   5.643  0.2462  0.0180 -0.1136
 1098loPI   PO416548  16.298   6.339   6.105  0.1241  0.0305  0.0267
 1098loPI   GL116549  16.312   6.228   6.509 -0.1526  0.1296  0.3306
 1098loPI   GL216550  16.030   6.162   6.584 -0.0603 -0.1817  0.2148
 1098loPI   C1A16551  16.605   6.231   6.829  0.3061  0.1548 -0.1138
 1098loPI   C2A16552  16.662   6.193   7.228  0.0972  0.0713 -0.0397
 1098loPI   C3A16553  16.638   6.201   7.700 -0.0517 -0.0303 -0.0034
 1098loPI   C4A16554  16.783   6.235   8.131  0.0075 -0.1574  0.0340
 1098loPI   C5A16555  16.688   6.214   8.547  0.0100 -0.0296  0.1843
 1098loPI   C6A16556  16.643   6.406   8.965 -0.0179  0.0042 -0.0137
 1098loPI   C1B16557  16.078   6.068   6.971 -0.0880  0.2141 -0.0116
 1098loPI   C2B16558  16.203   6.070   7.436 -0.0398  0.3185  0.0402
 1098loPI   C3B16559  16.164   6.135   7.848  0.2172  0.0075  0.2601
 1098loPI   C4B16560  16.280   6.044   8.297 -0.1740 -0.1880 -0.1209
 1099loPI    C116561  14.923   1.477   6.125 -0.0165  0.0689 -0.1017
 1099loPI    C216562  15.037   1.114   6.000 -0.0819  0.0257 -0.0371
 1099loPI    C316563  14.699   1.276   5.860 -0.0937  0.0281 -0.0061
 1099loPI   PO416564  15.021   1.554   6.320 -0.1599  0.0909  0.0678
 1099loPI   GL116565  15.096   1.493   6.720 -0.1813  0.0883 -0.0618
 1099loPI   GL216566  14.787   1.467   6.726 -0.0366  0.4201  0.1601
 1099loPI   C1A16567  15.196   1.709   7.042 -0.4281 -0.1218  0.1579
 1099loPI   C2A16568  15.540   1.683   7.395  0.2854 -0.0346  0.2016
 1099loPI   C3A16569  15.420   1.855   7.799  0.1010 -0.0478 -0.0624
 1099loPI   C4A16570  15.471   1.739   8.203  0.0692 -0.0703 -0.2763
 1099loPI   C5A16571  15.738   1.588   8.529  0.0835 -0.0369 -0.0603
 1099loPI   C6A16572  15.911   1.237   8.611  0.3419 -0.1473  0.3243
 1099loPI   C1B16573  14.776   1.468   7.137  0.2760  0.1193 -0.2798
 1099loPI   C2B16574  14.859   1.596   7.609 -0.3637 -0.2379  0.2485
 1099loPI   C3B16575  14.948   1.564   8.001  0.0169  0.1521 -0.0280
 1099loPI   C4B16576  14.931   1.440   8.436  0.0608  0.1532  0.1192
 1100loPI    C116577   1.925  14.298   6.017  0.1936  0.0532 -0.3303
 1100loPI    C216578   2.251  14.512   5.928  0.3408 -0.1731 -0.3423
 1100loPI    C316579   2.044  14.331   5.637  0.1791  0.0039 -0.3393
 1100loPI   PO416580   1.998  14.179   6.224 -0.1113  0.0453 -0.1030
 1100loPI   GL116581   1.694  14.219   6.587 -0.4195  0.2992  0.3106
 1100loPI   GL216582   1.406  13.958   6.662  0.0150  0.2348  0.2820
 1100loPI   C1A16583   1.704  14.316   6.973  0.0413 -0.1204 -0.1317
 1100loPI   C2A16584   1.620  14.293   7.411 -0.1860 -0.3679  0.2260
 1100loPI   C3A16585   1.582  14.355   7.825  0.1387 -0.1023  0.2014
 1100loPI   C4A16586   1.489  14.291   8.217 -0.1192 -0.2269  0.1604
 1100loPI   C5A16587   1.513  14.254   8.637  0.1217  0.2555  0.2335
 1100loPI   C6A16588   1.209  13.980   8.833  0.2923 -0.2135 -0.0475
 1100loPI   C1B16589   1.318  13.931   7.084  0.0342  0.2136  0.3369
 1100loPI   C2B16590   1.352  13.833   7.457 -0.0894 -0.1656 -0.1454
 1100loPI   C3B16591   1.356  13.862   7.880  0.0794  0.4406 -0.3229
 1100loPI   C4B16592   1.379  13.777   8.354 -0.2506 -0.2296  0.1599
 1101loPI    C116593   3.709  16.312   5.823 -0.0570 -0.1520  0.1044
 1101loPI    C216594   3.569  16.684   5.781 -0.0326 -0.1493  0.0442
 1101loPI    C316595   3.905  16.575   5.594 -0.1323 -0.2521 -0.0769
 1101loPI   PO416596   3.485  16.296   6.118  0.0264 -0.1768  0.2366
 1101loPI   GL116597   3.717  16.209   6.394 -0.1215 -0.0368  0.2502
 1101loPI   GL216598   4.004  16.356   6.474 -0.1415  0.0006  0.2606
 1101loPI   C1A16599   3.487  16.162   6.746 -0.1498  0.0255  0.0905
 1101loPI   C2A16600   3.430  16.167   7.141 -0.0783  0.3512  0.0471
 1101loPI   C3A16601   3.527  16.219   7.478 -0.1896  0.4059  0.3730
 1101loPI   C4A16602   3.357  16.175   7.926  0.1004  0.1249 -0.1659
 1101loPI   C5A16603   3.362  16.287   8.248  0.2481  0.1023  0.0002
 1101loPI   C6A16604   3.307  16.522   8.536  0.1249  0.1578  0.1021
 1101loPI   C1B16605   3.949  16.300   6.854  0.1414 -0.0668 -0.1385
 1101loPI   C2B16606   3.981  16.273   7.292  0.1678 -0.3052 -0.2601
 1101loPI   C3B16607   3.937  16.358   7.808  0.0262 -0.2399  0.2672
 1101loPI   C4B16608   3.928  16.410   8.279 -0.3294 -0.0574 -0.2229
 1102loPI    C116609  14.941  15.843   5.830 -0.4314  0.0647  0.1191
 1102loPI    C216610  14.720  15.563   5.650 -0.1237  0.0246 -0.2056
 1102loPI    C316611  14.678  15.947   5.547 -0.0773  0.0223 -0.2340
 1102loPI   PO416612  14.947  15.662   6.138  0.0693 -0.0950  0.0178
 1102loPI   GL116613  14.718  15.481   6.574 -0.0065 -0.0650 -0.1861
 1102loPI   GL216614  14.377  15.558   6.614 -0.0181  0.1370  0.0165
 1102loPI   C1A16615  14.820  15.643   6.969  0.1881 -0.1666  0.1154
 1102loPI   C2A16616  14.927  15.567   7.428  0.1216 -0.2068 -0.0551
 1102loPI   C3A16617  15.007  15.632   7.792  0.0349 -0.1033  0.1586
 1102loPI   C4A16618  14.902  15.589   8.217  0.2642 -0.0340 -0.0532
 1102loPI   C5A16619  14.990  15.662   8.649 -0.0786 -0.0332 -0.1010
 1102loPI   C6A16620  15.049  15.972   8.997  0.1354  0.1126 -0.0820
 1102loPI   C1B16621  14.273  15.500   6.990 -0.1244 -0.0707  0.3558
 1102loPI   C2B16622  14.417  15.485   7.326 -0.0081 -0.0487 -0.1070
 1102loPI   C3B16623  14.494  15.500   7.754 -0.1293 -0.1577  0.2490
 1102loPI   C4B16624  14.426  15.377   8.186  0.3864 -0.1281  0.2703
 1103loPI    C116625   6.108   4.556   5.839  0.1844 -0.2536  0.0950
 1103loPI    C216626   6.214   4.707   5.485  0.1402  0.1370  0.2439
 1103loPI    C316627   6.240   4.314   5.550  0.2664  0.0761 -0.1493
 1103loPI   PO416628   6.156   4.694   6.017  0.0928 -0.0877  0.1538
 1103loPI   GL116629   6.211   4.629   6.473 -0.0962  0.0418 -0.0121
 1103loPI   GL216630   5.903   4.679   6.562  0.2135  0.0174 -0.0055
 1103loPI   C1A16631   6.333   4.825   6.923 -0.0050  0.1663 -0.0235
 1103loPI   C2A16632   6.368   4.909   7.341  0.0160 -0.1755  0.0073
 1103loPI   C3A16633   6.420   4.783   7.895 -0.1122  0.2990 -0.0576
 1103loPI   C4A16634   6.380   4.897   8.341  0.0644 -0.4381  0.2434
 1103loPI   C5A16635   6.240   4.957   8.728 -0.5234 -0.1539 -0.1601
 1103loPI   C6A16636   5.907   5.222   8.867 -0.3484 -0.1712 -0.1593
 1103loPI   C1B16637   5.822   4.698   7.007 -0.1683 -0.0342  0.0941
 1103loPI   C2B16638   5.933   4.691   7.479 -0.0310 -0.1718  0.1897
 1103loPI   C3B16639   5.828   4.699   7.879 -0.0474 -0.1275 -0.0766
 1103loPI   C4B16640   5.783   4.659   8.309 -0.0925  0.0945  0.1343
 1104loPI    C116641   4.452  11.739   5.941  0.0782  0.1474 -0.0742
 1104loPI    C216642   4.561  11.358   5.885  0.0238  0.0945  0.1678
 1104loPI    C316643   4.713  11.646   5.652 -0.1246 -0.1027 -0.1813
 1104loPI   PO416644   4.356  11.763   6.117 -0.1396  0.1044 -0.0856
 1104loPI   GL116645   4.182  11.504   6.350  0.3753  0.0444 -0.1830
 1104loPI   GL216646   3.882  11.663   6.531  0.0099  0.2295 -0.0393
 1104loPI   C1A16647   4.020  11.148   6.665  0.0076  0.0111 -0.1721
 1104loPI   C2A16648   4.049  11.190   7.116  0.1446 -0.1430  0.1454
 1104loPI   C3A16649   3.910  11.234   7.606 -0.0158 -0.1302 -0.0580
 1104loPI   C4A16650   3.929  11.283   8.094 -0.0241  0.0026  0.2848
 1104loPI   C5A16651   3.961  11.225   8.494  0.2627 -0.1652 -0.0888
 1104loPI   C6A16652   3.905  11.357   8.936 -0.0371  0.2153  0.2622
 1104loPI   C1B16653   4.058  11.704   6.833 -0.1575 -0.0299 -0.1367
 1104loPI   C2B16654   4.027  11.658   7.251 -0.0551  0.0057  0.2262
 1104loPI   C3B16655   4.010  11.739   7.806 -0.2736 -0.1759  0.3430
 1104loPI   C4B16656   4.160  11.726   8.217  0.0748  0.1812  0.0911
 1105loPI    C116657   1.670   0.890   6.024 -0.1938 -0.0456  0.0264
 1105loPI    C216658   1.814   0.794   5.663 -0.1799 -0.2483  0.0850
 1105loPI    C316659   1.760   1.178   5.761 -0.0686 -0.1875 -0.0879
 1105loPI   PO416660   1.731   0.588   6.103  0.1032 -0.1108  0.0244
 1105loPI   GL116661   1.555   0.480   6.456  0.1852 -0.1994  0.4051
 1105loPI   GL216662   1.529   0.834   6.583  0.0235  0.1575 -0.1141
 1105loPI   C1A16663   1.876   0.179   6.663  0.0913 -0.0124 -0.0954
 1105loPI   C2A16664   1.935   0.184   7.014  0.0917  0.1724 -0.0851
 1105loPI   C3A16665   1.954   0.246   7.467 -0.2098 -0.1922 -0.0090
 1105loPI   C4A16666   1.889   0.235   7.826 -0.1963 -0.0918  0.2217
 1105loPI   C5A16667   1.992   0.359   8.196  0.0697  0.1964 -0.1823
 1105loPI   C6A16668   2.136   0.712   8.437 -0.0188 -0.1709  0.1941
 1105loPI   C1B16669   1.429   0.736   7.065 -0.2125  0.2226  0.1268
 1105loPI   C2B16670   1.578   0.630   7.578 -0.1891 -0.1138 -0.2067
 1105loPI   C3B16671   1.627   0.600   8.029  0.1506  0.2179  0.0281
 1105loPI   C4B16672   1.639   0.585   8.501 -0.3726  0.0962  0.2073
 1106loPI    C116673   8.779   1.809   5.914  0.0790 -0.1728 -0.0702
 1106loPI    C216674   8.952   1.613   5.612 -0.0175 -0.1061 -0.1696
 1106loPI    C316675   8.789   1.973   5.550  0.1427 -0.0011  0.0076
 1106loPI   PO416676   8.520   1.670   5.984  0.0007  0.1167  0.1372
 1106loPI   GL116677   8.384   1.481   6.305 -0.3243 -0.1869 -0.1156
 1106loPI   GL216678   8.109   1.242   6.332 -0.0023 -0.0473  0.0292
 1106loPI   C1A16679   8.317   1.689   6.737 -0.1119  0.2546  0.2601
 1106loPI   C2A16680   8.228   1.633   7.221 -0.0065  0.0868  0.4317
 1106loPI   C3A16681   8.283   1.616   7.632 -0.0543  0.5732  0.1522
 1106loPI   C4A16682   8.355   1.629   8.055 -0.0334  0.1828 -0.4104
 1106loPI   C5A16683   8.325   1.511   8.470 -0.2051 -0.2870 -0.6869
 1106loPI   C6A16684   8.340   1.187   8.829 -0.0786  0.1572 -0.1242
 1106loPI   C1B16685   8.140   1.235   6.809 -0.0339  0.1227 -0.0875
 1106loPI   C2B16686   8.161   1.147   7.210  0.0008 -0.2932  0.0093
 1106loPI   C3B16687   8.157   1.160   7.689 -0.1695 -0.2220 -0.0508
 1106loPI   C4B16688   8.101   1.113   8.159  0.0492  0.0685  0.2226
 1107loPI    C116689   7.086   0.414   5.854 -0.1223 -0.2664  0.0346
 1107loPI    C216690   7.100   0.677   5.552 -0.0149  0.1903  0.4248
 1107loPI    C316691   6.784   0.434   5.592 -0.1337  0.2829  0.0788
 1107loPI   PO416692   7.214   0.479   6.070  0.1135 -0.1646  0.0683
 1107loPI   GL116693   6.961   0.563   6.479  0.3688  0.3899  0.0017
 1107loPI   GL216694   6.641   0.780   6.420 -0.2432  0.0646 -0.0223
 1107loPI   C1A16695   7.071   0.389   6.815 -0.0098 -0.0156  0.0152
 1107loPI   C2A16696   7.104   0.388   7.184 -0.3685 -0.0623 -0.1550
 1107loPI   C3A16697   7.015   0.371   7.615 -0.2024 -0.3823 -0.0973
 1107loPI   C4A16698   7.057   0.314   8.048 -0.0603  0.1612 -0.1134
 1107loPI   C5A16699   7.087   0.227   8.455  0.1140 -0.0207 -0.2440
 1107loPI   C6A16700   7.413   0.406   8.828  0.4074 -0.0219 -0.1059
 1107loPI   C1B16701   6.599   0.740   6.793 -0.0910  0.1755 -0.0019
 1107loPI   C2B16702   6.648   0.641   7.283  0.4087  0.0954 -0.1860
 1107loPI   C3B16703   6.614   0.693   7.748  0.0232  0.1246  0.0110
 1107loPI   C4B16704   6.689   0.691   8.189 -0.3494 -0.1055 -0.2980
 1108loPI    C116705   1.666  15.451   6.009 -0.2566 -0.0528  0.0781
 1108loPI    C216706   1.523  15.150   5.787  0.0953  0.0274 -0.2672
 1108loPI    C316707   1.848  15.352   5.667  0.1224  0.2633  0.1802
 1108loPI   PO416708   1.453  15.523   6.152 -0.2941 -0.2288 -0.0058
 1108loPI   GL116709   1.446  15.564   6.566 -0.0426  0.2348 -0.3090
 1108loPI   GL216710   1.147  15.425   6.642 -0.0292  0.0775  0.0950
 1108loPI   C1A16711   1.727  15.480   6.865 -0.4300 -0.0173 -0.1829
 1108loPI   C2A16712   1.821  15.697   7.219 -0.0957 -0.0832  0.0806
 1108loPI   C3A16713   1.911  15.823   7.655  0.1614 -0.0553  0.2773
 1108loPI   C4A16714   1.864  15.907   8.112 -0.2571  0.0396 -0.2377
 1108loPI   C5A16715   2.002  15.649   8.414  0.0237  0.1773 -0.0789
 1108loPI   C6A16716   2.119  15.613   8.846 -0.1156  0.0760 -0.1728
 1108loPI   C1B16717   1.297  15.625   7.108 -0.3023  0.1043  0.0394
 1108loPI   C2B16718   1.269  15.677   7.492  0.1273  0.1821  0.2593
 1108loPI   C3B16719   1.373  15.697   7.984 -0.3230 -0.1152  0.1059
 1108loPI   C4B16720   1.525  15.749   8.418  0.0114 -0.1363 -0.0028
 1109loPI    C116721  10.155   6.653   6.305  0.0724  0.1531 -0.1066
 1109loPI    C216722   9.912   6.727   5.995  0.0938 -0.0998 -0.1860
 1109loPI    C316723  10.282   6.587   5.931  0.2435  0.2279 -0.0628
 1109loPI   PO416724  10.101   6.908   6.442 -0.0494  0.0292 -0.0164
 1109loPI   GL116725   9.827   6.886   6.841 -0.0364  0.1097  0.0139
 1109loPI   GL216726   9.446   6.939   6.845 -0.1672  0.0851  0.1706
 1109loPI   C1A16727   9.896   6.684   7.234  0.2078 -0.0526 -0.1580
 1109loPI   C2A16728  10.183   6.493   7.357 -0.2628  0.3665 -0.1808
 1109loPI   C3A16729  10.374   6.577   7.721 -0.1427 -0.3178  0.1116
 1109loPI   C4A16730  10.497   6.469   8.185 -0.0549 -0.2444 -0.1139
 1109loPI   C5A16731  10.619   6.452   8.596 -0.0727  0.0054  0.1368
 1109loPI   C6A16732  10.837   6.540   9.028  0.2845 -0.0123  0.1284
 1109loPI   C1B16733   9.499   7.001   7.291 -0.2077 -0.3436  0.0827
 1109loPI   C2B16734   9.408   7.097   7.774 -0.4372  0.2397 -0.2696
 1109loPI   C3B16735   9.338   7.136   8.221  0.1465 -0.1475  0.1013
 1109loPI   C4B16736   9.181   7.115   8.598 -0.1848 -0.1780 -0.2407
 1110loPI    C116737  14.576  12.958   6.256  0.0274 -0.1499 -0.3111
 1110loPI    C216738  14.277  13.012   5.996 -0.1078  0.1058 -0.1076
 1110loPI    C316739  14.317  12.661   6.184 -0.3753  0.1204 -0.0196
 1110loPI   PO416740  14.655  13.238   6.525  0.2773 -0.1983  0.1159
 1110loPI   GL116741  14.591  13.632   6.782  0.3745  0.1213  0.0327
 1110loPI   GL216742  14.293  13.669   6.923  0.2688  0.1816 -0.1504
 1110loPI   C1A16743  14.836  13.722   7.208  0.0156 -0.0322  0.0004
 1110loPI   C2A16744  14.921  13.692   7.617  0.2971  0.2359 -0.1830
 1110loPI   C3A16745  14.884  13.769   8.006  0.0798 -0.0896  0.1780
 1110loPI   C4A16746  14.876  13.712   8.439  0.2975  0.1701  0.3260
 1110loPI   C5A16747  15.123  13.528   8.778 -0.1116  0.2446  0.0572
 1110loPI   C6A16748  15.563  13.484   8.919  0.2846 -0.1184 -0.0262
 1110loPI   C1B16749  14.293  13.622   7.363  0.1478  0.1812  0.0292
 1110loPI   C2B16750  14.394  13.591   7.694  0.0588  0.1964 -0.0480
 1110loPI   C3B16751  14.388  13.595   8.135 -0.0819 -0.0633 -0.0518
 1110loPI   C4B16752  14.341  13.705   8.521 -0.0864  0.3751  0.1184
 1111loPI    C116753   0.306  14.164   6.061 -0.1252  0.0821 -0.0745
 1111loPI    C216754   0.561  14.435   5.915 -0.1857  0.1538 -0.0474
 1111loPI    C316755   0.270  14.289   5.683  0.0639 -0.1538 -0.1731
 1111loPI   PO416756   0.210  14.245   6.290  0.0528  0.0581  0.0337
 1111loPI   GL116757   0.120  14.347   6.644  0.1920 -0.1321 -0.0807
 1111loPI   GL216758   0.267  14.189   6.802  0.0421 -0.3631  0.1529
 1111loPI   C1A16759  -0.018  14.479   7.012  0.0524 -0.1602 -0.2814
 1111loPI   C2A16760   0.070  14.402   7.451  0.3885 -0.1724  0.0562
 1111loPI   C3A16761   0.115  14.469   7.903  0.0916  0.1481  0.0253
 1111loPI   C4A16762   0.150  14.476   8.291  0.0632  0.0038  0.2780
 1111loPI   C5A16763   0.161  14.482   8.692  0.1760 -0.1158 -0.0751
 1111loPI   C6A16764  -0.240  14.587   8.896 -0.3885  0.0441 -0.0261
 1111loPI   C1B16765   0.448  14.189   7.217 -0.1236 -0.1275 -0.1151
 1111loPI   C2B16766   0.410  14.052   7.692  0.1055 -0.1604 -0.0057
 1111loPI   C3B16767   0.532  14.032   8.113  0.0949  0.1446  0.1187
 1111loPI   C4B16768   0.532  14.183   8.482  0.3621 -0.1733  0.1631
 1112loPI    C116769   2.237  11.846   6.047 -0.0070 -0.1300 -0.0227
 1112loPI    C216770   2.508  11.921   5.763  0.0192  0.2291  0.0914
 1112loPI    C316771   2.148  12.096   5.748  0.0245  0.2583  0.2838
 1112loPI   PO416772   2.333  11.929   6.334  0.2746 -0.2242  0.0664
 1112loPI   GL116773   2.274  11.548   6.623 -0.2172 -0.3433  0.1135
 1112loPI   GL216774   2.605  11.763   6.728 -0.2193  0.0489 -0.0855
 1112loPI   C1A16775   2.179  11.599   6.953  0.1264  0.1268 -0.1808
 1112loPI   C2A16776   2.182  11.680   7.453  0.2876  0.1753 -0.0757
 1112loPI   C3A16777   2.259  11.644   7.869 -0.1508 -0.1553  0.2032
 1112loPI   C4A16778   2.236  11.596   8.282 -0.0786  0.1322 -0.2846
 1112loPI   C5A16779   2.331  11.516   8.730  0.2538  0.4710 -0.0358
 1112loPI   C6A16780   2.331  11.201   8.978 -0.1677 -0.1631 -0.0519
 1112loPI   C1B16781   2.624  11.776   7.179 -0.0228  0.4271  0.1456
 1112loPI   C2B16782   2.669  11.832   7.659  0.0373  0.2387  0.1620
 1112loPI   C3B16783   2.713  11.766   8.093  0.2014  0.0644 -0.2021
 1112loPI   C4B16784   2.711  11.753   8.554  0.0381 -0.0481  0.0918
 1113loPI    C116785   5.943   8.558   5.972  0.0800 -0.2376 -0.0110
 1113loPI    C216786   5.618   8.411   5.790  0.0775 -0.1552 -0.0737
 1113loPI    C316787   5.980   8.353   5.631  0.0832 -0.1551 -0.0607
 1113loPI   PO416788   5.834   8.454   6.267 -0.0947  0.1337 -0.0525
 1113loPI   GL116789   5.815   8.589   6.648 -0.1559 -0.0024 -0.0184
 1113loPI   GL216790   6.039   8.415   6.803 -0.0642 -0.3253 -0.0791
 1113loPI   C1A16791   5.623   8.818   6.968 -0.1284  0.2118  0.2246
 1113loPI   C2A16792   5.614   8.790   7.353  0.0453 -0.2121 -0.1580
 1113loPI   C3A16793   5.696   8.761   7.802  0.0260 -0.2002 -0.1737
 1113loPI   C4A16794   5.684   8.727   8.224 -0.1513 -0.2888  0.4193
 1113loPI   C5A16795   5.831   8.882   8.619  0.1453  0.0127 -0.1916
 1113loPI   C6A16796   6.065   8.960   8.995 -0.0010 -0.1033 -0.0406
 1113loPI   C1B16797   5.973   8.525   7.268 -0.0492  0.2889  0.1689
 1113loPI   C2B16798   5.967   8.397   7.638  0.1660  0.0253  0.1743
 1113loPI   C3B16799   6.079   8.403   7.995  0.0181 -0.3295  0.2190
 1113loPI   C4B16800   5.983   8.434   8.488  0.0477  0.1089 -0.0485
 1114loPI    C116801   8.472   8.684   5.932  0.1349  0.0666  0.0216
 1114loPI    C216802   8.844   8.582   5.827  0.0899 -0.0739 -0.0024
 1114loPI    C316803   8.535   8.484   5.592  0.0437  0.1014 -0.0162
 1114loPI   PO416804   8.508   8.803   6.187 -0.2492 -0.1564  0.1400
 1114loPI   GL116805   8.401   9.074   6.436  0.2366 -0.1062  0.0217
 1114loPI   GL216806   8.714   9.263   6.378  0.0348 -0.1904 -0.0420
 1114loPI   C1A16807   8.562   9.122   6.852  0.2373 -0.0581  0.2192
 1114loPI   C2A16808   8.524   9.180   7.287 -0.3855 -0.2176  0.2919
 1114loPI   C3A16809   8.561   9.199   7.736 -0.0249  0.1041 -0.2726
 1114loPI   C4A16810   8.581   9.243   8.153 -0.2811 -0.0055 -0.0682
 1114loPI   C5A16811   8.535   9.292   8.610  0.0245  0.0386 -0.1986
 1114loPI   C6A16812   8.751   9.192   9.023 -0.2535 -0.0151  0.1800
 1114loPI   C1B16813   9.076   9.142   6.772 -0.2928 -0.0006  0.2747
 1114loPI   C2B16814   9.124   9.285   7.190  0.1781  0.3673  0.0958
 1114loPI   C3B16815   9.114   9.284   7.658  0.0015  0.2368  0.1534
 1114loPI   C4B16816   9.049   9.355   8.125 -0.0224 -0.1530  0.0883
 1115loPI    C116817   0.823  13.427   6.181 -0.0397  0.1074 -0.1289
 1115loPI    C216818   0.600  13.111   6.077  0.1691 -0.0164 -0.2073
 1115loPI    C316819   0.600  13.440   5.849  0.0298  0.0029 -0.1803
 1115loPI   PO416820   0.778  13.408   6.438  0.1632  0.1024  0.2299
 1115loPI   GL116821   1.039  13.190   6.776 -0.0091 -0.0302 -0.2526
 1115loPI   GL216822   1.223  13.498   6.887  0.1012 -0.0564 -0.0717
 1115loPI   C1A16823   1.000  12.916   7.181 -0.1057 -0.2454 -0.0400
 1115loPI   C2A16824   0.954  12.827   7.581  0.0067  0.0519  0.1731
 1115loPI   C3A16825   1.021  12.659   8.011  0.3732 -0.0122 -0.1345
 1115loPI   C4A16826   1.119  12.743   8.439 -0.2056  0.3226 -0.0508
 1115loPI   C5A16827   1.285  12.579   8.845  0.3440 -0.1600 -0.0055
 1115loPI   C6A16828   1.210  12.284   9.180  0.1432 -0.2475  0.0084
 1115loPI   C1B16829   1.174  13.401   7.287  0.1836  0.0354 -0.2037
 1115loPI   C2B16830   1.134  13.288   7.690  0.0192  0.1803 -0.1676
 1115loPI   C3B16831   1.177  13.136   8.149  0.1774 -0.1840 -0.1916
 1115loPI   C4B16832   1.244  13.311   8.523  0.1362  0.0603 -0.0336
 1116loPI    C116833  13.014   3.310   6.030 -0.2292 -0.0512  0.0172
 1116loPI    C216834  12.912   3.463   5.675 -0.0275  0.0872  0.0173
 1116loPI    C316835  13.246   3.245   5.711 -0.2496 -0.2564  0.0428
 1116loPI   PO416836  13.033   3.462   6.171  0.0095 -0.2194 -0.1675
 1116loPI   GL116837  13.188   3.571   6.516 -0.0695 -0.2020  0.2450
 1116loPI   GL216838  13.060   3.284   6.745  0.0136  0.1881 -0.1549
 1116loPI   C1A16839  13.485   3.753   6.948  0.2053  0.1529 -0.2276
 1116loPI   C2A16840  13.581   3.685   7.429 -0.0169 -0.1321  0.0024
 1116loPI   C3A16841  13.587   3.629   7.878  0.0763  0.3001 -0.1835
 1116loPI   C4A16842  13.766   3.738   8.266  0.2483  0.2873  0.0562
 1116loPI   C5A16843  13.672   3.781   8.752 -0.0987 -0.3061  0.1332
 1116loPI   C6A16844  13.423   3.782   9.083 -0.0824 -0.0486 -0.1028
 1116loPI   C1B16845  13.328   3.275   7.011  0.0812 -0.1024 -0.0905
 1116loPI   C2B16846  13.411   3.127   7.418 -0.1800 -0.1393  0.1013
 1116loPI   C3B16847  13.408   3.105   7.793  0.3200 -0.3801  0.4136
 1116loPI   C4B16848  13.523   3.011   8.217 -0.2790 -0.1633 -0.0456
 1117loPI    C116849  14.754  10.682   5.750  0.2316  0.1814 -0.4308
 1117loPI    C216850  14.538  10.356   5.665  0.0526  0.2027 -0.0753
 1117loPI    C316851  14.873  10.433   5.460  0.1777 -0.2831 -0.0659
 1117loPI   PO416852  14.757  10.674   6.050 -0.0651 -0.0010 -0.0033
 1117loPI   GL116853  15.002  10.927   6.442  0.2000  0.3490 -0.0946
 1117loPI   GL216854  14.852  11.134   6.387  0.0057 -0.4630  0.1351
 1117loPI   C1A16855  15.063  10.941   6.846  0.3680  0.1604  0.0167
 1117loPI   C2A16856  14.890  10.884   7.304 -0.1141  0.2274  0.0106
 1117loPI   C3A16857  14.887  10.964   7.775  0.0380 -0.0255  0.1948
 1117loPI   C4A16858  14.966  10.957   8.203 -0.2576  0.0087  0.0031
 1117loPI   C5A16859  14.942  11.104   8.628 -0.1743  0.0399  0.1709
 1117loPI   C6A16860  15.180  11.509   8.646 -0.0268  0.2442 -0.1888
 1117loPI   C1B16861  14.552  10.844   6.732 -0.1397  0.2869 -0.1836
 1117loPI   C2B16862  14.477  10.772   7.084  0.0760  0.1023 -0.0364
 1117loPI   C3B16863  14.445  10.750   7.551  0.0899 -0.0649  0.0563
 1117loPI   C4B16864  14.540  10.725   7.998 -0.0086 -0.3818  0.3034
 1118loPI    C116865  17.318  11.477   6.189  0.1826  0.0753 -0.0778
 1118loPI    C216866  17.124  11.771   6.001  0.1728  0.2581  0.2126
 1118loPI    C316867  17.243  11.449   5.797 -0.0791  0.3257 -0.0489
 1118loPI   PO416868  17.187  11.482   6.456  0.1033  0.0179  0.0858
 1118loPI   GL116869  17.131  11.309   6.896 -0.0173  0.2907 -0.2194
 1118loPI   GL216870  17.402  11.050   7.019  0.2419 -0.0388  0.0439
 1118loPI   C1A16871  16.929  11.033   7.241  0.0679  0.1227  0.2397
 1118loPI   C2A16872  16.975  10.878   7.589  0.1165 -0.1877 -0.1821
 1118loPI   C3A16873  16.966  10.999   8.049 -0.2132  0.0355  0.0406
 1118loPI   C4A16874  16.883  10.880   8.427  0.0853  0.0975 -0.3725
 1118loPI   C5A16875  16.870  10.884   8.819 -0.0557  0.0139  0.0229
 1118loPI   C6A16876  16.750  10.758   9.137 -0.2660  0.1608  0.0856
 1118loPI   C1B16877  17.390  11.107   7.399  0.4015  0.3113  0.2037
 1118loPI   C2B16878  17.478  11.167   7.894 -0.3368  0.1433 -0.0324
 1118loPI   C3B16879  17.447  11.049   8.332 -0.0532 -0.0766  0.0809
 1118loPI   C4B16880  17.454  10.873   8.799 -0.1382  0.4617 -0.1668
 1119loPI    C116881  14.080  16.773   6.175 -0.0301 -0.0557 -0.0420
 1119loPI    C216882  13.737  16.845   5.982 -0.0877 -0.0357  0.0673
 1119loPI    C316883  14.086  16.878   5.789 -0.1564 -0.2336 -0.0935
 1119loPI   PO416884  13.980  16.793   6.415 -0.0001  0.1229 -0.0871
 1119loPI   GL116885  14.072  16.848   6.694 -0.4007 -0.0590  0.0482
 1119loPI   GL216886  13.714  16.768   6.820 -0.0636 -0.0946  0.1955
 1119loPI   C1A16887  14.313  16.817   7.054 -0.0493  0.0133  0.3885
 1119loPI   C2A16888  14.330  16.752   7.513 -0.0534  0.2382 -0.0138
 1119loPI   C3A16889  14.266  16.845   7.927 -0.0558  0.0637  0.0335
 1119loPI   C4A16890  14.371  16.902   8.324 -0.0764 -0.2519 -0.1937
 1119loPI   C5A16891  14.297  16.826   8.730 -0.0532  0.1594 -0.3686
 1119loPI   C6A16892  14.064  16.663   9.015  0.1078  0.3702  0.2060
 1119loPI   C1B16893  13.817  16.763   7.301 -0.0459  0.1680 -0.0634
 1119loPI   C2B16894  13.833  16.708   7.668 -0.3311 -0.2930 -0.3237
 1119loPI   C3B16895  13.891  16.689   8.145  0.1698 -0.2051  0.0587
 1119loPI   C4B16896  13.835  16.652   8.531 -0.2014  0.1202  0.1410
 1120loPI    C116897   9.234   5.295   6.235  0.0657 -0.0465 -0.1085
 1120loPI    C216898   9.543   5.364   5.990 -0.1378  0.1329 -0.3193
 1120loPI    C316899   9.217   5.596   5.972 -0.1374  0.1816  0.1591
 1120loPI   PO416900   9.377   5.236   6.487  0.1015  0.1497 -0.2426
 1120loPI   GL116901   9.320   5.143   6.829 -0.0633  0.0781  0.2035
 1120loPI   GL216902   9.247   4.849   6.911 -0.2982 -0.0992 -0.3468
 1120loPI   C1A16903   9.299   5.359   7.272 -0.0555 -0.0835 -0.3861
 1120loPI   C2A16904   8.990   5.490   7.524  0.2753  0.1712  0.3047
 1120loPI   C3A16905   8.932   5.484   7.975 -0.0478  0.0028 -0.1275
 1120loPI   C4A16906   8.966   5.521   8.450  0.1018  0.1622 -0.0779
 1120loPI   C5A16907   8.981   5.840   8.722  0.2521 -0.0032 -0.0105
 1120loPI   C6A16908   9.099   6.236   8.672 -0.0798 -0.0273  0.3446
 1120loPI   C1B16909   9.163   4.795   7.360 -0.3225 -0.1359  0.2599
 1120loPI   C2B16910   9.042   4.670   7.657 -0.0226 -0.2215  0.1508
 1120loPI   C3B16911   9.129   4.622   8.093 -0.0218  0.1133  0.1942
 1120loPI   C4B16912   9.141   4.540   8.611  0.1215  0.0511  0.1525
 1121loPI    C116913   3.742   1.450   5.785 -0.0454  0.0479 -0.1782
 1121loPI    C216914   3.855   1.740   5.535 -0.0589  0.0988 -0.1256
 1121loPI    C316915   3.656   1.423   5.395  0.1149  0.0265 -0.2125
 1121loPI   PO416916   3.612   1.586   6.025  0.0851 -0.1779  0.1292
 1121loPI   GL116917   3.534   1.347   6.386  0.3280  0.2071  0.1859
 1121loPI   GL216918   3.451   1.020   6.437 -0.2040 -0.0029 -0.1695
 1121loPI   C1A16919   3.638   1.599   6.727  0.0503  0.0959 -0.2074
 1121loPI   C2A16920   3.657   1.671   7.159  0.0847  0.0238  0.1002
 1121loPI   C3A16921   3.778   1.822   7.578  0.1982  0.1903  0.2797
 1121loPI   C4A16922   3.867   1.682   8.071  0.0341 -0.0801  0.4126
 1121loPI   C5A16923   3.992   1.617   8.497 -0.1180 -0.2159 -0.0418
 1121loPI   C6A16924   4.298   1.473   8.842  0.2438 -0.0479  0.0055
 1121loPI   C1B16925   3.474   1.127   6.909  0.1340  0.0492 -0.2180
 1121loPI   C2B16926   3.468   1.265   7.336 -0.1121  0.0234 -0.0166
 1121loPI   C3B16927   3.661   1.254   7.740  0.0886  0.1106  0.0385
 1121loPI   C4B16928   3.592   1.207   8.088  0.0066  0.0724  0.0038
 1122loPI    C116929  12.789  11.884   6.173  0.1535  0.0182  0.0871
 1122loPI    C216930  12.401  11.917   6.085  0.1439  0.1306  0.1690
 1122loPI    C316931  12.676  11.980   5.802  0.0975 -0.2482  0.0329
 1122loPI   PO416932  12.808  11.700   6.282 -0.0508 -0.1479 -0.0770
 1122loPI   GL116933  12.586  11.716   6.653  0.1417  0.0313 -0.0109
 1122loPI   GL216934  12.355  11.936   6.564  0.1703  0.0073  0.2229
 1122loPI   C1A16935  12.381  11.674   6.994  0.2049  0.2255  0.0106
 1122loPI   C2A16936  12.407  11.646   7.448  0.1640  0.1050  0.4369
 1122loPI   C3A16937  12.501  11.573   7.818 -0.2207 -0.0230  0.1161
 1122loPI   C4A16938  12.548  11.653   8.307  0.0632 -0.2219 -0.0079
 1122loPI   C5A16939  12.808  11.623   8.649 -0.1486  0.2105  0.1106
 1122loPI   C6A16940  12.724  11.935   9.105  0.1662 -0.0586  0.2072
 1122loPI   C1B16941  12.016  12.059   6.919 -0.3218  0.2144 -0.3297
 1122loPI   C2B16942  12.120  12.027   7.280  0.1643 -0.1848  0.1001
 1122loPI   C3B16943  12.069  11.930   7.645  0.1470  0.2526 -0.1615
 1122loPI   C4B16944  12.183  11.879   8.066  0.3001 -0.0647 -0.0681
 1123loPI    C116945   2.241   0.057   5.658  0.2049 -0.2023  0.1883
 1123loPI    C216946   2.512   0.342   5.585  0.1672 -0.2814 -0.2910
 1123loPI    C316947   2.147   0.367   5.423 -0.0457 -0.2886  0.1714
 1123loPI   PO416948   2.189   0.015   5.933 -0.1434 -0.0654 -0.0789
 1123loPI   GL116949   2.197  -0.131   6.367  0.0812 -0.0499 -0.1212
 1123loPI   GL216950   2.285   0.217   6.386  0.4935 -0.3603 -0.0990
 1123loPI   C1A16951   2.221  -0.179   6.772  0.1085 -0.0622 -0.0235
 1123loPI   C2A16952   2.288  -0.162   7.132 -0.0404 -0.3616 -0.0850
 1123loPI   C3A16953   2.290  -0.054   7.589 -0.0584 -0.2968 -0.0160
 1123loPI   C4A16954   2.424   0.029   8.047 -0.5526 -0.2206 -0.4420
 1123loPI   C5A16955   2.476   0.211   8.552 -0.1005 -0.1408  0.1940
 1123loPI   C6A16956   2.500  -0.084   8.879  0.0701  0.4139  0.0133
 1123loPI   C1B16957   2.327   0.335   6.810  0.0786 -0.0209 -0.2589
 1123loPI   C2B16958   2.389   0.331   7.248 -0.1494 -0.1249  0.0736
 1123loPI   C3B16959   2.482   0.442   7.617  0.3537  0.0765  0.1213
 1123loPI   C4B16960   2.482   0.588   8.063 -0.1848 -0.1617  0.1473
 1124loPI    C116961   8.266   5.351   5.751 -0.1859  0.1309  0.0829
 1124loPI    C216962   7.918   5.170   5.674  0.0446 -0.2944  0.0108
 1124loPI    C316963   8.255   4.955   5.694  0.3157  0.1205  0.0119
 1124loPI   PO416964   8.237   5.521   5.975 -0.1228 -0.1631 -0.0887
 1124loPI   GL116965   8.122   5.573   6.431  0.1235  0.1232 -0.0493
 1124loPI   GL216966   8.433   5.470   6.640  0.3627  0.1746  0.0005
 1124loPI   C1A16967   7.983   5.393   6.772  0.3668  0.2591 -0.0840
 1124loPI   C2A16968   7.937   5.332   7.179  0.0813 -0.2621  0.2235
 1124loPI   C3A16969   7.834   5.285   7.588  0.2112  0.2106  0.3411
 1124loPI   C4A16970   7.953   5.227   7.958  0.1266  0.2903 -0.0433
 1124loPI   C5A16971   8.015   5.224   8.382  0.5505  0.0745  0.2727
 1124loPI   C6A16972   7.756   5.093   8.611  0.2084  0.1953 -0.1584
 1124loPI   C1B16973   8.389   5.426   7.069 -0.1651  0.0405 -0.0113
 1124loPI   C2B16974   8.478   5.413   7.489  0.0343  0.0642 -0.1278
 1124loPI   C3B16975   8.443   5.337   7.928  0.2136 -0.3262  0.1602
 1124loPI   C4B16976   8.458   5.353   8.411 -0.1205  0.0371  0.4650
 1125loPI    C116977  14.543  14.757   5.790  0.0838  0.0159  0.1204
 1125loPI    C216978  14.319  15.086   5.746 -0.0411 -0.1097 -0.2155
 1125loPI    C316979  14.310  14.799   5.467  0.3072 -0.2566 -0.0811
 1125loPI   PO416980  14.556  14.720   5.977 -0.1091 -0.0631 -0.2792
 1125loPI   GL116981  14.623  14.725   6.473  0.3021  0.1371 -0.0121
 1125loPI   GL216982  14.541  15.054   6.405  0.0281 -0.1764 -0.1805
 1125loPI   C1A16983  14.635  14.618   6.864  0.3134  0.1788  0.2497
 1125loPI   C2A16984  14.610  14.632   7.327 -0.0582  0.1516  0.3366
 1125loPI   C3A16985  14.710  14.571   7.761 -0.0908  0.0685  0.0548
 1125loPI   C4A16986  14.668  14.563   8.239 -0.1396  0.1971  0.2466
 1125loPI   C5A16987  14.746  14.760   8.638  0.1162  0.1404 -0.0395
 1125loPI   C6A16988  14.773  14.463   8.965 -0.0503 -0.2008  0.4342
 1125loPI   C1B16989  14.693  15.139   6.905  0.1094 -0.0550 -0.0915
 1125loPI   C2B16990  14.830  15.086   7.415 -0.0766  0.0615 -0.0168
 1125loPI   C3B16991  14.836  15.081   7.798 -0.1292  0.0931 -0.1020
 1125loPI   C4B16992  14.788  15.046   8.175  0.1427 -0.0384  0.2116
 1126loPI    C116993  12.412   2.268   5.749 -0.0229  0.0939  0.0402
 1126loPI    C216994  12.500   2.527   5.457 -0.0001  0.1432  0.0907
 1126loPI    C316995  12.612   2.145   5.425 -0.3782  0.0484 -0.1678
 1126loPI   PO416996  12.395   2.451   5.959  0.0636 -0.0155 -0.2735
 1126loPI   GL116997  12.592   2.658   6.302  0.0533 -0.2074  0.0541
 1126loPI   GL216998  12.460   2.346   6.502 -0.0396 -0.1155  0.0092
 1126loPI   C1A16999  12.462   2.766   6.669  0.2034  0.1171  0.0363
 1126loPI   C2A17000  12.609   2.582   7.123 -0.1261  0.1230  0.0386
 1126loPI   C3A17001  12.646   2.492   7.507  0.3277 -0.1424  0.0945
 1126loPI   C4A17002  12.757   2.426   7.974  0.2061  0.0391 -0.0662
 1126loPI   C5A17003  12.700   2.330   8.343  0.0985  0.4887  0.1488
 1126loPI   C6A17004  12.875   2.223   8.707  0.2873 -0.1206  0.1221
 1126loPI   C1B17005  12.435   2.172   6.970  0.2369 -0.3433  0.4256
 1126loPI   C2B17006  12.511   2.029   7.334 -0.4863 -0.0231 -0.0728
 1126loPI   C3B17007  12.561   2.040   7.703 -0.1570 -0.1890 -0.0790
 1126loPI   C4B17008  12.680   1.848   8.052  0.2054 -0.1907  0.4432
 1127loPI    C117009   3.547   3.996   5.576  0.1461  0.0590 -0.1454
 1127loPI    C217010   3.207   3.947   5.372 -0.1152  0.1205  0.2626
 1127loPI    C317011   3.516   4.138   5.204 -0.2246 -0.0688 -0.1671
 1127loPI   PO417012   3.431   4.106   5.819 -0.2180 -0.1922  0.1297
 1127loPI   GL117013   3.232   4.041   6.266  0.4437 -0.1481 -0.0606
 1127loPI   GL217014   3.030   4.340   6.327  0.2559 -0.0589 -0.0089
 1127loPI   C1A17015   3.457   3.934   6.540 -0.2038 -0.0344 -0.0656
 1127loPI   C2A17016   3.473   3.999   6.953  0.3286 -0.1696 -0.0216
 1127loPI   C3A17017   3.472   4.051   7.358  0.1627  0.0037 -0.0270
 1127loPI   C4A17018   3.340   4.055   7.716 -0.2828  0.1568 -0.2008
 1127loPI   C5A17019   3.437   4.074   8.094  0.0297 -0.0333 -0.2192
 1127loPI   C6A17020   3.260   4.207   8.394 -0.1959 -0.1970 -0.0706
 1127loPI   C1B17021   3.195   4.353   6.759  0.2096  0.1365  0.1309
 1127loPI   C2B17022   3.121   4.357   7.148 -0.1900  0.0801  0.0221
 1127loPI   C3B17023   3.054   4.432   7.627 -0.1726 -0.1215 -0.2700
 1127loPI   C4B17024   2.976   4.266   7.976 -0.2032 -0.1270  0.0961
 1128loPI    C117025   7.275  14.581   5.814 -0.0277  0.0166  0.0160
 1128loPI    C217026   7.592  14.473   5.595 -0.0116 -0.1497  0.1202
 1128loPI    C317027   7.240  14.544   5.418  0.0898  0.0627  0.0010
 1128loPI   PO417028   7.328  14.391   6.082 -0.2519  0.0695  0.2821
 1128loPI   GL117029   7.456  14.481   6.558  0.1469 -0.2241  0.0168
 1128loPI   GL217030   7.226  14.352   6.571  0.1810  0.0060  0.1602
 1128loPI   C1A17031   7.715  14.569   6.875 -0.2762 -0.0420  0.0706
 1128loPI   C2A17032   7.761  14.506   7.373  0.3872 -0.2870  0.4453
 1128loPI   C3A17033   7.643  14.602   7.815  0.0182  0.1063  0.0031
 1128loPI   C4A17034   7.685  14.547   8.194 -0.1507 -0.0828 -0.0195
 1128loPI   C5A17035   7.674  14.668   8.551  0.0531  0.2457  0.1691
 1128loPI   C6A17036   7.773  14.932   8.846 -0.0541  0.1126 -0.0553
 1128loPI   C1B17037   7.158  14.331   6.922  0.1211  0.1138 -0.3295
 1128loPI   C2B17038   7.260  14.397   7.416 -0.1658  0.1993  0.0837
 1128loPI   C3B17039   7.109  14.376   7.776  0.1213  0.2661 -0.0781
 1128loPI   C4B17040   7.171  14.487   8.152  0.0179 -0.1423 -0.4533
 1129loPI    C117041   5.682  14.414   5.999 -0.0324 -0.0514  0.0852
 1129loPI    C217042   6.065  14.331   5.916  0.0169 -0.0731  0.3270
 1129loPI    C317043   5.821  14.461   5.626  0.1609 -0.2284  0.1332
 1129loPI   PO417044   5.731  14.295   6.272 -0.3445 -0.1314  0.2932
 1129loPI   GL117045   5.535  14.339   6.753 -0.3712  0.1304 -0.2555
 1129loPI   GL217046   5.755  14.541   6.769  0.0707 -0.1342  0.2786
 1129loPI   C1A17047   5.283  14.347   7.197  0.2727  0.0454  0.1542
 1129loPI   C2A17048   5.124  14.327   7.622  0.0395  0.1423 -0.0495
 1129loPI   C3A17049   5.276  14.335   8.030 -0.0837  0.1609  0.0645
 1129loPI   C4A17050   5.187  14.455   8.444 -0.2020 -0.0823 -0.2617
 1129loPI   C5A17051   5.228  14.573   8.804  0.4816  0.0208  0.1779
 1129loPI   C6A17052   4.917  14.594   9.124 -0.0078  0.0107 -0.2640
 1129loPI   C1B17053   5.791  14.475   7.173  0.0803 -0.1208 -0.0631
 1129loPI   C2B17054   5.904  14.572   7.552  0.0246  0.0880  0.0478
 1129loPI   C3B17055   5.927  14.504   7.967  0.3092 -0.1944  0.2142
 1129loPI   C4B17056   5.689  14.480   8.298 -0.0990  0.2967  0.1102
 1130loPI    C117057   6.316  10.717   5.813 -0.0588 -0.2087 -0.1601
 1130loPI    C217058   6.566  10.525   5.568 -0.0267 -0.0737 -0.2344
 1130loPI    C317059   6.339  10.822   5.427 -0.1595 -0.1326 -0.1459
 1130loPI   PO417060   6.296  10.596   6.044  0.2128 -0.3312 -0.2105
 1130loPI   GL117061   6.239  10.701   6.429 -0.0705  0.0327 -0.1002
 1130loPI   GL217062   6.506  10.511   6.527 -0.1550 -0.1430 -0.3746
 1130loPI   C1A17063   6.168  10.780   6.864 -0.3495  0.1576  0.1860
 1130loPI   C2A17064   6.213  10.840   7.284 -0.2240 -0.0703 -0.2406
 1130loPI   C3A17065   6.183  10.819   7.763 -0.0001 -0.2794  0.2807
 1130loPI   C4A17066   6.179  10.928   8.160  0.0496  0.1005  0.0646
 1130loPI   C5A17067   6.064  11.073   8.547 -0.0159  0.1658  0.2288
 1130loPI   C6A17068   6.077  11.082   9.075 -0.5080 -0.2349 -0.2141
 1130loPI   C1B17069   6.584  10.410   6.866  0.0352 -0.2503  0.1023
 1130loPI   C2B17070   6.529  10.372   7.270 -0.1914 -0.0879 -0.2966
 1130loPI   C3B17071   6.493  10.438   7.660  0.1213  0.0054  0.2293
 1130loPI   C4B17072   6.512  10.480   8.015  0.0132 -0.1180 -0.0256
 1131loPI    C117073   0.840  14.818   5.866 -0.0346 -0.1859 -0.0535
 1131loPI    C217074   1.233  14.742   5.857 -0.0124 -0.0501 -0.3714
 1131loPI    C317075   0.991  14.580   5.582 -0.1926 -0.1940 -0.1319
 1131loPI   PO417076   0.837  14.827   6.177  0.2456  0.1199 -0.0130
 1131loPI   GL117077   0.831  14.730   6.632  0.0245 -0.0426 -0.0774
 1131loPI   GL217078   0.991  14.984   6.772  0.0608 -0.1408  0.0721
 1131loPI   C1A17079   0.714  14.618   7.050  0.1285  0.1720 -0.1803
 1131loPI   C2A17080   0.627  14.617   7.439  0.0737  0.0781  0.2833
 1131loPI   C3A17081   0.631  14.547   7.910 -0.0313  0.0955 -0.1064
 1131loPI   C4A17082   0.670  14.618   8.286 -0.1175 -0.2432  0.2647
 1131loPI   C5A17083   0.645  14.727   8.776  0.3253 -0.0089 -0.1430
 1131loPI   C6A17084   0.687  15.009   9.069  0.2049 -0.0291  0.0498
 1131loPI   C1B17085   1.046  15.180   7.131  0.0230 -0.0134  0.1774
 1131loPI   C2B17086   1.152  15.172   7.506  0.0358 -0.2338  0.0221
 1131loPI   C3B17087   1.235  15.177   7.934 -0.0918  0.3051 -0.0932
 1131loPI   C4B17088   1.425  15.179   8.321  0.2398  0.0201 -0.1103
 1132loPI    C117089  15.519  14.907   5.834 -0.0801 -0.0494  0.0383
 1132loPI    C217090  15.818  14.729   5.637 -0.2940 -0.2001 -0.1559
 1132loPI    C317091  15.703  15.098   5.535 -0.1018 -0.0971 -0.0058
 1132loPI   PO417092  15.528  14.791   6.125  0.2508  0.1676  0.3787
 1132loPI   GL117093  15.487  14.908   6.511 -0.2535  0.0135 -0.1859
 1132loPI   GL217094  15.697  14.956   6.679 -0.2285 -0.0134 -0.0763
 1132loPI   C1A17095  15.166  15.157   6.684 -0.1000 -0.2455  0.1675
 1132loPI   C2A17096  15.211  15.247   7.131  0.1452 -0.2393  0.1176
 1132loPI   C3A17097  15.309  15.315   7.554 -0.3108  0.0898  0.2670
 1132loPI   C4A17098  15.323  15.276   7.887 -0.2907 -0.0036  0.0401
 1132loPI   C5A17099  15.298  15.243   8.265  0.0633 -0.3610 -0.0271
 1132loPI   C6A17100  15.002  15.171   8.592  0.0530 -0.3626 -0.0331
 1132loPI   C1B17101  15.552  14.933   7.028  0.2158  0.0218 -0.2134
 1132loPI   C2B17102  15.706  14.803   7.324  0.0572  0.0207  0.3236
 1132loPI   C3B17103  15.676  14.860   7.742  0.0242  0.1172  0.0023
 1132loPI   C4B17104  15.766  14.877   8.165  0.1926  0.1598  0.2225
 1133loPI    C117105   9.797  11.928   5.943  0.1478  0.1785 -0.0188
 1133loPI    C217106   9.897  11.993   5.562  0.3988  0.0127  0.0159
 1133loPI    C317107   9.684  11.670   5.660  0.0622  0.2180 -0.0210
 1133loPI   PO417108  10.012  11.887   6.022 -0.0021 -0.1430  0.3501
 1133loPI   GL117109  10.129  11.951   6.436 -0.3579 -0.0231 -0.2877
 1133loPI   GL217110  10.242  12.037   6.641  0.3225 -0.1780 -0.1034
 1133loPI   C1A17111   9.734  11.943   6.612  0.1212  0.0121  0.0484
 1133loPI   C2A17112   9.654  11.889   6.989 -0.3060 -0.0424  0.0955
 1133loPI   C3A17113   9.741  11.854   7.407 -0.2458 -0.0204 -0.3750
 1133loPI   C4A17114   9.700  11.767   7.824 -0.0503 -0.0790  0.1786
 1133loPI   C5A17115   9.664  11.672   8.292 -0.1114 -0.1881 -0.1231
 1133loPI   C6A17116   9.299  11.609   8.583 -0.2530 -0.1032 -0.1692
 1133loPI   C1B17117  10.212  12.031   7.091 -0.0616 -0.2742 -0.2798
 1133loPI   C2B17118  10.240  11.890   7.574  0.3214 -0.3479  0.0040
 1133loPI   C3B17119  10.230  11.921   7.953 -0.3907 -0.0592 -0.1440
 1133loPI   C4B17120  10.284  11.936   8.350 -0.2943 -0.0528 -0.1486
 1134loPI    C117121  10.476   8.173   5.914 -0.0413 -0.1608 -0.2783
 1134loPI    C217122  10.321   8.485   5.718  0.3217  0.1289 -0.1159
 1134loPI    C317123  10.682   8.346   5.618  0.3465  0.0371  0.0956
 1134loPI   PO417124  10.382   8.228   6.137  0.0442 -0.1129  0.2546
 1134loPI   GL117125  10.349   8.417   6.445 -0.0832 -0.0275 -0.4346
 1134loPI   GL217126  10.521   8.636   6.555 -0.4446  0.1158  0.2473
 1134loPI   C1A17127  10.279   8.191   6.735  0.0264  0.1962 -0.1371
 1134loPI   C2A17128  10.221   8.116   7.151 -0.1944 -0.0010 -0.2678
 1134loPI   C3A17129  10.277   8.177   7.601  0.0280 -0.0977  0.0347
 1134loPI   C4A17130  10.192   8.253   8.137 -0.2217  0.1055 -0.0571
 1134loPI   C5A17131  10.072   8.361   8.526 -0.2698 -0.0369 -0.3178
 1134loPI   C6A17132  10.006   8.332   8.966  0.2238  0.1323 -0.1380
 1134loPI   C1B17133  10.351   8.644   6.954  0.3080  0.1504  0.0797
 1134loPI   C2B17134  10.366   8.645   7.422 -0.1259  0.2676 -0.1775
 1134loPI   C3B17135  10.297   8.633   7.878  0.2320  0.0321 -0.1557
 1134loPI   C4B17136  10.280   8.813   8.246 -0.2423  0.0724  0.2175
 1135loPI    C117137   0.738   8.558   5.844  0.1355 -0.1450 -0.0639
 1135loPI    C217138   1.071   8.574   5.623  0.0880 -0.1597 -0.1365
 1135loPI    C317139   0.715   8.652   5.456  0.0805  0.1044 -0.0020
 1135loPI   PO417140   0.814   8.609   6.082  0.1450 -0.1883 -0.3196
 1135loPI   GL117141   0.918   8.631   6.432  0.2716  0.3098 -0.0431
 1135loPI   GL217142   1.184   8.505   6.573 -0.0813  0.2286  0.1582
 1135loPI   C1A17143   0.567   8.850   6.700  0.2064  0.3182 -0.0591
 1135loPI   C2A17144   0.549   8.913   7.117  0.0700  0.1445  0.1029
 1135loPI   C3A17145   0.482   8.884   7.586 -0.2949  0.0455  0.2807
 1135loPI   C4A17146   0.520   8.751   8.025 -0.0324 -0.0666 -0.0023
 1135loPI   C5A17147   0.498   8.804   8.324  0.2727 -0.0969 -0.0748
 1135loPI   C6A17148   0.892   8.924   8.626  0.1613 -0.1754 -0.0695
 1135loPI   C1B17149   0.866   8.491   6.946  0.1385  0.0563  0.1788
 1135loPI   C2B17150   0.725   8.449   7.345  0.1648  0.1242 -0.2310
 1135loPI   C3B17151   0.891   8.426   7.827 -0.0463 -0.0938 -0.0843
 1135loPI   C4B17152   0.979   8.301   8.305  0.1046 -0.1216  0.3948
 1136loPI    C117153  15.139  13.872   6.281 -0.0863  0.0136 -0.1558
 1136loPI    C217154  15.229  13.564   6.043  0.0239 -0.1437  0.0858
 1136loPI    C317155  15.201  13.933   5.890  0.0030 -0.2546 -0.1852
 1136loPI   PO417156  15.029  13.649   6.598  0.0924 -0.3103  0.1129
 1136loPI   GL117157  15.051  13.309   6.979  0.4230 -0.1171  0.1939
 1136loPI   GL217158  14.788  13.273   7.042  0.2464  0.1776  0.1088
 1136loPI   C1A17159  15.281  13.376   7.333  0.2416  0.0732 -0.0837
 1136loPI   C2A17160  15.220  13.334   7.718 -0.1239 -0.1466 -0.1875
 1136loPI   C3A17161  15.174  13.410   8.096 -0.0706  0.0430 -0.0695
 1136loPI   C4A17162  15.460  13.321   8.479 -0.0068 -0.3015  0.0809
 1136loPI   C5A17163  15.782  13.074   8.697 -0.2535 -0.1059 -0.3733
 1136loPI   C6A17164  15.901  13.036   9.033 -0.1661 -0.0662 -0.0065
 1136loPI   C1B17165  14.745  13.241   7.469 -0.1687 -0.0339 -0.0196
 1136loPI   C2B17166  14.681  13.222   7.860  0.0346 -0.0879  0.2087
 1136loPI   C3B17167  14.751  13.206   8.256 -0.1553 -0.0218  0.2524
 1136loPI   C4B17168  15.017  13.075   8.547  0.0368 -0.0340 -0.0885
 1137loPI    C117169   2.827  10.644   5.798 -0.0384 -0.0100 -0.1213
 1137loPI    C217170   3.066  10.424   5.563 -0.0892 -0.0946 -0.0940
 1137loPI    C317171   2.830  10.704   5.402  0.1234  0.0788 -0.1075
 1137loPI   PO417172   2.710  10.489   6.012  0.2392 -0.0860  0.0791
 1137loPI   GL117173   2.792  10.444   6.436 -0.0386  0.0582  0.1532
 1137loPI   GL217174   2.954  10.733   6.447  0.2297  0.3324  0.0986
 1137loPI   C1A17175   2.891  10.377   6.818  0.0462  0.0472 -0.2351
 1137loPI   C2A17176   2.815  10.438   7.299  0.1811  0.1270 -0.0570
 1137loPI   C3A17177   2.804  10.381   7.792 -0.0282 -0.0300  0.2157
 1137loPI   C4A17178   2.785  10.317   8.263  0.1785  0.0808 -0.1688
 1137loPI   C5A17179   2.621  10.467   8.717 -0.1303  0.3595  0.2985
 1137loPI   C6A17180   2.682  10.822   8.892 -0.1517  0.1765  0.0352
 1137loPI   C1B17181   2.934  10.884   6.839 -0.1091 -0.0580  0.0058
 1137loPI   C2B17182   2.921  10.932   7.328  0.0215  0.1198  0.2632
 1137loPI   C3B17183   2.898  10.904   7.824 -0.0866 -0.2740 -0.0248
 1137loPI   C4B17184   2.974  10.895   8.289 -0.2489  0.0958 -0.1640
 1138loPI    C117185   2.231  13.171   6.052  0.0565  0.1452 -0.0882
 1138loPI    C217186   2.401  13.146   5.691  0.3217  0.4246  0.0126
 1138loPI    C317187   2.007  13.210   5.723  0.1784 -0.2488 -0.2243
 1138loPI   PO417188   2.298  13.355   6.264  0.0005  0.1163 -0.0616
 1138loPI   GL117189   2.285  13.428   6.716  0.0564  0.0933  0.1154
 1138loPI   GL217190   2.572  13.089   6.725  0.1440  0.2120 -0.0003
 1138loPI   C1A17191   2.147  13.512   7.081  0.0123 -0.0762 -0.0933
 1138loPI   C2A17192   2.141  13.468   7.520 -0.2330 -0.3192 -0.1409
 1138loPI   C3A17193   2.274  13.484   7.866  0.2342  0.3210  0.0630
 1138loPI   C4A17194   2.137  13.559   8.251  0.0647  0.1416 -0.1003
 1138loPI   C5A17195   2.292  13.460   8.660  0.0823 -0.2083 -0.1206
 1138loPI   C6A17196   2.500  13.282   8.979  0.0907  0.0841 -0.1046
 1138loPI   C1B17197   2.498  13.148   7.148 -0.0713 -0.0965 -0.4147
 1138loPI   C2B17198   2.588  13.183   7.601 -0.2543 -0.0084 -0.3799
 1138loPI   C3B17199   2.637  13.159   8.018 -0.1986 -0.0496 -0.1487
 1138loPI   C4B17200   2.637  13.170   8.451  0.1397  0.0056 -0.4527
 1139loPI    C117201  17.248   4.351   5.558 -0.0143 -0.2293  0.0801
 1139loPI    C217202  17.011   4.126   5.328 -0.0330 -0.0617 -0.0671
 1139loPI    C317203  17.396   4.176   5.231 -0.0606  0.0752 -0.1083
 1139loPI   PO417204  17.092   4.308   5.792  0.0687 -0.3933 -0.0980
 1139loPI   GL117205  17.195   4.167   6.167  0.0277  0.0811 -0.1224
 1139loPI   GL217206  17.055   3.887   6.096  0.2328  0.1663  0.0019
 1139loPI   C1A17207  17.210   4.393   6.562  0.1161  0.0093  0.2245
 1139loPI   C2A17208  17.171   4.394   6.912  0.1288 -0.5697 -0.3966
 1139loPI   C3A17209  17.189   4.437   7.369 -0.2357 -0.0514 -0.2017
 1139loPI   C4A17210  17.097   4.544   7.756  0.0439  0.1715  0.2418
 1139loPI   C5A17211  17.143   4.460   8.248  0.3977 -0.0923 -0.1210
 1139loPI   C6A17212  17.235   4.561   8.788  0.1149 -0.1010 -0.2404
 1139loPI   C1B17213  17.006   3.912   6.569  0.3004  0.2137  0.4142
 1139loPI   C2B17214  16.974   3.945   6.987 -0.0004 -0.1478  0.0165
 1139loPI   C3B17215  16.849   3.950   7.438 -0.1126  0.0152 -0.0365
 1139loPI   C4B17216  17.045   4.061   7.818 -0.0578 -0.2223  0.3913
 1140loPI    C117217   2.171   2.058   5.898  0.0428 -0.0831 -0.1554
 1140loPI    C217218   1.985   2.401   5.809 -0.0818 -0.1189 -0.0347
 1140loPI    C317219   2.378   2.366   5.749 -0.0893  0.0047 -0.1595
 1140loPI   PO417220   2.117   1.958   6.065 -0.1690 -0.0510  0.0394
 1140loPI   GL117221   1.939   1.941   6.499 -0.1126  0.1187 -0.2185
 1140loPI   GL217222   1.862   2.220   6.599 -0.1082 -0.3196  0.0555
 1140loPI   C1A17223   1.637   1.725   6.792  0.0088  0.0824 -0.2337
 1140loPI   C2A17224   1.782   1.619   7.192 -0.0480 -0.2093 -0.1839
 1140loPI   C3A17225   1.789   1.599   7.627 -0.4304 -0.1766 -0.2304
 1140loPI   C4A17226   1.827   1.729   8.087  0.0857  0.1925 -0.0942
 1140loPI   C5A17227   1.798   1.686   8.487 -0.1430  0.0503 -0.2930
 1140loPI   C6A17228   1.652   1.812   8.876  0.2677  0.2297  0.2843
 1140loPI   C1B17229   1.839   2.175   7.020  0.2440 -0.4097  0.0113
 1140loPI   C2B17230   1.835   2.044   7.469 -0.1779 -0.0029 -0.1469
 1140loPI   C3B17231   2.055   2.192   7.933  0.1581 -0.2097 -0.0842
 1140loPI   C4B17232   2.000   2.117   8.317 -0.1602  0.0562  0.4243
 1141loPI    C117233   3.993  14.960   6.045  0.1036 -0.2149  0.2329
 1141loPI    C217234   3.816  14.676   5.826  0.2386 -0.1281  0.0084
 1141loPI    C317235   3.626  14.833   6.141 -0.0302 -0.1297 -0.1498
 1141loPI   PO417236   4.310  14.855   6.144  0.1606  0.1476  0.2906
 1141loPI   GL117237   4.521  14.900   6.607  0.1717  0.2325  0.0276
 1141loPI   GL217238   4.303  14.679   6.709 -0.1348  0.0638  0.1406
 1141loPI   C1A17239   4.498  15.047   6.984 -0.0484  0.0550  0.1493
 1141loPI   C2A17240   4.660  15.144   7.433  0.0716  0.2847 -0.0904
 1141loPI   C3A17241   4.544  15.168   7.837  0.1249 -0.3163 -0.2944
 1141loPI   C4A17242   4.572  15.205   8.310 -0.0846 -0.1812  0.2094
 1141loPI   C5A17243   4.564  15.451   8.699  0.1798 -0.0095 -0.0279
 1141loPI   C6A17244   4.233  15.702   8.999 -0.0549  0.2476 -0.1348
 1141loPI   C1B17245   4.363  14.571   7.099 -0.2630 -0.2878  0.3242
 1141loPI   C2B17246   4.451  14.564   7.465 -0.1929  0.0716  0.2977
 1141loPI   C3B17247   4.399  14.585   7.941 -0.1311  0.3493  0.2369
 1141loPI   C4B17248   4.302  14.713   8.250 -0.1973  0.3204 -0.0420
 1142loPI    C117249   3.425   6.611   5.794 -0.2180  0.0859  0.0078
 1142loPI    C217250   3.216   6.871   5.572 -0.2107  0.0761 -0.0105
 1142loPI    C317251   3.180   6.478   5.507 -0.0066  0.0824 -0.1739
 1142loPI   PO417252   3.640   6.823   5.890  0.2040  0.4079  0.0750
 1142loPI   GL117253   3.712   6.988   6.335  0.0937  0.1623  0.0685
 1142loPI   GL217254   3.428   6.769   6.339  0.1452  0.0269  0.1240
 1142loPI   C1A17255   3.672   6.903   6.834  0.0484  0.1536  0.0852
 1142loPI   C2A17256   3.755   6.906   7.258 -0.0926 -0.0284 -0.2231
 1142loPI   C3A17257   3.766   6.946   7.669  0.1635 -0.1725  0.1803
 1142loPI   C4A17258   3.631   6.953   8.207  0.0971  0.1480 -0.0550
 1142loPI   C5A17259   3.774   6.743   8.562 -0.2223  0.0133  0.0686
 1142loPI   C6A17260   4.062   6.687   8.805 -0.0816 -0.0988 -0.0942
 1142loPI   C1B17261   3.214   6.745   6.754 -0.2122 -0.0607  0.0963
 1142loPI   C2B17262   3.237   6.779   7.175  0.0831  0.0984 -0.2416
 1142loPI   C3B17263   3.288   6.782   7.562 -0.1660 -0.1378  0.0529
 1142loPI   C4B17264   3.239   6.704   7.990 -0.2512 -0.0335  0.0251
 1143loPI    C117265  15.851   5.670   5.879  0.2664  0.0396 -0.0959
 1143loPI    C217266  15.508   5.840   5.764  0.0264 -0.2853  0.1215
 1143loPI    C317267  15.712   5.991   6.073  0.1214 -0.0474 -0.0543
 1143loPI   PO417268  15.889   5.344   5.946  0.0633 -0.1901 -0.0176
 1143loPI   GL117269  15.914   5.292   6.384 -0.0433  0.0775 -0.0086
 1143loPI   GL217270  15.833   5.583   6.406 -0.0921 -0.0182  0.2105
 1143loPI   C1A17271  15.831   5.085   6.819 -0.0299  0.2130 -0.4603
 1143loPI   C2A17272  15.870   5.103   7.276 -0.1804  0.0957  0.1315
 1143loPI   C3A17273  15.833   5.083   7.667  0.1037 -0.0766  0.4398
 1143loPI   C4A17274  15.941   5.158   8.034 -0.0144  0.2574 -0.0578
 1143loPI   C5A17275  15.709   5.157   8.445 -0.2089  0.0692  0.1316
 1143loPI   C6A17276  15.789   5.088   8.882 -0.3432  0.2473  0.1293
 1143loPI   C1B17277  15.962   5.638   6.743 -0.1660  0.0304 -0.1862
 1143loPI   C2B17278  16.079   5.565   7.240 -0.0371 -0.2499 -0.0695
 1143loPI   C3B17279  16.007   5.586   7.677 -0.1512  0.2348 -0.1702
 1143loPI   C4B17280  16.094   5.666   8.043  0.0359  0.0669 -0.1177
 1144loPI    C117281   8.058  13.239   6.005  0.3502  0.0155  0.1248
 1144loPI    C217282   8.250  13.445   5.721  0.0454  0.0462 -0.0632
 1144loPI    C317283   8.165  13.619   6.071  0.3419  0.0371  0.0152
 1144loPI   PO417284   8.104  13.028   6.089 -0.1356 -0.0014  0.2071
 1144loPI   GL117285   8.361  12.952   6.465  0.0210 -0.1627 -0.0430
 1144loPI   GL217286   8.627  12.985   6.535 -0.1939 -0.1176 -0.2265
 1144loPI   C1A17287   8.280  12.834   6.879 -0.0254  0.1969  0.0242
 1144loPI   C2A17288   8.056  12.811   7.256  0.0485 -0.0847  0.0282
 1144loPI   C3A17289   8.026  12.799   7.723 -0.2263 -0.0258  0.1590
 1144loPI   C4A17290   8.113  12.873   8.150 -0.1163 -0.1768  0.0406
 1144loPI   C5A17291   7.965  12.830   8.530 -0.0785  0.0310 -0.0631
 1144loPI   C6A17292   7.714  12.625   8.812  0.1614 -0.0075 -0.0214
 1144loPI   C1B17293   8.752  12.873   6.998  0.1651 -0.3576 -0.1133
 1144loPI   C2B17294   8.600  12.892   7.399 -0.0974 -0.2666  0.2348
 1144loPI   C3B17295   8.602  12.909   7.852  0.0772  0.0417 -0.1110
 1144loPI   C4B17296   8.580  12.948   8.296  0.0464 -0.3335 -0.0393
 1145loPI    C117297  15.101   8.962   5.755  0.0431  0.1706  0.0933
 1145loPI    C217298  14.741   8.857   5.615  0.0886  0.0068  0.0981
 1145loPI    C317299  14.925   9.180   5.469  0.0010  0.0110 -0.0041
 1145loPI   PO417300  15.074   8.922   6.010 -0.0890  0.2100 -0.1349
 1145loPI   GL117301  14.949   9.016   6.413 -0.1432 -0.0955 -0.0709
 1145loPI   GL217302  14.742   9.217   6.480  0.1701  0.1996  0.1866
 1145loPI   C1A17303  15.067   9.049   6.854  0.3792 -0.0121 -0.0329
 1145loPI   C2A17304  15.057   9.073   7.256 -0.0583  0.1600 -0.0834
 1145loPI   C3A17305  15.071   9.120   7.672  0.3467  0.0245  0.0904
 1145loPI   C4A17306  15.042   9.124   8.108  0.0979 -0.1523  0.2333
 1145loPI   C5A17307  14.797   9.060   8.533 -0.2959  0.0632  0.3394
 1145loPI   C6A17308  14.601   8.972   8.871  0.1171 -0.0692 -0.1253
 1145loPI   C1B17309  14.762   9.431   6.920 -0.0564  0.0042  0.1321
 1145loPI   C2B17310  14.701   9.424   7.331  0.0179  0.0502 -0.0213
 1145loPI   C3B17311  14.609   9.404   7.761 -0.0119 -0.1192 -0.2028
 1145loPI   C4B17312  14.658   9.403   8.207 -0.2432  0.0897 -0.4260
 1146loPI    C117313  10.916   3.624   6.186 -0.0959 -0.1967  0.2480
 1146loPI    C217314  11.044   3.283   6.023 -0.1954 -0.0469 -0.1548
 1146loPI    C317315  10.992   3.607   5.794  0.2670  0.3537  0.2826
 1146loPI   PO417316  10.989   3.621   6.414  0.0505  0.1284  0.0871
 1146loPI   GL117317  10.990   3.624   6.760  0.2400  0.3198 -0.2295
 1146loPI   GL217318  10.760   3.672   6.894 -0.1319  0.0572 -0.2324
 1146loPI   C1A17319  11.120   3.518   7.232 -0.0745  0.0481  0.0944
 1146loPI   C2A17320  11.453   3.535   7.632 -0.1037 -0.0780  0.0290
 1146loPI   C3A17321  11.590   3.413   8.085  0.2369 -0.0292  0.0322
 1146loPI   C4A17322  11.657   3.040   8.234  0.2335 -0.2333  0.1581
 1146loPI   C5A17323  11.314   2.870   8.321 -0.2434 -0.4895  0.1639
 1146loPI   C6A17324  11.055   2.785   8.592  0.1495  0.0124 -0.1456
 1146loPI   C1B17325  10.765   3.791   7.317 -0.0967  0.0523  0.0806
 1146loPI   C2B17326  10.797   3.492   7.589  0.1282 -0.0523 -0.1508
 1146loPI   C3B17327  10.610   3.287   7.948  0.2293  0.1498 -0.0546
 1146loPI   C4B17328  10.673   3.011   8.296 -0.1443  0.0821 -0.2483
 1147loPI    C117329   0.917  15.567   6.191 -0.2757  0.1039 -0.0026
 1147loPI    C217330   1.068  15.791   5.895 -0.2037  0.1003  0.0311
 1147loPI    C317331   1.056  15.393   5.859 -0.4061  0.1137 -0.0630
 1147loPI   PO417332   0.712  15.656   6.381 -0.0063 -0.0915 -0.1234
 1147loPI   GL117333   0.676  15.633   6.735  0.1367  0.0636  0.3083
 1147loPI   GL217334   0.301  15.634   6.642 -0.1501  0.1171  0.0640
 1147loPI   C1A17335   0.790  15.629   7.195  0.0436  0.1828  0.3228
 1147loPI   C2A17336   0.761  15.535   7.531 -0.2246 -0.1961  0.0087
 1147loPI   C3A17337   0.906  15.554   7.915  0.0752 -0.1920 -0.0569
 1147loPI   C4A17338   0.996  15.599   8.308  0.1604 -0.2968 -0.0619
 1147loPI   C5A17339   1.218  15.426   8.737 -0.0090  0.0331  0.4100
 1147loPI   C6A17340   1.280  15.035   8.903 -0.0627 -0.1414 -0.0140
 1147loPI   C1B17341   0.304  15.547   7.069 -0.0831  0.1328  0.1527
 1147loPI   C2B17342   0.255  15.466   7.480  0.2773 -0.2588  0.2985
 1147loPI   C3B17343   0.382  15.445   7.956 -0.1919  0.0013 -0.0672
 1147loPI   C4B17344   0.535  15.528   8.410 -0.0028  0.1004  0.2305
 1148POPI    C117345   8.745   9.065   5.795  0.0320 -0.1427 -0.1802
 1148POPI    C217346   8.351   9.135   5.808  0.0809  0.0921  0.1885
 1148POPI    C317347   8.528   9.054   5.459 -0.2668  0.1388 -0.0032
 1148POPI   PO417348   8.850   9.346   5.918  0.0075  0.2532 -0.1020
 1148POPI   GL117349   9.157   9.456   6.273 -0.1079 -0.1679  0.1744
 1148POPI   GL217350   8.934   9.734   6.186  0.1716  0.0252 -0.1992
 1148POPI   C1A17351   9.522   9.338   6.529 -0.0694 -0.1485 -0.0262
 1148POPI   D2A17352   9.527   9.164   6.985 -0.1226 -0.1874 -0.1835
 1148POPI   C3A17353   9.590   9.278   7.441  0.0639  0.0041  0.1721
 1148POPI   C4A17354   9.558   9.376   7.891 -0.3455 -0.0301 -0.0059
 1148POPI   C1B17355   8.826   9.683   6.625  0.2114 -0.1977  0.0341
 1148POPI   C2B17356   8.668   9.587   7.033 -0.0192 -0.1102 -0.0786
 1148POPI   C3B17357   8.748   9.614   7.434 -0.1758 -0.4630 -0.1473
 1148POPI   C4B17358   8.721   9.650   7.830  0.2189  0.0392  0.0933
 1149POPI    C117359  10.895   7.565   5.958 -0.2362  0.0052 -0.0920
 1149POPI    C217360  10.560   7.346   5.958 -0.2246 -0.0138  0.0775
 1149POPI    C317361  10.787   7.364   5.629 -0.1635 -0.3526  0.0968
 1149POPI   PO417362  10.784   7.836   6.115 -0.0407  0.0777 -0.0995
 1149POPI   GL117363  10.595   7.900   6.511  0.0883  0.2111  0.3940
 1149POPI   GL217364  10.854   8.001   6.608  0.2366 -0.0261  0.0701
 1149POPI   C1A17365  10.467   7.756   6.930  0.0338  0.0606 -0.0083
 1149POPI   D2A17366  10.392   7.448   7.193 -0.1692 -0.1622  0.0180
 1149POPI   C3A17367  10.421   7.649   7.539 -0.0072 -0.1880  0.1961
 1149POPI   C4A17368  10.535   7.851   7.856  0.1181  0.0631  0.1291
 1149POPI   C1B17369  10.721   8.283   6.923  0.0959  0.3419 -0.0300
 1149POPI   C2B17370  10.733   8.318   7.363 -0.1275  0.2684  0.0086
 1149POPI   C3B17371  10.708   8.299   7.801  0.0647 -0.0390 -0.0477
 1149POPI   C4B17372  10.677   8.361   8.313  0.1407  0.0804  0.1120
 1150POPI    C117373   5.783  12.481   5.828  0.0092 -0.1344 -0.0125
 1150POPI    C217374   5.597  12.305   5.521 -0.1093  0.0214 -0.0313
 1150POPI    C317375   5.952  12.483   5.465 -0.0224 -0.1485 -0.0273
 1150POPI   PO417376   5.773  12.341   6.063  0.1789 -0.0963  0.1525
 1150POPI   GL117377   5.621  12.195   6.517 -0.2255 -0.1132 -0.1666
 1150POPI   GL217378   5.646  11.911   6.613  0.2003  0.0262 -0.1073
 1150POPI   C1A17379   5.298  12.370   6.853 -0.2372  0.0791  0.1150
 1150POPI   D2A17380   5.281  12.376   7.260  0.0276 -0.0006  0.2362
 1150POPI   C3A17381   5.314  12.452   7.646  0.1513 -0.2494 -0.0239
 1150POPI   C4A17382   5.201  12.524   8.091 -0.0243 -0.4464 -0.0672
 1150POPI   C1B17383   5.692  11.963   7.126  0.0900  0.0338  0.2444
 1150POPI   C2B17384   5.634  12.040   7.586 -0.0711  0.4251  0.2648
 1150POPI   C3B17385   5.617  12.175   8.008  0.2041  0.1067  0.1662
 1150POPI   C4B17386   5.471  12.160   8.369 -0.0037  0.1382  0.1075
 1151POPI    C117387   1.672   8.056   5.986  0.0725  0.0289  0.1524
 1151POPI    C217388   1.520   7.731   5.809  0.0362  0.0927  0.0662
 1151POPI    C317389   1.411   8.096   5.686  0.0167  0.1376  0.2149
 1151POPI   PO417390   1.646   7.969   6.216  0.0586  0.3979 -0.0800
 1151POPI   GL117391   1.711   8.168   6.661  0.1624  0.0994 -0.1990
 1151POPI   GL217392   2.013   8.064   6.787  0.2365 -0.0818 -0.0837
 1151POPI   C1A17393   1.676   8.231   7.163 -0.0891  0.0685  0.1892
 1151POPI   D2A17394   1.734   8.261   7.630  0.2198 -0.0734 -0.0926
 1151POPI   C3A17395   1.704   8.138   8.012  0.0150 -0.0580 -0.2983
 1151POPI   C4A17396   1.945   8.077   8.383  0.2586 -0.0380  0.0915
 1151POPI   C1B17397   2.112   7.882   7.255  0.0588  0.0474  0.0389
 1151POPI   C2B17398   2.178   7.740   7.630 -0.0692 -0.0317 -0.0808
 1151POPI   C3B17399   2.126   7.880   7.962  0.2151 -0.0378  0.0670
 1151POPI   C4B17400   2.288   7.754   8.245  0.0944  0.1291  0.0549
 1152POPI    C117401   7.921   7.930   5.920  0.0354  0.0406  0.0242
 1152POPI    C217402   7.970   8.080   6.288 -0.1891  0.1956 -0.0067
 1152POPI    C317403   8.034   8.311   5.967 -0.2702  0.1446 -0.0600
 1152POPI   PO417404   8.019   7.615   6.089  0.1042 -0.2422  0.0169
 1152POPI   GL117405   8.144   7.714   6.560  0.1734 -0.0198 -0.2584
 1152POPI   GL217406   8.242   7.436   6.735  0.1637 -0.2560 -0.0199
 1152POPI   C1A17407   8.230   7.957   6.872  0.2902 -0.0990 -0.1032
 1152POPI   D2A17408   8.447   8.148   7.142  0.2450  0.1873  0.1174
 1152POPI   C3A17409   8.367   8.062   7.598 -0.0029 -0.1068  0.1247
 1152POPI   C4A17410   8.183   7.922   7.952 -0.2775  0.3009 -0.1245
 1152POPI   C1B17411   8.178   7.603   7.230  0.0031  0.2035  0.0307
 1152POPI   C2B17412   8.298   7.558   7.578 -0.1672  0.2175 -0.0572
 1152POPI   C3B17413   8.631   7.680   7.729  0.0619 -0.0589 -0.1210
 1152POPI   C4B17414   8.901   7.879   7.934 -0.1655  0.1611 -0.0245
 1153POPI    C117415  15.394  14.305   6.187  0.0387  0.0730  0.1577
 1153POPI    C217416  15.334  14.361   5.795 -0.1905 -0.0040  0.1808
 1153POPI    C317417  15.706  14.339   5.939 -0.0996 -0.5024 -0.1103
 1153POPI   PO417418  15.283  14.389   6.342 -0.0422  0.0874  0.0026
 1153POPI   GL117419  15.224  14.605   6.818  0.0607 -0.1187 -0.1634
 1153POPI   GL217420  15.477  14.411   6.917 -0.0197  0.0425 -0.1743
 1153POPI   C1A17421  15.069  14.748   7.137  0.0489  0.2086 -0.1442
 1153POPI   D2A17422  15.210  14.766   7.560 -0.1390 -0.0749  0.0573
 1153POPI   C3A17423  15.193  14.764   8.074 -0.1184  0.0671  0.4560
 1153POPI   C4A17424  15.159  14.663   8.440 -0.0250  0.1570 -0.0987
 1153POPI   C1B17425  15.501  14.332   7.297  0.3555 -0.0271  0.0774
 1153POPI   C2B17426  15.533  14.347   7.731  0.2704 -0.1262 -0.1457
 1153POPI   C3B17427  15.455  14.382   8.164 -0.1824  0.0120 -0.0975
 1153POPI   C4B17428  15.543  14.434   8.619 -0.3482 -0.0365 -0.1158
 1154POPI    C117429  12.361  14.973   6.274 -0.1009  0.0736 -0.0811
 1154POPI    C217430  12.068  14.730   6.152 -0.1072  0.0098  0.0588
 1154POPI    C317431  12.420  14.730   5.962 -0.1419 -0.0331 -0.0060
 1154POPI   PO417432  12.450  14.956   6.462 -0.1378 -0.1660 -0.0743
 1154POPI   GL117433  12.290  15.301   6.746 -0.0684 -0.1648 -0.2523
 1154POPI   GL217434  12.335  15.119   6.919  0.0999  0.2144  0.0585
 1154POPI   C1A17435  12.444  15.582   7.199  0.0006  0.2383  0.1729
 1154POPI   D2A17436  12.436  15.462   7.673  0.1663  0.1574 -0.2119
 1154POPI   C3A17437  12.503  15.390   8.074  0.0520 -0.1072  0.1444
 1154POPI   C4A17438  12.554  15.370   8.489 -0.0141 -0.0725 -0.0419
 1154POPI   C1B17439  12.328  15.000   7.322  0.0475 -0.0544 -0.2306
 1154POPI   C2B17440  12.375  14.972   7.731 -0.0418 -0.2304  0.2581
 1154POPI   C3B17441  12.333  14.888   8.063  0.2056 -0.0205 -0.0488
 1154POPI   C4B17442  12.433  14.819   8.543 -0.0319 -0.1031  0.1839
 1155POPI    C117443  16.592   9.783   5.917 -0.2433  0.0154 -0.2582
 1155POPI    C217444  16.619   9.455   5.690 -0.0237 -0.0496 -0.1412
 1155POPI    C317445  16.263   9.573   5.828 -0.1141 -0.1954 -0.2461
 1155POPI   PO417446  16.804   9.728   6.167  0.0241 -0.2778 -0.0708
 1155POPI   GL117447  16.670   9.703   6.639 -0.3377 -0.1149 -0.1508
 1155POPI   GL217448  16.474   9.366   6.629 -0.3347 -0.0293  0.2016
 1155POPI   C1A17449  16.621   9.625   7.058  0.0208  0.1877  0.2439
 1155POPI   D2A17450  16.522   9.316   7.342 -0.2854 -0.0668 -0.2420
 1155POPI   C3A17451  16.510   9.433   7.684 -0.3063  0.2468  0.0355
 1155POPI   C4A17452  16.547   9.378   8.075  0.0878  0.1876 -0.0604
 1155POPI   C1B17453  16.162   9.333   6.927 -0.2239  0.2330 -0.1367
 1155POPI   C2B17454  16.010   9.213   7.274 -0.0194 -0.2081 -0.1459
 1155POPI   C3B17455  16.052   9.299   7.654 -0.0869 -0.1486  0.1082
 1155POPI   C4B17456  15.927   9.331   8.049  0.0903  0.0117  0.0384
 1156POPI    C117457   9.763   6.147   6.166 -0.3081  0.3821 -0.0856
 1156POPI    C217458  10.036   6.157   5.874 -0.2047  0.1292 -0.0003
 1156POPI    C317459   9.753   5.874   5.874 -0.0715 -0.0076  0.2592
 1156POPI   PO417460   9.860   6.193   6.376  0.2244  0.0303 -0.1111
 1156POPI   GL117461   9.831   5.921   6.777 -0.0941  0.1856 -0.0048
 1156POPI   GL217462   9.529   5.917   6.881  0.0472 -0.1194 -0.3083
 1156POPI   C1A17463   9.849   6.206   7.143  0.0647 -0.0309  0.1871
 1156POPI   D2A17464   9.888   6.159   7.571  0.0582  0.2850 -0.2757
 1156POPI   C3A17465   9.868   5.776   7.910  0.0576  0.2515 -0.1317
 1156POPI   C4A17466   9.885   5.684   8.382 -0.1056  0.0714  0.2530
 1156POPI   C1B17467   9.523   5.831   7.303 -0.0311  0.0062 -0.1892
 1156POPI   C2B17468   9.440   5.617   7.734 -0.2685  0.1703 -0.1305
 1156POPI   C3B17469   9.424   5.665   8.131  0.3179  0.0590  0.0372
 1156POPI   C4B17470   9.439   5.845   8.484  0.1080 -0.0440  0.0340
 1157POPI    C117471   6.677   6.746   5.646 -0.0198 -0.2788 -0.1041
 1157POPI    C217472   7.077   6.754   5.645 -0.0231  0.0104 -0.0585
 1157POPI    C317473   6.877   6.683   5.305  0.0641  0.0175 -0.1118
 1157POPI   PO417474   6.681   6.584   5.876  0.3330  0.2857  0.0427
 1157POPI   GL117475   6.571   6.661   6.204 -0.1864 -0.2911 -0.0167
 1157POPI   GL217476   6.795   6.354   6.390 -0.1214 -0.1937  0.1882
 1157POPI   C1A17477   6.387   6.636   6.572 -0.1258  0.2726 -0.2945
 1157POPI   D2A17478   6.119   6.589   6.983 -0.1499  0.0377 -0.0881
 1157POPI   C3A17479   5.927   6.595   7.276  0.2280 -0.0216 -0.1553
 1157POPI   C4A17480   5.903   6.567   7.827  0.3375 -0.0345  0.2530
 1157POPI   C1B17481   6.852   6.386   6.788  0.1100 -0.0613  0.1000
 1157POPI   C2B17482   6.845   6.391   7.168  0.0221  0.0808  0.0864
 1157POPI   C3B17483   6.833   6.317   7.604  0.0131 -0.2815  0.0762
 1157POPI   C4B17484   6.756   6.313   8.081 -0.1673  0.0168 -0.2971
 1158POPI    C117485   4.859   4.108   5.671 -0.0472  0.0392  0.1147
 1158POPI    C217486   4.850   3.727   5.550  0.2341  0.0622  0.0128
 1158POPI    C317487   4.887   4.021   5.282 -0.1206  0.1720  0.0791
 1158POPI   PO417488   4.806   4.089   5.877 -0.2277 -0.0537  0.1580
 1158POPI   GL117489   4.930   4.131   6.251  0.2684 -0.1487 -0.0671
 1158POPI   GL217490   4.606   4.024   6.355 -0.0124  0.2257  0.0020
 1158POPI   C1A17491   4.929   4.316   6.729  0.0304 -0.1052 -0.3133
 1158POPI   D2A17492   4.928   4.511   7.090 -0.0842 -0.0381 -0.4883
 1158POPI   C3A17493   4.835   4.426   7.595 -0.1615 -0.0464 -0.1513
 1158POPI   C4A17494   4.829   4.384   7.949 -0.0515  0.2873 -0.0630
 1158POPI   C1B17495   4.791   3.829   6.712 -0.1115 -0.1037  0.0238
 1158POPI   C2B17496   4.775   4.027   7.150  0.1189  0.1085  0.2450
 1158POPI   C3B17497   4.821   3.879   7.633 -0.0894  0.1683 -0.0311
 1158POPI   C4B17498   4.690   3.820   8.107  0.0342  0.0325  0.1302
 1159POPI    C117499   2.004   3.676   6.003  0.0626  0.1030  0.2397
 1159POPI    C217500   2.370   3.647   6.163  0.1297  0.0897  0.0851
 1159POPI    C317501   2.324   3.793   5.793 -0.0188  0.0657  0.0935
 1159POPI   PO417502   1.854   3.865   6.253 -0.1411 -0.2004 -0.1385
 1159POPI   GL117503   2.053   3.788   6.569 -0.0748 -0.2498 -0.0458
 1159POPI   GL217504   2.224   4.106   6.572 -0.0833 -0.0293  0.3166
 1159POPI   C1A17505   1.872   3.577   6.871 -0.0590  0.0815  0.0518
 1159POPI   D2A17506   1.778   3.567   7.298  0.0181  0.2472 -0.0588
 1159POPI   C3A17507   1.916   3.482   7.666 -0.0088 -0.0333 -0.0623
 1159POPI   C4A17508   1.883   3.560   8.079  0.0024  0.0877 -0.1041
 1159POPI   C1B17509   2.009   4.107   6.928 -0.0870  0.0308  0.2302
 1159POPI   C2B17510   1.982   4.107   7.306 -0.2871 -0.1382  0.0058
 1159POPI   C3B17511   1.977   3.968   7.750  0.1020  0.4461  0.0618
 1159POPI   C4B17512   2.098   4.022   8.143  0.0618 -0.0392  0.1028
 1160POPI    C117513  11.372   3.936   6.533 -0.0105  0.0946  0.0305
 1160POPI    C217514  11.538   4.186   6.269 -0.1122  0.0572 -0.0693
 1160POPI    C317515  11.165   4.053   6.212 -0.0091 -0.2285 -0.0914
 1160POPI   PO417516  11.349   4.040   6.700  0.0515  0.2847 -0.1919
 1160POPI   GL117517  11.188   3.977   7.034 -0.0296  0.2146  0.1467
 1160POPI   GL217518  11.395   4.266   7.127 -0.0545 -0.1275 -0.0937
 1160POPI   C1A17519  11.177   3.917   7.530  0.1090  0.2123 -0.4936
 1160POPI   D2A17520  11.184   3.779   7.975 -0.1579  0.1349  0.0307
 1160POPI   C3A17521  11.200   3.601   8.377 -0.0676 -0.1318  0.2058
 1160POPI   C4A17522  11.138   3.281   8.621 -0.3521  0.0404 -0.2888
 1160POPI   C1B17523  11.291   4.396   7.653 -0.0881  0.1656 -0.0754
 1160POPI   C2B17524  11.252   4.296   8.065 -0.0971  0.0797  0.2922
 1160POPI   C3B17525  11.045   4.187   8.328  0.1390 -0.3972 -0.2005
 1160POPI   C4B17526  10.856   3.940   8.646  0.0366 -0.1636 -0.1680
 1161POPI    C117527   8.779   2.386   5.903  0.0251 -0.1703 -0.1334
 1161POPI    C217528   9.171   2.466   5.898 -0.0590  0.2760 -0.0205
 1161POPI    C317529   8.946   2.548   5.577 -0.0661  0.0372 -0.0785
 1161POPI   PO417530   8.763   2.383   6.186 -0.0506  0.0147  0.1054
 1161POPI   GL117531   8.664   2.221   6.551 -0.1783  0.3604 -0.1603
 1161POPI   GL217532   8.673   1.949   6.461  0.0131  0.0799 -0.0375
 1161POPI   C1A17533   8.501   2.114   6.968  0.0698  0.0808 -0.3096
 1161POPI   D2A17534   8.374   2.163   7.452  0.0286  0.1199 -0.1224
 1161POPI   C3A17535   8.489   2.171   7.829 -0.2232  0.2152  0.0253
 1161POPI   C4A17536   8.589   2.006   8.336 -0.2315 -0.1663 -0.2655
 1161POPI   C1B17537   8.861   1.793   6.848 -0.2695  0.2511 -0.1281
 1161POPI   C2B17538   8.705   1.752   7.297  0.1008  0.0896 -0.0677
 1161POPI   C3B17539   8.733   1.778   7.778  0.1982  0.2894 -0.0314
 1161POPI   C4B17540   8.886   1.638   8.130 -0.0825  0.0894  0.0913
 1162POPI    C117541  13.903  10.048   5.637 -0.0646 -0.0120 -0.0156
 1162POPI    C217542  13.726  10.243   5.335  0.1155 -0.1970 -0.2445
 1162POPI    C317543  13.510  10.009   5.577 -0.1361  0.4103  0.1419
 1162POPI   PO417544  14.026  10.285   5.847  0.1494  0.0412 -0.0135
 1162POPI   GL117545  13.775  10.496   6.187  0.2369  0.0883  0.2173
 1162POPI   GL217546  13.901  10.806   6.174 -0.2301 -0.4407  0.1910
 1162POPI   C1A17547  13.707  10.315   6.511 -0.0780  0.2508  0.1788
 1162POPI   D2A17548  13.478  10.424   6.807 -0.0166 -0.2074  0.2764
 1162POPI   C3A17549  13.552  10.559   7.163  0.0208  0.1994 -0.0556
 1162POPI   C4A17550  13.525  10.530   7.621 -0.0767 -0.0912  0.1563
 1162POPI   C1B17551  14.134  10.584   6.521 -0.0345 -0.0668 -0.0026
 1162POPI   C2B17552  14.005  10.690   6.963  0.0307  0.0028  0.1006
 1162POPI   C3B17553  14.015  10.735   7.344 -0.2218  0.0409 -0.0588
 1162POPI   C4B17554  14.017  10.631   7.811  0.0260  0.1717  0.1123
 1163POPI    C117555   5.218   4.690   5.638  0.1763 -0.0514 -0.0184
 1163POPI    C217556   5.211   4.944   5.329  0.0484  0.0048  0.0298
 1163POPI    C317557   5.257   4.552   5.264 -0.4358 -0.0373 -0.0985
 1163POPI   PO417558   5.360   4.832   5.874  0.0301  0.0425  0.0532
 1163POPI   GL117559   5.294   4.790   6.270  0.3055 -0.2392  0.0692
 1163POPI   GL217560   5.369   4.585   6.441 -0.1403  0.0878  0.2021
 1163POPI   C1A17561   5.003   4.793   6.670  0.0224  0.0433 -0.2212
 1163POPI   D2A17562   5.069   4.963   7.080 -0.2093  0.1284 -0.0710
 1163POPI   C3A17563   5.039   4.898   7.555 -0.2712  0.0053 -0.4763
 1163POPI   C4A17564   5.086   4.976   7.957 -0.1785 -0.2529  0.1300
 1163POPI   C1B17565   5.405   4.545   6.868 -0.0233 -0.1474 -0.0367
 1163POPI   C2B17566   5.401   4.610   7.352  0.1380  0.1954  0.0863
 1163POPI   C3B17567   5.338   4.597   7.837  0.0425  0.0179  0.1693
 1163POPI   C4B17568   5.264   4.483   8.261  0.2997 -0.1658 -0.1622
 1164POPI    C117569   4.895  12.785   5.952 -0.1484  0.1263  0.0993
 1164POPI    C217570   4.602  12.660   5.709 -0.0361 -0.0518  0.0529
 1164POPI    C317571   4.878  12.917   5.575 -0.1566  0.0992  0.0901
 1164POPI   PO417572   4.827  12.796   6.171 -0.0869  0.0993  0.0970
 1164POPI   GL117573   4.912  12.497   6.447  0.2038 -0.4455 -0.2018
 1164POPI   GL217574   5.086  12.716   6.603 -0.1715 -0.1094 -0.0582
 1164POPI   C1A17575   4.799  12.272   6.880 -0.0978  0.2259 -0.0301
 1164POPI   D2A17576   4.745  12.295   7.369 -0.0034  0.2047  0.0980
 1164POPI   C3A17577   4.754  12.416   7.854  0.1056  0.2152  0.3567
 1164POPI   C4A17578   4.639  12.477   8.287  0.0567  0.2473  0.0149
 1164POPI   C1B17579   4.881  12.793   6.966 -0.1522  0.1573  0.3030
 1164POPI   C2B17580   4.843  12.792   7.347  0.1452 -0.0157  0.1758
 1164POPI   C3B17581   4.838  12.856   7.728 -0.1272  0.1453  0.1437
 1164POPI   C4B17582   4.807  12.930   8.123  0.2336  0.3226  0.0817
 1165POPI    C117583  11.503   6.660   6.220  0.2730 -0.0337 -0.2025
 1165POPI    C217584  11.493   6.830   5.858 -0.1959  0.0747 -0.1449
 1165POPI    C317585  11.194   6.591   5.975  0.1507 -0.2895  0.0190
 1165POPI   PO417586  11.587   6.796   6.474 -0.1717 -0.1787  0.0475
 1165POPI   GL117587  11.476   6.780   6.897 -0.1009  0.4578 -0.4223
 1165POPI   GL217588  11.597   6.538   7.103 -0.4952  0.0492  0.2842
 1165POPI   C1A17589  11.284   6.853   7.280 -0.1340  0.0162  0.1849
 1165POPI   D2A17590  11.258   6.972   7.697 -0.2454  0.0313  0.2468
 1165POPI   C3A17591  11.247   7.032   8.047 -0.2336 -0.2599  0.0340
 1165POPI   C4A17592  11.374   7.185   8.496  0.0179 -0.2390 -0.1165
 1165POPI   C1B17593  11.675   6.680   7.520 -0.1032  0.0573 -0.0204
 1165POPI   C2B17594  11.676   6.722   7.913  0.1489 -0.1677  0.2017
 1165POPI   C3B17595  11.630   6.748   8.374 -0.0048 -0.1371 -0.0297
 1165POPI   C4B17596  11.561   6.833   8.850  0.0595 -0.2073  0.0831
 1166POPI    C117597   5.761  15.368   6.081  0.1197  0.1516 -0.0088
 1166POPI    C217598   5.781  15.000   5.926  0.1396  0.0787  0.1634
 1166POPI    C317599   5.490  15.251   5.811  0.1490  0.0238  0.0168
 1166POPI   PO417600   5.789  15.298   6.342  0.0074  0.1226  0.3962
 1166POPI   GL117601   5.712  15.337   6.693  0.0097 -0.0811 -0.2335
 1166POPI   GL217602   5.865  15.057   6.872 -0.2346  0.0049  0.0180
 1166POPI   C1A17603   5.483  15.416   7.039  0.0228  0.2736 -0.1575
 1166POPI   D2A17604   5.528  15.411   7.397 -0.2291  0.0452 -0.1087
 1166POPI   C3A17605   5.575  15.331   7.859 -0.0634  0.0843  0.1078
 1166POPI   C4A17606   5.550  15.384   8.174 -0.1760  0.0297  0.1076
 1166POPI   C1B17607   5.944  15.114   7.356 -0.0461 -0.0397  0.0141
 1166POPI   C2B17608   5.928  15.004   7.854 -0.2246  0.1890 -0.2720
 1166POPI   C3B17609   5.921  15.119   8.404  0.0084  0.0227  0.1478
 1166POPI   C4B17610   5.927  15.151   8.841 -0.1892 -0.3106 -0.2435
 1167POPI    C117611   1.758   1.586   6.044 -0.0039 -0.0307 -0.0579
 1167POPI    C217612   1.530   1.683   6.359  0.1600  0.1851 -0.0030
 1167POPI    C317613   1.373   1.682   5.991  0.0227  0.1450  0.0550
 1167POPI   PO417614   1.929   1.392   6.175  0.1208 -0.1410 -0.2605
 1167POPI   GL117615   1.895   1.225   6.446 -0.2361 -0.0868 -0.1277
 1167POPI   GL217616   2.103   1.438   6.656  0.3077 -0.0325  0.0599
 1167POPI   C1A17617   1.696   1.198   6.896 -0.1659  0.0289  0.2538
 1167POPI   D2A17618   1.617   1.125   7.298 -0.0273  0.0821 -0.1358
 1167POPI   C3A17619   1.699   1.116   7.696 -0.0266  0.3902 -0.0127
 1167POPI   C4A17620   1.740   1.140   8.151  0.1002  0.1111  0.3306
 1167POPI   C1B17621   2.260   1.249   6.997 -0.1393 -0.1407 -0.1605
 1167POPI   C2B17622   2.102   1.298   7.380  0.2280  0.0944 -0.0932
 1167POPI   C3B17623   2.188   1.304   7.860  0.0032 -0.1630  0.0012
 1167POPI   C4B17624   2.181   1.387   8.325 -0.1464  0.0721  0.0265
 1168POPI    C117625  14.442   5.998   6.235 -0.1691  0.0248  0.1195
 1168POPI    C217626  14.350   5.699   5.986 -0.1072 -0.0285  0.1604
 1168POPI    C317627  14.473   6.050   5.840  0.1280 -0.1260  0.1209
 1168POPI   PO417628  14.602   5.961   6.400 -0.0465  0.0357 -0.1404
 1168POPI   GL117629  14.593   5.683   6.803  0.0145  0.2548  0.1947
 1168POPI   GL217630  14.520   6.033   6.868  0.1699  0.1131 -0.1134
 1168POPI   C1A17631  14.563   5.713   7.174 -0.0750 -0.0693 -0.0560
 1168POPI   D2A17632  14.573   5.738   7.642 -0.1322  0.0932  0.1814
 1168POPI   C3A17633  14.710   5.800   8.035  0.0371  0.2461  0.2359
 1168POPI   C4A17634  14.706   5.599   8.321 -0.0314  0.0174 -0.0926
 1168POPI   C1B17635  14.529   6.168   7.336 -0.1565  0.1476  0.2530
 1168POPI   C2B17636  14.677   6.236   7.720 -0.0475 -0.2197  0.0885
 1168POPI   C3B17637  14.829   6.272   8.010 -0.3271 -0.3530  0.0662
 1168POPI   C4B17638  14.914   6.117   8.382 -0.0941 -0.0469 -0.1033
 1169POPI    C117639   7.008   1.809   5.990  0.0494  0.0590  0.0051
 1169POPI    C217640   6.938   2.134   5.767 -0.2617  0.0508  0.0861
 1169POPI    C317641   6.744   1.793   5.690  0.0789 -0.1254 -0.0118
 1169POPI   PO417642   6.906   1.844   6.231 -0.1938 -0.0871  0.0717
 1169POPI   GL117643   6.927   1.620   6.587  0.1167 -0.0944  0.0498
 1169POPI   GL217644   7.232   1.622   6.535  0.1597 -0.0498  0.4598
 1169POPI   C1A17645   6.927   1.710   7.029 -0.1006  0.2809 -0.1671
 1169POPI   D2A17646   6.963   1.704   7.460 -0.0372 -0.1558 -0.1666
 1169POPI   C3A17647   6.933   1.654   7.937  0.2077  0.1043 -0.0493
 1169POPI   C4A17648   7.077   1.502   8.335  0.0649  0.2668  0.0690
 1169POPI   C1B17649   7.263   1.339   6.852 -0.0756  0.0114  0.1683
 1169POPI   C2B17650   7.271   1.342   7.280 -0.0300  0.1290  0.1493
 1169POPI   C3B17651   7.291   1.305   7.711  0.2365 -0.3763 -0.1671
 1169POPI   C4B17652   7.403   1.247   8.150 -0.2957 -0.1305  0.1124
 1170POPI    C117653   2.352   4.701   5.625  0.0604  0.1707  0.1328
 1170POPI    C217654   2.707   4.741   5.445 -0.0806  0.3847 -0.1055
 1170POPI    C317655   2.377   4.689   5.226 -0.1502 -0.2424  0.1271
 1170POPI   PO417656   2.386   4.672   5.847 -0.0936  0.2793  0.0009
 1170POPI   GL117657   2.297   4.768   6.310  0.2955 -0.0003 -0.0728
 1170POPI   GL217658   2.543   4.493   6.282  0.0458  0.1093 -0.1353
 1170POPI   C1A17659   2.322   5.111   6.592 -0.0896  0.0885  0.0145
 1170POPI   D2A17660   2.360   5.279   6.929 -0.1036  0.2426 -0.3452
 1170POPI   C3A17661   2.399   5.212   7.441 -0.0080 -0.0957  0.1888
 1170POPI   C4A17662   2.273   5.040   7.915  0.2150  0.3040  0.2491
 1170POPI   C1B17663   2.617   4.335   6.737 -0.0542  0.0184  0.1196
 1170POPI   C2B17664   2.638   4.310   7.197  0.2150 -0.2695  0.3194
 1170POPI   C3B17665   2.489   4.126   7.617 -0.1575 -0.1763  0.1725
 1170POPI   C4B17666   2.531   4.187   8.005  0.0941  0.1317 -0.1296
 1171POPI    C117667   3.458   8.409   5.861  0.1752  0.0304  0.0346
 1171POPI    C217668   3.307   8.770   5.778  0.0325  0.0266  0.2705
 1171POPI    C317669   3.303   8.483   5.500  0.0223  0.1653  0.1265
 1171POPI   PO417670   3.625   8.429   5.949  0.0039 -0.3343 -0.0301
 1171POPI   GL117671   3.799   8.289   6.315 -0.2698 -0.1450  0.0965
 1171POPI   GL217672   3.774   7.974   6.354  0.3574  0.1260 -0.0535
 1171POPI   C1A17673   4.030   8.354   6.700  0.2239 -0.0999 -0.0029
 1171POPI   D2A17674   4.188   8.521   7.118 -0.3281  0.1946  0.2270
 1171POPI   C3A17675   4.077   8.469   7.579 -0.2648  0.0616  0.0582
 1171POPI   C4A17676   4.161   8.358   8.013 -0.0772  0.2201 -0.2045
 1171POPI   C1B17677   3.753   7.858   6.706 -0.3111 -0.1949 -0.1950
 1171POPI   C2B17678   3.907   7.899   7.035  0.1261  0.3211 -0.0542
 1171POPI   C3B17679   3.958   7.896   7.421 -0.0150 -0.0169 -0.2505
 1171POPI   C4B17680   3.936   7.810   7.848 -0.0733  0.1052 -0.0753
 1172POPI    C117681  10.342   4.869   6.257 -0.0596 -0.1293 -0.0820
 1172POPI    C217682  10.701   4.976   6.117 -0.0100 -0.2515 -0.0502
 1172POPI    C317683  10.377   5.011   5.884  0.0003 -0.0096 -0.0313
 1172POPI   PO417684  10.307   4.979   6.423 -0.1971 -0.0220  0.3014
 1172POPI   GL117685  10.220   5.359   6.714 -0.0903  0.2868  0.1926
 1172POPI   GL217686  10.464   5.136   6.957  0.0173  0.1612 -0.1085
 1172POPI   C1A17687  10.143   5.559   7.116  0.0185 -0.1937 -0.1323
 1172POPI   D2A17688   9.956   5.612   7.454 -0.1828  0.2972 -0.0329
 1172POPI   C3A17689  10.307   5.573   7.769 -0.0898  0.0475 -0.1253
 1172POPI   C4A17690  10.540   5.810   8.148  0.1211  0.1333  0.0743
 1172POPI   C1B17691  10.406   5.214   7.408  0.0487  0.2212 -0.0980
 1172POPI   C2B17692  10.042   5.089   7.692  0.3343  0.1355  0.0809
 1172POPI   C3B17693   9.798   5.308   8.045  0.0324  0.3202  0.2258
 1172POPI   C4B17694   9.956   5.162   8.499 -0.0522  0.0968 -0.3529
 1173POPI    C117695  12.951   3.973   6.243  0.0034  0.0383 -0.0776
 1173POPI    C217696  12.669   4.184   6.054 -0.0881 -0.0762 -0.0700
 1173POPI    C317697  12.689   3.787   6.005  0.0176 -0.0797 -0.0021
 1173POPI   PO417698  12.902   4.094   6.519 -0.1780 -0.0460 -0.3378
 1173POPI   GL117699  12.988   3.838   6.912  0.1769 -0.1840 -0.2229
 1173POPI   GL217700  12.747   3.690   7.017 -0.1534  0.0915  0.1526
 1173POPI   C1A17701  13.121   3.594   7.438 -0.1929  0.0443  0.0113
 1173POPI   D2A17702  13.073   3.585   7.876 -0.1213 -0.0511  0.2345
 1173POPI   C3A17703  13.226   3.427   8.158  0.1367 -0.1601  0.0696
 1173POPI   C4A17704  13.223   3.209   8.580  0.0673 -0.2720 -0.1866
 1173POPI   C1B17705  12.666   3.804   7.475 -0.1069 -0.0819 -0.3171
 1173POPI   C2B17706  12.547   3.916   7.822  0.0445 -0.0654 -0.0031
 1173POPI   C3B17707  12.770   3.858   8.138  0.2955  0.1111  0.3422
 1173POPI   C4B17708  12.899   3.584   8.508  0.1737  0.0528  0.2084
 1174POPI    C117709  15.604   7.916   5.885  0.0803 -0.3489  0.0616
 1174POPI    C217710  15.876   8.026   5.613 -0.0029 -0.0828  0.0833
 1174POPI    C317711  15.714   7.661   5.597  0.1280 -0.1335 -0.1135
 1174POPI   PO417712  15.825   7.823   6.147  0.1674  0.1664 -0.0484
 1174POPI   GL117713  15.818   7.595   6.512 -0.0768 -0.1352 -0.0058
 1174POPI   GL217714  15.796   7.875   6.674  0.0493  0.1104 -0.0589
 1174POPI   C1A17715  16.047   7.467   6.910  0.0091 -0.1843  0.2237
 1174POPI   D2A17716  16.121   7.336   7.375  0.1153 -0.1814  0.4022
 1174POPI   C3A17717  16.090   7.504   7.708 -0.2996 -0.1104  0.1547
 1174POPI   C4A17718  16.079   7.414   8.170  0.1770 -0.2960  0.2860
 1174POPI   C1B17719  15.755   7.780   7.161 -0.1499  0.0064  0.1021
 1174POPI   C2B17720  15.692   7.777   7.531 -0.3009 -0.0554 -0.0326
 1174POPI   C3B17721  15.766   7.775   7.945 -0.1953  0.4026 -0.0097
 1174POPI   C4B17722  15.737   7.996   8.347 -0.0989  0.1727  0.2451
 1175POPI    C117723  14.673   0.689   6.046 -0.0783  0.0429 -0.2489
 1175POPI    C217724  14.358   0.556   5.839 -0.0504 -0.0409 -0.2379
 1175POPI    C317725  14.710   0.368   5.809 -0.0597 -0.0859 -0.0733
 1175POPI   PO417726  14.665   0.664   6.317 -0.2337 -0.1405  0.1628
 1175POPI   GL117727  14.302   0.449   6.706  0.0728  0.0463 -0.0630
 1175POPI   GL217728  14.219   0.665   6.905  0.0313 -0.0701 -0.0904
 1175POPI   C1A17729  14.556   0.356   7.066  0.1162 -0.0763 -0.2386
 1175POPI   D2A17730  14.570   0.419   7.551 -0.1258 -0.3608  0.2830
 1175POPI   C3A17731  14.678   0.539   7.928 -0.0508 -0.1599 -0.0554
 1175POPI   C4A17732  14.645   0.485   8.365  0.0948 -0.1671 -0.0865
 1175POPI   C1B17733  14.067   0.524   7.256 -0.2967  0.0133 -0.0872
 1175POPI   C2B17734  14.030   0.443   7.660 -0.2325 -0.2180  0.1400
 1175POPI   C3B17735  14.124   0.380   8.041 -0.0684  0.0693  0.5063
 1175POPI   C4B17736  14.050   0.281   8.559 -0.0761 -0.3780 -0.0626
 1176POPI    C117737   7.112  12.961   5.882 -0.0126  0.3343 -0.0036
 1176POPI    C217738   6.879  12.783   5.610  0.0010  0.1846  0.0811
 1176POPI    C317739   7.069  13.123   5.519 -0.0290  0.1587 -0.0814
 1176POPI   PO417740   7.217  12.768   6.012  0.1126 -0.0275  0.1402
 1176POPI   GL117741   7.155  12.883   6.486  0.0431 -0.1333  0.2357
 1176POPI   GL217742   7.377  12.644   6.523  0.1061 -0.0859  0.1264
 1176POPI   C1A17743   7.402  13.041   6.794 -0.0973 -0.0154  0.3170
 1176POPI   D2A17744   7.409  13.057   7.281 -0.1281 -0.3506 -0.2445
 1176POPI   C3A17745   7.283  13.013   7.643 -0.3147 -0.1022 -0.1705
 1176POPI   C4A17746   7.226  13.009   8.078  0.2262  0.0756 -0.0489
 1176POPI   C1B17747   7.142  12.470   6.837  0.2154 -0.2595 -0.2584
 1176POPI   C2B17748   7.139  12.497   7.320  0.0035  0.1899  0.0304
 1176POPI   C3B17749   7.087  12.453   7.791  0.1206 -0.1692  0.0676
 1176POPI   C4B17750   7.057  12.501   8.181  0.1163  0.2606 -0.0198
 1177POPI    C117751  11.119   2.196   6.201 -0.0905 -0.3996  0.0396
 1177POPI    C217752  11.461   2.022   6.313  0.0638 -0.0458  0.1325
 1177POPI    C317753  11.424   2.170   5.944  0.0533  0.0177  0.1588
 1177POPI   PO417754  11.133   2.387   6.339 -0.2903 -0.0622 -0.0113
 1177POPI   GL117755  11.144   2.753   6.596  0.1408 -0.0661 -0.1256
 1177POPI   GL217756  10.865   2.696   6.666  0.0281 -0.2177 -0.3031
 1177POPI   C1A17757  11.290   2.855   7.041  0.0541  0.1381 -0.0364
 1177POPI   D2A17758  11.405   3.049   7.431  0.2893  0.1373  0.1596
 1177POPI   C3A17759  11.383   2.887   7.819  0.3469 -0.2094  0.1088
 1177POPI   C4A17760  11.366   2.420   8.056 -0.1536 -0.1101  0.1872
 1177POPI   C1B17761  10.817   2.516   6.972 -0.2485 -0.0104  0.4478
 1177POPI   C2B17762  10.948   2.589   7.295  0.0762  0.2399 -0.3909
 1177POPI   C3B17763  11.018   2.506   7.660 -0.0323  0.1578 -0.0639
 1177POPI   C4B17764  10.920   2.696   8.062  0.2899  0.1189 -0.0606
 1178POPI    C117765  10.734   6.599   6.168 -0.1091 -0.2526  0.1468
 1178POPI    C217766  10.601   6.700   6.531  0.2436 -0.0023  0.2111
 1178POPI    C317767  10.541   6.945   6.221 -0.1299 -0.2536  0.0787
 1178POPI   PO417768  10.819   6.301   6.213 -0.2348  0.0755  0.1707
 1178POPI   GL117769  10.759   6.269   6.689  0.1078 -0.0243  0.0034
 1178POPI   GL217770  10.827   6.049   6.990 -0.1021 -0.0181  0.0540
 1178POPI   C1A17771  10.516   6.559   6.947 -0.0537 -0.1376 -0.0789
 1178POPI   D2A17772  10.356   6.954   7.153 -0.0216  0.1445  0.0151
 1178POPI   C3A17773  10.476   7.046   7.541  0.3385  0.2872 -0.2559
 1178POPI   C4A17774  10.361   7.286   7.900  0.0932  0.2418 -0.1420
 1178POPI   C1B17775  10.854   6.137   7.441  0.0229 -0.0526 -0.0618
 1178POPI   C2B17776  10.819   6.179   7.882  0.0183  0.1816  0.0953
 1178POPI   C3B17777  10.921   6.164   8.375 -0.0845 -0.1206  0.1951
 1178POPI   C4B17778  10.725   6.044   8.846  0.1728 -0.2014  0.0486
 1179POPI    C117779   6.100  14.721   6.250 -0.0422 -0.0181 -0.3023
 1179POPI    C217780   6.203  14.362   6.393  0.0698  0.1263 -0.0116
 1179POPI    C317781   6.445  14.552   6.137  0.0547  0.0360 -0.0933
 1179POPI   PO417782   6.107  14.840   6.467 -0.1464 -0.1756  0.2077
 1179POPI   GL117783   6.328  14.888   6.808 -0.3051  0.1977 -0.1991
 1179POPI   GL217784   6.258  14.609   6.898  0.2944 -0.0482  0.0275
 1179POPI   C1A17785   6.405  15.186   7.199  0.2251  0.1346 -0.1076
 1179POPI   D2A17786   6.411  15.089   7.704 -0.1368  0.1482 -0.1105
 1179POPI   C3A17787   6.429  15.181   8.157 -0.1070 -0.4064 -0.2653
 1179POPI   C4A17788   6.406  15.091   8.640  0.4369  0.3875 -0.0841
 1179POPI   C1B17789   6.318  14.670   7.368  0.0180  0.2700  0.2357
 1179POPI   C2B17790   6.366  14.581   7.800 -0.1698  0.0537 -0.3100
 1179POPI   C3B17791   6.336  14.683   8.217  0.0124 -0.1986 -0.1537
 1179POPI   C4B17792   6.152  14.654   8.575  0.4812 -0.1642  0.1911
 1180POPI    C117793  11.262  11.270   6.092  0.0753 -0.1772  0.0972
 1180POPI    C217794  11.307  11.209   5.700 -0.0004  0.0065  0.0589
 1180POPI    C317795  11.554  11.456   5.893 -0.1106  0.1013  0.0793
 1180POPI   PO417796  11.152  11.078   6.199  0.0766  0.1230 -0.0172
 1180POPI   GL117797  10.989  10.856   6.472 -0.0461 -0.0846 -0.0330
 1180POPI   GL217798  11.310  10.839   6.636  0.2329  0.0119 -0.1185
 1180POPI   C1A17799  10.871  10.686   6.907  0.2173 -0.0325 -0.1185
 1180POPI   D2A17800  10.911  10.594   7.347  0.1041  0.0235 -0.0069
 1180POPI   C3A17801  10.860  10.738   7.754 -0.0777 -0.0244  0.2073
 1180POPI   C4A17802  10.779  10.773   8.154 -0.1776 -0.0625  0.2709
 1180POPI   C1B17803  11.331  10.783   7.180  0.3084 -0.1990 -0.1264
 1180POPI   C2B17804  11.372  10.810   7.635 -0.3070 -0.1849 -0.0503
 1180POPI   C3B17805  11.291  10.865   8.062 -0.2147  0.0658 -0.0017
 1180POPI   C4B17806  11.289  10.960   8.460 -0.1567 -0.3938  0.1195
 1181POPI    C117807   6.682   8.044   6.164  0.1498 -0.0770  0.0957
 1181POPI    C217808   6.761   7.939   5.787  0.3409 -0.0232  0.1194
 1181POPI    C317809   7.002   8.194   5.977  0.1398  0.0973  0.2160
 1181POPI   PO417810   6.568   7.729   6.270  0.0551  0.0474 -0.1782
 1181POPI   GL117811   6.712   7.821   6.604 -0.2240 -0.1734  0.0140
 1181POPI   GL217812   6.638   8.112   6.734 -0.3108 -0.0389  0.2616
 1181POPI   C1A17813   6.770   7.705   7.007  0.4108  0.1885 -0.1360
 1181POPI   D2A17814   6.769   7.958   7.289 -0.0524  0.1766  0.0657
 1181POPI   C3A17815   6.731   7.773   7.695 -0.4443  0.0875  0.0430
 1181POPI   C4A17816   6.804   7.727   8.101 -0.2105  0.4151 -0.0862
 1181POPI   C1B17817   6.357   8.062   7.019  0.1816  0.1386 -0.2560
 1181POPI   C2B17818   6.291   8.048   7.468 -0.0697  0.3497  0.0936
 1181POPI   C3B17819   6.427   8.072   7.884 -0.0684  0.0756 -0.2455
 1181POPI   C4B17820   6.479   8.285   8.264  0.2335 -0.0601 -0.1196
 1182POPI    C117821   1.592   5.123   5.702  0.0888  0.0702  0.1472
 1182POPI    C217822   1.319   5.414   5.669 -0.0318 -0.0147  0.3733
 1182POPI    C317823   1.368   5.152   5.371 -0.0501  0.1262  0.2449
 1182POPI   PO417824   1.501   5.039   5.943 -0.0676 -0.4455 -0.1539
 1182POPI   GL117825   1.575   4.959   6.351 -0.0650  0.1759 -0.5247
 1182POPI   GL217826   1.876   5.137   6.392 -0.1698 -0.0777  0.1656
 1182POPI   C1A17827   1.491   4.849   6.765 -0.1052 -0.0277 -0.0307
 1182POPI   D2A17828   1.289   4.920   7.115 -0.2222 -0.1827  0.1210
 1182POPI   C3A17829   1.388   4.879   7.457  0.2849  0.0455  0.0209
 1182POPI   C4A17830   1.343   4.834   7.926 -0.1196 -0.4176  0.2018
 1182POPI   C1B17831   1.851   5.168   6.847 -0.1473 -0.2023 -0.0639
 1182POPI   C2B17832   1.816   5.046   7.214 -0.1364 -0.0137  0.1441
 1182POPI   C3B17833   1.825   4.989   7.652 -0.0015  0.0294  0.6412
 1182POPI   C4B17834   1.828   4.874   8.054 -0.1322 -0.1454 -0.0540
 1183POPI    C117835  11.054   5.301   6.384 -0.1121 -0.2491  0.0172
 1183POPI    C217836  11.260   4.959   6.389  0.0006 -0.1880 -0.2594
 1183POPI    C317837  11.366   5.252   6.138 -0.1029  0.0459 -0.0339
 1183POPI   PO417838  10.986   5.335   6.640  0.0286 -0.1081 -0.2390
 1183POPI   GL117839  10.929   5.105   7.024  0.0150  0.2886  0.0549
 1183POPI   GL217840  11.299   5.159   6.969 -0.1613 -0.1162 -0.1294
 1183POPI   C1A17841  10.943   5.263   7.514  0.1647  0.1336  0.0916
 1183POPI   D2A17842  10.762   5.289   7.928  0.1243  0.1028  0.1024
 1183POPI   C3A17843  10.878   5.195   8.368  0.0311  0.0228 -0.0936
 1183POPI   C4A17844  10.914   5.103   8.857 -0.1814 -0.1566  0.0544
 1183POPI   C1B17845  11.421   5.143   7.363  0.1654  0.0618  0.0541
 1183POPI   C2B17846  11.353   5.268   7.776  0.0122 -0.2001  0.3307
 1183POPI   C3B17847  11.315   5.088   8.134 -0.2076  0.0859 -0.0973
 1183POPI   C4B17848  11.285   5.361   8.528 -0.0080 -0.0040 -0.0363
 1184POPI    C117849  10.222  10.952   6.182  0.1096 -0.0727  0.0414
 1184POPI    C217850  10.079  10.583   6.124  0.0194 -0.0176 -0.0930
 1184POPI    C317851  10.132  10.828   5.813  0.2335  0.0274 -0.0230
 1184POPI   PO417852  10.152  11.017   6.312  0.0716 -0.1759 -0.2167
 1184POPI   GL117853  10.225  11.225   6.706  0.3606  0.2062 -0.0384
 1184POPI   GL217854  10.574  11.123   6.652 -0.3076  0.1094 -0.1852
 1184POPI   C1A17855  10.022  11.000   7.083 -0.3797 -0.1813  0.0737
 1184POPI   D2A17856  10.002  10.843   7.510 -0.0889  0.1288 -0.0665
 1184POPI   C3A17857   9.993  10.920   7.887 -0.1586  0.1321 -0.4073
 1184POPI   C4A17858   9.853  10.949   8.341 -0.0942  0.0645 -0.0072
 1184POPI   C1B17859  10.557  11.064   7.038  0.1818 -0.0546 -0.1636
 1184POPI   C2B17860  10.500  11.018   7.406 -0.1023  0.0694  0.0731
 1184POPI   C3B17861  10.462  11.102   7.808  0.1931  0.2121  0.1132
 1184POPI   C4B17862  10.346  11.074   8.215 -0.2124 -0.0684 -0.1872
 1185POPI    C117863   4.333  10.469   5.895  0.1900 -0.0288 -0.0121
 1185POPI    C217864   4.471  10.488   5.520 -0.0237 -0.2608 -0.1061
 1185POPI    C317865   4.081  10.539   5.591  0.0247 -0.1584  0.0936
 1185POPI   PO417866   4.525  10.354   6.026  0.2509 -0.0708 -0.0033
 1185POPI   GL117867   4.745  10.317   6.462  0.0918 -0.1204  0.2389
 1185POPI   GL217868   4.850  10.657   6.518  0.1419  0.0817  0.2153
 1185POPI   C1A17869   4.688  10.412   6.890  0.2397  0.1457 -0.2101
 1185POPI   D2A17870   4.762  10.423   7.328 -0.0162  0.1308 -0.2400
 1185POPI   C3A17871   4.661  10.502   7.749  0.1271 -0.1180 -0.0359
 1185POPI   C4A17872   4.722  10.319   8.168 -0.2370  0.2208 -0.1662
 1185POPI   C1B17873   4.859  10.948   6.839 -0.1135 -0.0660 -0.0871
 1185POPI   C2B17874   4.821  10.928   7.286 -0.2932  0.2570 -0.1698
 1185POPI   C3B17875   4.879  10.932   7.657  0.2068 -0.1246  0.0971
 1185POPI   C4B17876   4.879  11.024   8.193 -0.1741 -0.1654  0.1373
 1186POPI    C117877  11.865  10.739   6.208 -0.1000 -0.0670  0.0741
 1186POPI    C217878  11.581  10.914   5.986 -0.0594 -0.1312 -0.0293
 1186POPI    C317879  11.680  10.532   5.920  0.1208 -0.0798 -0.0603
 1186POPI   PO417880  11.798  10.797   6.430  0.2049  0.0488 -0.3818
 1186POPI   GL117881  11.771  11.081   6.755 -0.0513 -0.0998 -0.2859
 1186POPI   GL217882  11.502  11.263   6.841  0.0095 -0.0958 -0.0840
 1186POPI   C1A17883  11.773  11.019   7.172 -0.1000 -0.3892 -0.0744
 1186POPI   D2A17884  11.833  11.024   7.653 -0.0962 -0.1766  0.0303
 1186POPI   C3A17885  11.756  10.990   8.038 -0.0046 -0.2186  0.0619
 1186POPI   C4A17886  11.906  11.072   8.499  0.3915 -0.1399  0.3880
 1186POPI   C1B17887  11.403  11.372   7.236  0.1150 -0.0564 -0.0380
 1186POPI   C2B17888  11.490  11.380   7.748  0.3573  0.1948 -0.1261
 1186POPI   C3B17889  11.405  11.413   8.200 -0.1105 -0.0924  0.1219
 1186POPI   C4B17890  11.512  11.474   8.575 -0.0354  0.1807 -0.0906
 1187POPI    C117891   8.685  13.718   5.942  0.0065  0.3404  0.3416
 1187POPI    C217892   8.441  13.968   5.747  0.0796  0.1736  0.0290
 1187POPI    C317893   8.829  13.953   5.651  0.0828 -0.0315  0.0717
 1187POPI   PO417894   8.612  13.829   6.197 -0.3336 -0.0670 -0.4763
 1187POPI   GL117895   8.444  13.773   6.670  0.2393 -0.1827  0.0592
 1187POPI   GL217896   8.356  13.559   6.508  0.1884 -0.1855  0.1876
 1187POPI   C1A17897   8.470  13.765   7.158  0.1256  0.0858 -0.1462
 1187POPI   D2A17898   8.453  13.792   7.624 -0.0182 -0.1161 -0.2707
 1187POPI   C3A17899   8.340  13.824   8.072  0.0187 -0.0740 -0.1392
 1187POPI   C4A17900   8.229  13.717   8.470 -0.0783 -0.0512  0.1738
 1187POPI   C1B17901   8.339  13.352   6.872 -0.0585  0.1484  0.1648
 1187POPI   C2B17902   8.303  13.289   7.266 -0.1200 -0.1226 -0.0076
 1187POPI   C3B17903   8.303  13.313   7.674 -0.1762  0.1586  0.1477
 1187POPI   C4B17904   8.181  13.358   8.090 -0.1523 -0.3591  0.4161
 1188POPI    C117905  13.258   5.533   6.190  0.0532 -0.0506  0.0380
 1188POPI    C217906  13.005   5.708   5.934  0.1250  0.2109  0.1425
 1188POPI    C317907  13.399   5.713   5.862  0.1113 -0.1113  0.0294
 1188POPI   PO417908  13.117   5.643   6.415 -0.1726 -0.3388  0.4208
 1188POPI   GL117909  13.204   5.398   6.814 -0.3625  0.0511  0.2422
 1188POPI   GL217910  12.858   5.389   7.053  0.1232 -0.1821 -0.1046
 1188POPI   C1A17911  13.311   5.217   7.227  0.1758  0.0397 -0.2698
 1188POPI   D2A17912  13.633   5.410   7.576 -0.1800  0.0419 -0.3015
 1188POPI   C3A17913  13.683   5.459   8.028  0.1045 -0.1115  0.0019
 1188POPI   C4A17914  13.707   5.600   8.421 -0.0042  0.0765  0.0316
 1188POPI   C1B17915  12.838   5.315   7.535  0.0502  0.0367 -0.0134
 1188POPI   C2B17916  12.707   5.063   7.894  0.0584  0.1603  0.0036
 1188POPI   C3B17917  12.683   5.132   8.280 -0.1248 -0.0859  0.0333
 1188POPI   C4B17918  12.867   5.023   8.664 -0.0795 -0.2222  0.2962
 1189POPI    C117919  11.775   5.051   6.492  0.1701  0.0801  0.3654
 1189POPI    C217920  12.126   5.208   6.602  0.1492  0.1803  0.2900
 1189POPI    C317921  11.925   5.363   6.293 -0.0240  0.2062  0.4137
 1189POPI   PO417922  11.708   4.995   6.714  0.0540 -0.0246  0.2249
 1189POPI   GL117923  11.815   5.135   7.066  0.3691  0.3746 -0.0769
 1189POPI   GL217924  11.631   5.481   7.061  0.0474 -0.2005  0.0066
 1189POPI   C1A17925  11.873   5.194   7.564 -0.1276 -0.3824 -0.1896
 1189POPI   D2A17926  11.793   5.265   7.991 -0.0828 -0.1699 -0.1990
 1189POPI   C3A17927  11.835   4.971   8.386  0.1668 -0.0528 -0.2799
 1189POPI   C4A17928  11.951   4.669   8.633 -0.3557  0.4333 -0.0519
 1189POPI   C1B17929  11.828   5.680   7.419  0.0425  0.1845 -0.2404
 1189POPI   C2B17930  11.922   5.816   7.833  0.3271 -0.0934  0.0796
 1189POPI   C3B17931  11.865   5.949   8.231  0.0584  0.2974 -0.0367
 1189POPI   C4B17932  11.558   5.653   8.313 -0.0723 -0.2547 -0.1475
 1190POPI    C117933  13.362   6.208   6.047 -0.2294 -0.0757  0.3439
 1190POPI    C217934  13.406   6.523   5.805 -0.1148  0.0549  0.5322
 1190POPI    C317935  13.394   6.153   5.652  0.1398  0.1222  0.3430
 1190POPI   PO417936  13.314   6.373   6.299 -0.3535  0.1385 -0.4015
 1190POPI   GL117937  13.557   6.295   6.678 -0.1430  0.1402  0.0651
 1190POPI   GL217938  13.412   6.651   6.735  0.1051  0.2479 -0.0682
 1190POPI   C1A17939  13.530   6.224   7.125 -0.0360  0.4784  0.0781
 1190POPI   D2A17940  13.786   6.374   7.416 -0.1899  0.0759  0.2655
 1190POPI   C3A17941  13.906   6.444   7.853  0.4716 -0.1839  0.1410
 1190POPI   C4A17942  13.995   6.498   8.221 -0.0178  0.1642 -0.3099
 1190POPI   C1B17943  13.496   6.766   7.167 -0.1833  0.1395  0.0441
 1190POPI   C2B17944  13.569   6.753   7.600 -0.1610  0.1462  0.1641
 1190POPI   C3B17945  13.580   6.731   8.103 -0.0932  0.1294  0.1616
 1190POPI   C4B17946  13.348   6.596   8.527 -0.1344  0.0658 -0.2917
 1191POPI    C117947  16.068  14.802   6.099  0.0543  0.0012 -0.0473
 1191POPI    C217948  16.406  14.716   5.904  0.0543  0.0189 -0.0551
 1191POPI    C317949  16.161  14.421   6.018  0.0726  0.0061 -0.0494
 1191POPI   PO417950  16.083  14.853   6.373  0.1435 -0.2861  0.0286
 1191POPI   GL117951  16.240  14.697   6.753 -0.3214 -0.1334 -0.0494
 1191POPI   GL217952  16.014  14.575   6.921 -0.2968 -0.1434 -0.0406
 1191POPI   C1A17953  16.440  14.774   7.118 -0.1277  0.0444 -0.0650
 1191POPI   D2A17954  16.547  14.610   7.559  0.0497  0.0561  0.1555
 1191POPI   C3A17955  16.657  14.687   8.119 -0.2392  0.2224  0.0822
 1191POPI   C4A17956  16.610  14.556   8.541 -0.5015  0.5179  0.2658
 1191POPI   C1B17957  16.046  14.492   7.338 -0.1360  0.0137  0.1301
 1191POPI   C2B17958  16.063  14.440   7.855  0.4113  0.2701  0.0276
 1191POPI   C3B17959  16.125  14.507   8.281  0.0018  0.1191 -0.0956
 1191POPI   C4B17960  15.982  14.779   8.623 -0.0941  0.2636  0.2133
 1192POPI    C117961  16.463  10.148   6.245  0.0296 -0.2603 -0.0851
 1192POPI    C217962  16.753  10.267   5.997  0.0192  0.1344  0.0850
 1192POPI    C317963  16.397  10.449   5.990 -0.0200  0.0693  0.3057
 1192POPI   PO417964  16.455  10.126   6.565  0.1835  0.0057 -0.0825
 1192POPI   GL117965  16.487  10.348   6.902 -0.0679 -0.1006  0.1572
 1192POPI   GL217966  16.212  10.465   7.008 -0.1412 -0.0440 -0.0594
 1192POPI   C1A17967  16.649  10.064   7.251 -0.4008 -0.1163 -0.5105
 1192POPI   D2A17968  16.676   9.999   7.785 -0.0304 -0.0013 -0.0102
 1192POPI   C3A17969  16.648   9.914   8.171  0.0446  0.3249  0.2559
 1192POPI   C4A17970  16.652   9.611   8.502  0.1343  0.2845 -0.1818
 1192POPI   C1B17971  16.250  10.375   7.436  0.0839  0.3647 -0.3145
 1192POPI   C2B17972  16.328  10.348   7.882  0.0687 -0.1377 -0.2126
 1192POPI   C3B17973  16.202  10.265   8.221 -0.0211  0.1709  0.1268
 1192POPI   C4B17974  16.039  10.190   8.602 -0.1857 -0.0406  0.0081
 1193POPI    C117975  13.418   4.329   6.222 -0.1499 -0.0701 -0.2179
 1193POPI    C217976  13.764   4.173   6.349 -0.2017  0.1010  0.1460
 1193POPI    C317977  13.478   3.934   6.203 -0.0977 -0.0902  0.2511
 1193POPI   PO417978  13.383   4.594   6.438 -0.1142 -0.2531  0.0016
 1193POPI   GL117979  13.270   4.828   6.801 -0.1519 -0.1420 -0.0132
 1193POPI   GL217980  13.519   4.959   6.836 -0.0340  0.1233  0.2594
 1193POPI   C1A17981  13.396   4.601   7.237  0.0658  0.0409  0.3568
 1193POPI   D2A17982  13.680   4.770   7.452 -0.1903  0.0854  0.1474
 1193POPI   C3A17983  13.478   5.004   7.846  0.0287 -0.0237 -0.0827
 1193POPI   C4A17984  13.240   5.221   7.848  0.2635 -0.0295  0.0802
 1193POPI   C1B17985  13.810   5.186   7.176  0.0347  0.0500 -0.0632
 1193POPI   C2B17986  14.046   5.128   7.580  0.2154  0.2982 -0.0763
 1193POPI   C3B17987  14.016   5.124   8.087  0.0446 -0.2092  0.1891
 1193POPI   C4B17988  13.724   4.955   8.325 -0.1792 -0.0816  0.3934
 1194POPI    C117989  10.097  13.893   6.184 -0.0816 -0.0370 -0.2903
 1194POPI    C217990  10.461  14.033   6.273 -0.1496 -0.0867  0.0823
 1194POPI    C317991  10.326  14.051   5.897  0.3703 -0.3759 -0.1280
 1194POPI   PO417992   9.949  13.971   6.352  0.0031  0.1278 -0.1898
 1194POPI   GL117993  10.207  14.145   6.712 -0.1924  0.1610  0.1084
 1194POPI   GL217994   9.980  14.088   6.837 -0.0068 -0.0145  0.1725
 1194POPI   C1A17995  10.430  14.326   7.041 -0.0725 -0.0048  0.0097
 1194POPI   D2A17996  10.379  14.382   7.493  0.0266  0.2380  0.3120
 1194POPI   C3A17997  10.365  14.380   7.883  0.1689 -0.2103 -0.3147
 1194POPI   C4A17998  10.433  14.355   8.338 -0.1508  0.1664  0.0713
 1194POPI   C1B17999   9.912  14.216   7.251 -0.0724  0.2569 -0.1011
 1194POPI   C2B18000   9.880  14.271   7.701  0.0510  0.1915  0.3033
 1194POPI   C3B18001   9.867  14.274   8.122  0.3638 -0.2710 -0.3614
 1194POPI   C4B18002   9.912  14.192   8.648 -0.0426 -0.0743  0.0823
 1195POPI    C118003  14.502   2.033   5.966  0.0831 -0.0311  0.0431
 1195POPI    C218004  14.519   2.234   5.621  0.0491  0.0417  0.0836
 1195POPI    C318005  14.499   1.835   5.619 -0.2759  0.0551 -0.0071
 1195POPI   PO418006  14.251   2.148   6.186  0.1850 -0.0826 -0.1076
 1195POPI   GL118007  14.247   2.226   6.608 -0.0903 -0.0321  0.1750
 1195POPI   GL218008  14.015   2.321   6.613 -0.2065 -0.0002 -0.0481
 1195POPI   C1A18009  14.446   2.093   6.918  0.1655  0.1104  0.0549
 1195POPI   D2A18010  14.534   1.876   7.372 -0.0172 -0.1488 -0.1502
 1195POPI   C3A18011  14.526   1.954   7.724  0.0164  0.1229 -0.1829
 1195POPI   C4A18012  14.570   1.825   8.206 -0.2401 -0.1551 -0.1747
 1195POPI   C1B18013  14.023   2.409   7.028 -0.2504  0.0496  0.2165
 1195POPI   C2B18014  14.106   2.321   7.472  0.2676 -0.3985  0.3066
 1195POPI   C3B18015  14.067   2.296   7.882  0.2410 -0.1303  0.1450
 1195POPI   C4B18016  14.243   2.362   8.222 -0.0533  0.0788  0.1290
 1196POPI    C118017  13.563  14.646   6.055 -0.1632 -0.0437  0.0386
 1196POPI    C218018  13.331  14.861   5.810  0.0016  0.1190  0.0228
 1196POPI    C318019  13.482  14.511   5.688 -0.0243  0.1366 -0.0599
 1196POPI   PO418020  13.313  14.635   6.319  0.1104 -0.0861  0.1961
 1196POPI   GL118021  12.984  14.613   6.646 -0.1507  0.2856 -0.2245
 1196POPI   GL218022  12.627  14.637   6.808  0.2966  0.1413  0.3894
 1196POPI   C1A18023  13.230  14.734   6.962  0.1050 -0.0728 -0.0583
 1196POPI   D2A18024  13.175  14.731   7.437 -0.2003  0.0669  0.0240
 1196POPI   C3A18025  13.229  14.766   7.820  0.1237  0.1474  0.1447
 1196POPI   C4A18026  13.339  14.690   8.265  0.0007 -0.1036 -0.3866
 1196POPI   C1B18027  12.650  14.690   7.168  0.1740  0.2279 -0.0757
 1196POPI   C2B18028  12.719  14.601   7.563 -0.1896  0.0305 -0.2727
 1196POPI   C3B18029  12.748  14.558   7.958 -0.4911  0.1191 -0.1950
 1196POPI   C4B18030  12.848  14.628   8.356 -0.2341  0.0683  0.4355
 1197POPI    C118031   7.425   3.592   6.086  0.1319  0.1204  0.0979
 1197POPI    C218032   7.295   3.970   6.075  0.2914  0.1693 -0.2143
 1197POPI    C318033   7.312   3.754   5.739  0.3209 -0.0764 -0.0580
 1197POPI   PO418034   7.259   3.422   6.260 -0.1859  0.0929 -0.0952
 1197POPI   GL118035   6.997   3.358   6.720 -0.0620 -0.0650 -0.1116
 1197POPI   GL218036   6.826   3.141   6.648  0.1829  0.1104  0.1785
 1197POPI   C1A18037   7.302   3.214   7.115  0.0313  0.2833 -0.0986
 1197POPI   D2A18038   7.397   3.163   7.535 -0.0691  0.2439 -0.3647
 1197POPI   C3A18039   7.351   3.260   7.875  0.3792 -0.2106  0.1214
 1197POPI   C4A18040   7.327   3.312   8.232 -0.0856  0.3406 -0.0054
 1197POPI   C1B18041   6.857   2.969   7.015  0.0475 -0.1153  0.1512
 1197POPI   C2B18042   6.859   3.020   7.455  0.3682 -0.1944 -0.0521
 1197POPI   C3B18043   6.810   3.092   7.893  0.1608 -0.1778  0.1292
 1197POPI   C4B18044   6.887   3.054   8.290  0.0423  0.0750  0.0191
 1198DPPI    C118045   5.284  17.209   5.925 -0.1528 -0.0676  0.0621
 1198DPPI    C218046   5.556  17.050   5.679 -0.0183 -0.0122  0.1737
 1198DPPI    C318047   5.167  17.025   5.590  0.0425  0.2745 -0.2008
 1198DPPI   PO418048   5.474  17.175   6.206  0.1399 -0.3001 -0.1506
 1198DPPI   GL118049   5.520  17.225   6.664 -0.1488  0.1085  0.1788
 1198DPPI   GL218050   5.730  17.002   6.664  0.0600  0.2621  0.0643
 1198DPPI   C1A18051   5.570  17.212   7.067 -0.0971 -0.2478 -0.1243
 1198DPPI   C2A18052   5.503  17.251   7.555  0.0177 -0.2317 -0.0575
 1198DPPI   C3A18053   5.579  17.256   7.998 -0.0670  0.2671 -0.0426
 1198DPPI   C4A18054   5.603  17.305   8.409  0.1763  0.3240  0.1342
 1198DPPI   C1B18055   6.000  16.889   6.991  0.4011  0.2115  0.0383
 1198DPPI   C2B18056   5.926  16.936   7.465  0.1227 -0.1912 -0.3286
 1198DPPI   C3B18057   5.956  16.914   7.926 -0.2580 -0.0974  0.1859
 1198DPPI   C4B18058   5.919  16.838   8.427 -0.0331  0.2724  0.1878
 1199DPPI    C118059   5.329  12.024   5.890  0.2317 -0.1363 -0.0879
 1199DPPI    C218060   5.635  11.866   5.686  0.1209 -0.1731 -0.2270
 1199DPPI    C318061   5.274  11.894   5.516 -0.0255 -0.4012  0.0377
 1199DPPI   PO418062   5.410  11.959   6.141  0.1518  0.1906 -0.0717
 1199DPPI   GL118063   5.465  11.557   6.363  0.1036 -0.2785 -0.3870
 1199DPPI   GL218064   5.784  11.442   6.358 -0.1877  0.3039 -0.2110
 1199DPPI   C1A18065   5.516  11.452   6.903  0.5340  0.1672 -0.2165
 1199DPPI   C2A18066   5.467  11.498   7.345 -0.2203 -0.0093  0.2465
 1199DPPI   C3A18067   5.477  11.607   7.785 -0.1269 -0.1171  0.1142
 1199DPPI   C4A18068   5.367  11.685   8.242  0.1088 -0.1959  0.1552
 1199DPPI   C1B18069   5.879  11.138   6.765  0.0326 -0.3455  0.0008
 1199DPPI   C2B18070   5.825  11.136   7.224 -0.0695  0.0840  0.3867
 1199DPPI   C3B18071   5.864  11.195   7.665  0.0162  0.1664 -0.1095
 1199DPPI   C4B18072   5.846  11.308   8.145  0.1166 -0.0646 -0.0790
 1200DPPI    C118073   6.711   8.606   6.025 -0.2490  0.1029  0.0503
 1200DPPI    C218074   6.428   8.390   5.843 -0.1300  0.1227 -0.1611
 1200DPPI    C318075   6.404   8.789   5.846  0.0699  0.1411 -0.4800
 1200DPPI   PO418076   6.759   8.515   6.311 -0.2227  0.1641 -0.1788
 1200DPPI   GL118077   7.127   8.260   6.528  0.0810 -0.2487 -0.1450
 1200DPPI   GL218078   7.473   8.316   6.655  0.3228 -0.2182 -0.0676
 1200DPPI   C1A18079   7.022   8.249   6.961  0.0091 -0.1421 -0.5643
 1200DPPI   C2A18080   7.073   8.329   7.337 -0.3425 -0.1726  0.2643
 1200DPPI   C3A18081   7.062   8.177   7.702 -0.2633 -0.1487 -0.4105
 1200DPPI   C4A18082   6.889   8.260   7.991  0.1496 -0.0684  0.1414
 1200DPPI   C1B18083   7.495   8.337   7.095  0.0003 -0.1339  0.0190
 1200DPPI   C2B18084   7.564   8.391   7.553 -0.0231  0.0679 -0.0722
 1200DPPI   C3B18085   7.471   8.330   7.975  0.2813 -0.0924 -0.2062
 1200DPPI   C4B18086   7.279   7.854   8.068 -0.0639  0.0634  0.4276
 1201DPPI    C118087  13.878   6.794   5.928  0.1679  0.1716 -0.0605
 1201DPPI    C218088  14.176   6.747   5.665  0.0923  0.1317 -0.1395
 1201DPPI    C318089  13.801   6.802   5.535  0.0073 -0.1910 -0.0407
 1201DPPI   PO418090  14.014   6.988   6.077  0.0942  0.0115  0.1548
 1201DPPI   GL118091  14.052   6.801   6.438  0.0711  0.2018 -0.0341
 1201DPPI   GL218092  14.293   6.848   6.543 -0.1014 -0.2332 -0.1987
 1201DPPI   C1A18093  13.889   6.900   6.837  0.4643  0.0476 -0.1047
 1201DPPI   C2A18094  13.985   6.943   7.288  0.1220  0.0489  0.1855
 1201DPPI   C3A18095  14.083   6.927   7.674  0.3635  0.1382 -0.4586
 1201DPPI   C4A18096  14.042   6.943   7.987 -0.0324  0.0795  0.1346
 1201DPPI   C1B18097  14.462   7.031   6.989  0.0953  0.2433  0.2943
 1201DPPI   C2B18098  14.599   7.063   7.419 -0.1405 -0.1247  0.2081
 1201DPPI   C3B18099  14.595   7.097   7.886 -0.0151  0.1371 -0.1262
 1201DPPI   C4B18100  14.378   7.109   8.317 -0.0758  0.0427  0.0082
 1202DPPI    C118101   3.789   6.244   6.020 -0.1404 -0.3802  0.2275
 1202DPPI    C218102   3.491   6.088   5.802 -0.0611 -0.1293 -0.0683
 1202DPPI    C318103   3.870   6.042   5.684 -0.0053 -0.1320  0.1083
 1202DPPI   PO418104   3.616   6.293   6.209 -0.0171  0.1043 -0.1108
 1202DPPI   GL118105   3.746   6.456   6.596  0.0101  0.0597 -0.0023
 1202DPPI   GL218106   3.956   6.587   6.531 -0.0652  0.1361  0.1333
 1202DPPI   C1A18107   3.609   6.433   6.979  0.3617  0.0013  0.1905
 1202DPPI   C2A18108   3.587   6.442   7.436  0.1598  0.0071  0.3762
 1202DPPI   C3A18109   3.569   6.373   7.849  0.1874  0.3202 -0.0390
 1202DPPI   C4A18110   3.476   6.260   8.303 -0.0224  0.1477  0.1068
 1202DPPI   C1B18111   4.107   6.629   6.982  0.2269 -0.0043  0.2512
 1202DPPI   C2B18112   4.132   6.553   7.348  0.0972  0.0688 -0.2572
 1202DPPI   C3B18113   4.078   6.537   7.778  0.3292  0.0893  0.0476
 1202DPPI   C4B18114   3.951   6.487   8.177  0.2435 -0.2079 -0.4601
 1203DPPI    C118115  15.857  12.765   6.051  0.0627  0.1974 -0.0125
 1203DPPI    C218116  16.223  12.745   5.890 -0.0839  0.0455 -0.3373
 1203DPPI    C318117  15.998  13.071   5.834  0.0603  0.2085  0.0016
 1203DPPI   PO418118  15.893  12.606   6.332 -0.0935  0.3519  0.0967
 1203DPPI   GL118119  16.066  12.718   6.722 -0.0104 -0.4052 -0.0719
 1203DPPI   GL218120  16.302  12.839   6.791  0.2085  0.1667  0.0819
 1203DPPI   C1A18121  16.032  12.675   7.182  0.0790 -0.0597 -0.0433
 1203DPPI   C2A18122  16.022  12.570   7.641  0.0881  0.0405  0.0058
 1203DPPI   C3A18123  16.026  12.620   7.997  0.0817 -0.0661  0.2500
 1203DPPI   C4A18124  16.123  12.679   8.384  0.1108 -0.3488  0.1092
 1203DPPI   C1B18125  16.508  12.790   7.195  0.0387 -0.0207 -0.3008
 1203DPPI   C2B18126  16.470  12.801   7.684 -0.2616 -0.0374 -0.3049
 1203DPPI   C3B18127  16.532  12.754   8.073 -0.2052 -0.2307 -0.1419
 1203DPPI   C4B18128  16.645  12.762   8.551  0.1514 -0.1146 -0.1007
 1204DPPI    C118129  10.422  11.550   6.042  0.1167 -0.0910 -0.1391
 1204DPPI    C218130  10.373  11.244   5.789  0.1855 -0.1737 -0.0531
 1204DPPI    C318131  10.265  11.613   5.679 -0.0569 -0.2551 -0.0945
 1204DPPI   PO418132  10.302  11.498   6.286 -0.0951  0.2191 -0.1071
 1204DPPI   GL118133   9.915  11.536   6.429 -0.0983 -0.0775 -0.0527
 1204DPPI   GL218134   9.727  11.313   6.599 -0.2603  0.0012 -0.0578
 1204DPPI   C1A18135  10.017  11.609   6.855 -0.0975  0.1325 -0.3919
 1204DPPI   C2A18136  10.073  11.531   7.266 -0.3099  0.1237 -0.2701
 1204DPPI   C3A18137  10.096  11.396   7.639  0.0666 -0.3290  0.3005
 1204DPPI   C4A18138  10.012  11.357   8.092  0.0790 -0.0147 -0.0967
 1204DPPI   C1B18139   9.597  11.342   6.992 -0.0712 -0.0462 -0.1329
 1204DPPI   C2B18140   9.613  11.355   7.381  0.0931  0.0357  0.1899
 1204DPPI   C3B18141   9.574  11.264   7.833 -0.0693 -0.1823 -0.3117
 1204DPPI   C4B18142   9.435  11.250   8.209  0.0756 -0.1386  0.1344
 1205DPPI    C118143   1.439   3.540   6.226 -0.0163 -0.1430 -0.1258
 1205DPPI    C218144   1.378   3.146   6.197  0.2803 -0.1980 -0.0343
 1205DPPI    C318145   1.634   3.328   5.949 -0.1790  0.0158 -0.3657
 1205DPPI   PO418146   1.152   3.636   6.175 -0.0009  0.0190 -0.1962
 1205DPPI   GL118147   0.953   3.398   6.433  0.1694 -0.0435  0.1671
 1205DPPI   GL218148   0.769   3.688   6.606 -0.0783 -0.1678  0.1431
 1205DPPI   C1A18149   1.314   3.388   6.726  0.0381 -0.1642  0.0275
 1205DPPI   C2A18150   1.329   3.384   7.119 -0.0928 -0.1177  0.0289
 1205DPPI   C3A18151   1.345   3.374   7.562 -0.0378  0.5501 -0.1224
 1205DPPI   C4A18152   1.341   3.408   7.943 -0.0899  0.0696 -0.3804
 1205DPPI   C1B18153   0.484   3.638   6.935 -0.2084  0.3227 -0.3771
 1205DPPI   C2B18154   0.460   3.749   7.347  0.2313  0.1033  0.0662
 1205DPPI   C3B18155   0.510   3.702   7.753  0.0552 -0.1268  0.0093
 1205DPPI   C4B18156   0.498   3.716   8.196 -0.3318 -0.2119  0.1143
 1206DPPI    C118157   7.558  14.972   6.012 -0.1742  0.1006  0.0350
 1206DPPI    C218158   7.194  15.093   5.899 -0.1396  0.0013 -0.1878
 1206DPPI    C318159   7.487  15.061   5.629  0.0397  0.0951 -0.0072
 1206DPPI   PO418160   7.441  14.935   6.314  0.2405  0.0175 -0.1648
 1206DPPI   GL118161   7.560  14.964   6.628 -0.1773 -0.1084  0.1535
 1206DPPI   GL218162   7.249  14.915   6.804 -0.4052 -0.0723 -0.2198
 1206DPPI   C1A18163   7.745  15.012   7.099 -0.0201  0.1106 -0.0523
 1206DPPI   C2A18164   7.908  14.968   7.553 -0.0109 -0.4377  0.1003
 1206DPPI   C3A18165   7.892  15.154   7.923 -0.2068 -0.1461 -0.0133
 1206DPPI   C4A18166   7.806  15.137   8.342  0.1258  0.0587 -0.1565
 1206DPPI   C1B18167   7.283  14.794   7.179  0.0947 -0.1755  0.0663
 1206DPPI   C2B18168   7.432  14.934   7.575  0.4259 -0.1536  0.2271
 1206DPPI   C3B18169   7.426  14.969   8.042 -0.0866 -0.0731 -0.0649
 1206DPPI   C4B18170   7.239  14.949   8.482 -0.1534 -0.3200  0.0564
 1207DPPI    C118171   5.330   5.684   5.939 -0.1653  0.1094  0.1517
 1207DPPI    C218172   4.955   5.796   6.021 -0.1847  0.0972  0.0802
 1207DPPI    C318173   5.111   5.869   5.660 -0.1082  0.1285  0.1195
 1207DPPI   PO418174   5.354   5.335   6.076 -0.0975  0.2926 -0.0711
 1207DPPI   GL118175   5.478   5.187   6.500 -0.0898 -0.1443 -0.0013
 1207DPPI   GL218176   5.524   4.992   6.698  0.0448 -0.0130 -0.0595
 1207DPPI   C1A18177   5.709   5.555   6.740 -0.2324 -0.2604  0.0170
 1207DPPI   C2A18178   5.740   5.667   7.124  0.3528  0.0250 -0.0893
 1207DPPI   C3A18179   5.696   5.594   7.585  0.2309 -0.2964 -0.0296
 1207DPPI   C4A18180   5.636   5.560   7.976 -0.1087  0.0725  0.0469
 1207DPPI   C1B18181   5.582   5.096   7.153  0.3463  0.1338 -0.2730
 1207DPPI   C2B18182   5.519   5.074   7.667  0.1045 -0.0827 -0.1024
 1207DPPI   C3B18183   5.620   5.102   8.104 -0.0454  0.0416 -0.2066
 1207DPPI   C4B18184   5.910   5.181   8.377 -0.0825 -0.1862  0.0067
 1208DPPI    C118185  13.485  16.092   6.244  0.0325 -0.1996 -0.1473
 1208DPPI    C218186  13.165  16.253   6.067 -0.0100  0.0357  0.1342
 1208DPPI    C318187  13.528  16.304   5.908 -0.0730  0.0476 -0.0076
 1208DPPI   PO418188  13.452  16.066   6.556  0.1616  0.0662  0.0641
 1208DPPI   GL118189  13.679  16.115   6.899  0.2404  0.0955 -0.1528
 1208DPPI   GL218190  13.672  16.297   7.117 -0.0209  0.0034 -0.3055
 1208DPPI   C1A18191  13.523  15.713   7.090  0.2807  0.2571 -0.3558
 1208DPPI   C2A18192  13.548  15.732   7.448  0.1436 -0.0151  0.2046
 1208DPPI   C3A18193  13.646  15.685   7.809 -0.0164 -0.1023  0.2296
 1208DPPI   C4A18194  13.636  15.653   8.285 -0.0749 -0.1276  0.0495
 1208DPPI   C1B18195  13.718  16.214   7.548 -0.0421  0.1633 -0.2619
 1208DPPI   C2B18196  13.717  16.154   8.062  0.2231 -0.1097 -0.2517
 1208DPPI   C3B18197  13.791  16.122   8.440  0.2901 -0.2906 -0.1474
 1208DPPI   C4B18198  13.565  16.287   8.874 -0.0754 -0.1331  0.0649
 1209DPPI    C118199   6.104   2.634   6.128 -0.0807 -0.1666 -0.1217
 1209DPPI    C218200   5.933   2.854   5.841 -0.1812  0.0832  0.1247
 1209DPPI    C318201   6.330   2.806   5.848 -0.2031 -0.1957 -0.2396
 1209DPPI   PO418202   5.929   2.469   6.156  0.2066  0.2566  0.2094
 1209DPPI   GL118203   5.821   2.617   6.603 -0.0377  0.2140 -0.1492
 1209DPPI   GL218204   5.709   2.285   6.576  0.0277  0.0212  0.2319
 1209DPPI   C1A18205   5.847   2.812   6.991 -0.0433  0.1698  0.1987
 1209DPPI   C2A18206   5.907   2.827   7.375 -0.0804 -0.1479  0.1691
 1209DPPI   C3A18207   5.895   2.931   7.770 -0.4905  0.2270 -0.2868
 1209DPPI   C4A18208   5.895   2.766   8.254 -0.1423 -0.1726 -0.3202
 1209DPPI   C1B18209   5.724   2.314   6.989 -0.1104  0.0138  0.1825
 1209DPPI   C2B18210   5.714   2.268   7.379  0.1384  0.0275  0.0404
 1209DPPI   C3B18211   5.681   2.272   7.853 -0.1546 -0.0423 -0.2355
 1209DPPI   C4B18212   5.664   2.308   8.324  0.0439 -0.0035 -0.1158
 1210DPPI    C118213  17.030  12.665   6.323 -0.1112  0.1510  0.0327
 1210DPPI    C218214  16.826  12.747   6.658  0.1140  0.2273  0.1537
 1210DPPI    C318215  17.048  13.031   6.485  0.1278  0.1418  0.0301
 1210DPPI   PO418216  17.185  12.474   6.381  0.2744 -0.1294  0.0181
 1210DPPI   GL118217  17.277  12.445   6.747  0.0456 -0.1931 -0.4250
 1210DPPI   GL218218  17.369  12.092   6.923  0.1931  0.3214 -0.0232
 1210DPPI   C1A18219  17.447  12.551   7.165 -0.2379 -0.4484  0.0303
 1210DPPI   C2A18220  17.372  12.511   7.623 -0.0957 -0.2660 -0.0507
 1210DPPI   C3A18221  17.339  12.470   8.007  0.0268 -0.1546  0.0656
 1210DPPI   C4A18222  17.498  12.498   8.401  0.0870  0.1342  0.0441
 1210DPPI   C1B18223  17.279  12.030   7.253  0.0298  0.0287  0.1389
 1210DPPI   C2B18224  17.166  11.953   7.723 -0.1777  0.0135 -0.3373
 1210DPPI   C3B18225  17.257  11.969   8.198  0.0410 -0.0119 -0.1679
 1210DPPI   C4B18226  17.510  11.734   8.562  0.3765  0.2861 -0.0710
 1211DPPI    C118227   4.013   4.347   5.572 -0.1210  0.1409 -0.2258
 1211DPPI    C218228   4.395   4.293   5.466 -0.0730  0.1886 -0.0797
 1211DPPI    C318229   4.247   4.663   5.499 -0.1277  0.1706 -0.1191
 1211DPPI   PO418230   3.929   4.235   5.817 -0.2981 -0.2921 -0.2290
 1211DPPI   GL118231   3.738   4.175   6.228 -0.0316  0.0829  0.2107
 1211DPPI   GL218232   4.041   4.103   6.445 -0.1018 -0.4804  0.1513
 1211DPPI   C1A18233   3.665   4.556   6.487  0.0057  0.1316 -0.0435
 1211DPPI   C2A18234   3.658   4.520   6.958  0.0982  0.1532  0.0829
 1211DPPI   C3A18235   3.599   4.520   7.415 -0.0173 -0.0766 -0.1488
 1211DPPI   C4A18236   3.566   4.505   7.850 -0.0366  0.0497  0.0264
 1211DPPI   C1B18237   3.974   4.064   6.789  0.1044  0.0738 -0.1957
 1211DPPI   C2B18238   3.947   4.172   7.174  0.1696  0.0431 -0.0534
 1211DPPI   C3B18239   3.902   4.041   7.616 -0.0943 -0.1813  0.2518
 1211DPPI   C4B18240   3.938   4.167   8.079  0.0602 -0.0105  0.0647
 1212DPPI    C118241  13.357  12.864   6.043 -0.0046  0.0505  0.0710
 1212DPPI    C218242  13.048  13.053   5.874  0.0656  0.2711  0.1855
 1212DPPI    C318243  13.380  12.982   5.662 -0.1109 -0.0888  0.0204
 1212DPPI   PO418244  13.224  12.674   6.176 -0.1929  0.1213 -0.2031
 1212DPPI   GL118245  13.114  12.583   6.461 -0.3665 -0.0657  0.1565
 1212DPPI   GL218246  13.210  12.832   6.773 -0.1028 -0.1792 -0.1200
 1212DPPI   C1A18247  13.225  12.351   6.866  0.0306  0.1120  0.2398
 1212DPPI   C2A18248  13.145  12.307   7.258  0.1075  0.1701  0.1240
 1212DPPI   C3A18249  13.066  12.326   7.672 -0.0846  0.0986 -0.1972
 1212DPPI   C4A18250  13.176  12.251   8.080 -0.2014 -0.0420 -0.3200
 1212DPPI   C1B18251  13.283  12.866   7.234  0.0999 -0.0557 -0.1903
 1212DPPI   C2B18252  13.186  12.810   7.689  0.4715 -0.1406  0.0892
 1212DPPI   C3B18253  13.271  12.811   8.145  0.0724  0.1491  0.0984
 1212DPPI   C4B18254  13.288  12.832   8.610 -0.1399  0.1623 -0.2734
 1213DPPI    C118255  12.002   6.558   6.306 -0.2875  0.2658 -0.0188
 1213DPPI    C218256  12.214   6.660   5.982 -0.1312 -0.0826 -0.0310
 1213DPPI    C318257  11.844   6.514   5.941 -0.1384 -0.0598 -0.0479
 1213DPPI   PO418258  12.216   6.682   6.472  0.0267 -0.0837  0.0142
 1213DPPI   GL118259  12.219   6.909   6.870  0.0805  0.3298 -0.0975
 1213DPPI   GL218260  11.960   6.983   6.829  0.1313 -0.0177  0.1917
 1213DPPI   C1A18261  12.350   7.115   7.198  0.1608 -0.0917  0.2613
 1213DPPI   C2A18262  12.408   7.168   7.589  0.0364  0.2954 -0.2210
 1213DPPI   C3A18263  12.291   7.365   7.937  0.0779 -0.1686 -0.0170
 1213DPPI   C4A18264  12.330   7.452   8.321 -0.0073 -0.1049 -0.2917
 1213DPPI   C1B18265  11.787   7.016   7.207 -0.0807 -0.1275 -0.2206
 1213DPPI   C2B18266  11.874   7.101   7.671  0.2190  0.2832 -0.0125
 1213DPPI   C3B18267  11.757   7.181   8.124  0.1925 -0.1425  0.2352
 1213DPPI   C4B18268  11.897   7.119   8.616  0.0681  0.1539  0.0468
 1214DPPI    C118269   1.478   4.455   5.885 -0.2854 -0.0228 -0.0319
 1214DPPI    C218270   1.505   4.684   5.558 -0.0466  0.0671  0.0487
 1214DPPI    C318271   1.492   4.285   5.522 -0.0690  0.0782 -0.0721
 1214DPPI   PO418272   1.245   4.547   5.990 -0.0868 -0.1514  0.1232
 1214DPPI   GL118273   1.211   4.534   6.422 -0.0470 -0.0999 -0.0195
 1214DPPI   GL218274   1.070   4.353   6.434 -0.0206  0.3077 -0.0453
 1214DPPI   C1A18275   1.186   4.430   6.915  0.2546 -0.1602  0.0073
 1214DPPI   C2A18276   1.214   4.378   7.327 -0.1578  0.2862  0.1073
 1214DPPI   C3A18277   1.132   4.402   7.693  0.0898 -0.0328  0.0045
 1214DPPI   C4A18278   1.113   4.354   8.121 -0.1471  0.1014  0.0571
 1214DPPI   C1B18279   0.745   4.261   6.699  0.1613 -0.0941  0.0390
 1214DPPI   C2B18280   0.748   4.236   7.112 -0.0783 -0.2187  0.2463
 1214DPPI   C3B18281   0.645   4.214   7.532 -0.4749 -0.1760 -0.5647
 1214DPPI   C4B18282   0.619   4.282   7.933 -0.2859  0.1544  0.4551
 1215DPPI    C118283   5.600  10.989   5.635  0.1378 -0.1479  0.2451
 1215DPPI    C218284   5.859  10.935   5.335 -0.0705 -0.2186  0.0756
 1215DPPI    C318285   5.465  10.906   5.268 -0.1385  0.1971  0.2630
 1215DPPI   PO418286   5.780  10.881   5.868  0.0358  0.0025 -0.1274
 1215DPPI   GL118287   5.740  10.835   6.412  0.1840 -0.1190 -0.1712
 1215DPPI   GL218288   5.750  10.561   6.603 -0.3257 -0.0069  0.1944
 1215DPPI   C1A18289   5.425  10.968   6.793  0.0625  0.0575 -0.1758
 1215DPPI   C2A18290   5.318  11.034   7.197  0.1939 -0.0223  0.2044
 1215DPPI   C3A18291   5.371  11.089   7.605 -0.1040 -0.0699  0.0852
 1215DPPI   C4A18292   5.444  11.104   8.059  0.3260  0.0320 -0.1307
 1215DPPI   C1B18293   5.724  10.656   7.058  0.2174 -0.0734  0.0496
 1215DPPI   C2B18294   5.723  10.728   7.486 -0.0053  0.0787  0.0654
 1215DPPI   C3B18295   5.672  10.654   7.989 -0.0746  0.3012 -0.1819
 1215DPPI   C4B18296   5.737  10.704   8.411 -0.1773  0.0934 -0.1130
 1216DPPI    C118297  11.029  16.144   5.871  0.2082 -0.0415  0.0207
 1216DPPI    C218298  11.291  16.390   5.697  0.2453  0.0353  0.1829
 1216DPPI    C318299  11.049  16.165   5.472  0.1043  0.3323  0.0314
 1216DPPI   PO418300  10.892  16.274   6.112  0.1432  0.1344  0.1175
 1216DPPI   GL118301  10.523  16.186   6.416  0.1019  0.1842  0.0574
 1216DPPI   GL218302  10.443  15.878   6.508 -0.1267  0.0998  0.1216
 1216DPPI   C1A18303  10.463  16.328   6.747 -0.1926  0.0693  0.0190
 1216DPPI   C2A18304  10.363  16.350   7.230  0.4231  0.3353 -0.0612
 1216DPPI   C3A18305  10.466  16.281   7.685 -0.4107  0.0730 -0.1244
 1216DPPI   C4A18306  10.418  16.241   8.082 -0.0402 -0.0089  0.1654
 1216DPPI   C1B18307  10.286  15.767   6.904  0.0564  0.1133  0.0188
 1216DPPI   C2B18308  10.273  15.842   7.363 -0.3547  0.1153  0.3673
 1216DPPI   C3B18309  10.373  15.774   7.729  0.2740  0.0784 -0.1161
 1216DPPI   C4B18310  10.340  15.732   8.198 -0.0420  0.2391 -0.2172
 1217DPPI    C118311   4.459   2.134   5.974 -0.1078  0.2174 -0.1338
 1217DPPI    C218312   4.160   2.401   5.969 -0.3671 -0.0650 -0.0199
 1217DPPI    C318313   4.200   2.138   5.670 -0.1577  0.0492 -0.0945
 1217DPPI   PO418314   4.390   2.064   6.269  0.2799  0.0099  0.0892
 1217DPPI   GL118315   4.455   2.073   6.707 -0.2139 -0.1490  0.0292
 1217DPPI   GL218316   4.207   2.394   6.597  0.0192 -0.0123 -0.1077
 1217DPPI   C1A18317   4.658   2.017   7.021  0.2941  0.2058  0.3932
 1217DPPI   C2A18318   4.758   2.080   7.441 -0.0418 -0.0246 -0.1978
 1217DPPI   C3A18319   4.793   1.969   7.904 -0.1823 -0.3260 -0.1083
 1217DPPI   C4A18320   4.807   2.016   8.286  0.2528  0.0157 -0.1983
 1217DPPI   C1B18321   4.316   2.440   7.036 -0.3553  0.0519  0.1190
 1217DPPI   C2B18322   4.437   2.413   7.488 -0.0524  0.1209 -0.1237
 1217DPPI   C3B18323   4.391   2.380   7.892  0.1047 -0.1949 -0.2754
 1217DPPI   C4B18324   4.371   2.403   8.357 -0.0516 -0.0300 -0.0741
 1218DPPI    C118325   8.460   3.057   6.117  0.1302 -0.1847  0.0047
 1218DPPI    C218326   8.662   3.307   5.879  0.0437 -0.0504  0.0713
 1218DPPI    C318327   8.679   2.913   5.815  0.0756 -0.0197 -0.1152
 1218DPPI   PO418328   8.485   3.125   6.363 -0.1065 -0.1079  0.0443
 1218DPPI   GL118329   8.171   3.088   6.732  0.1876 -0.0250  0.1004
 1218DPPI   GL218330   8.191   3.421   6.677 -0.0536  0.5620 -0.2187
 1218DPPI   C1A18331   8.163   3.030   7.083  0.0780  0.1007 -0.0569
 1218DPPI   C2A18332   8.299   3.021   7.477  0.3486  0.2886  0.2173
 1218DPPI   C3A18333   8.261   2.953   7.877 -0.0305  0.2511  0.2507
 1218DPPI   C4A18334   8.266   3.021   8.299  0.0164 -0.3338  0.0314
 1218DPPI   C1B18335   8.404   3.491   7.184 -0.3144 -0.0365 -0.1084
 1218DPPI   C2B18336   8.380   3.503   7.607 -0.0184  0.4305 -0.1729
 1218DPPI   C3B18337   8.364   3.474   8.053 -0.0729  0.1669  0.0266
 1218DPPI   C4B18338   8.372   3.459   8.377  0.0916 -0.1084  0.2882
 1219DPPI    C118339  15.788   2.572   5.937 -0.5671 -0.0284 -0.2157
 1219DPPI    C218340  15.658   2.510   5.563 -0.0814 -0.1331 -0.3750
 1219DPPI    C318341  16.040   2.436   5.657 -0.2016 -0.1278  0.1514
 1219DPPI   PO418342  15.702   2.767   6.068 -0.0484  0.1024 -0.0917
 1219DPPI   GL118343  15.510   2.955   6.471  0.1015 -0.1166 -0.2027
 1219DPPI   GL218344  15.866   3.113   6.360  0.0978 -0.2643 -0.2951
 1219DPPI   C1A18345  15.597   2.761   6.832  0.0731  0.2993  0.1711
 1219DPPI   C2A18346  15.696   2.729   7.154 -0.3719 -0.0737 -0.6087
 1219DPPI   C3A18347  15.718   2.779   7.677 -0.1391  0.0918  0.0833
 1219DPPI   C4A18348  15.697   2.889   8.022 -0.0978 -0.2324  0.1099
 1219DPPI   C1B18349  15.847   3.159   6.838 -0.0275  0.0595  0.0395
 1219DPPI   C2B18350  15.795   3.211   7.282  0.2788  0.1551 -0.2453
 1219DPPI   C3B18351  15.771   3.269   7.694  0.5860 -0.5388  0.3528
 1219DPPI   C4B18352  15.861   3.301   8.217  0.1802  0.0973  0.2184
 1220DPPI    C118353   3.213   2.840   5.636  0.2105  0.0434 -0.2799
 1220DPPI    C218354   2.970   2.964   5.344  0.3343  0.2110 -0.3131
 1220DPPI    C318355   3.154   2.610   5.314 -0.0049  0.0225 -0.2275
 1220DPPI   PO418356   3.064   2.997   5.927 -0.1433  0.0733  0.0424
 1220DPPI   GL118357   3.307   3.119   6.258 -0.1306 -0.0312 -0.3181
 1220DPPI   GL218358   3.199   3.032   6.390  0.0192 -0.3575 -0.2697
 1220DPPI   C1A18359   3.246   3.495   6.549  0.0849  0.2099 -0.2779
 1220DPPI   C2A18360   3.287   3.498   7.007  0.2025  0.5335  0.2595
 1220DPPI   C3A18361   3.310   3.457   7.410  0.1351 -0.0674  0.0321
 1220DPPI   C4A18362   3.247   3.509   7.920 -0.1991  0.1153 -0.0703
 1220DPPI   C1B18363   3.193   2.924   6.774  0.1093  0.0782 -0.4496
 1220DPPI   C2B18364   3.193   2.972   7.163 -0.1215 -0.1060  0.1306
 1220DPPI   C3B18365   3.172   2.961   7.549  0.0792  0.1405  0.0380
 1220DPPI   C4B18366   3.121   2.946   7.948 -0.2273 -0.0933  0.2434
 1221DPPI    C118367  11.313   0.656   6.160  0.0180 -0.2112  0.0736
 1221DPPI    C218368  10.952   0.509   6.070 -0.1318  0.1306  0.1005
 1221DPPI    C318369  11.091   0.828   5.875  0.1794 -0.0277  0.0574
 1221DPPI   PO418370  11.278   0.630   6.464 -0.0065 -0.0681 -0.2594
 1221DPPI   GL118371  11.522   0.656   6.799 -0.1695 -0.1995  0.1048
 1221DPPI   GL218372  11.443   0.984   6.753 -0.2702  0.0324  0.1514
 1221DPPI   C1A18373  11.421   0.499   7.209  0.0694 -0.0511 -0.3376
 1221DPPI   C2A18374  11.327   0.497   7.665 -0.0008 -0.2204  0.0143
 1221DPPI   C3A18375  11.286   0.471   8.078 -0.2629 -0.1174  0.0360
 1221DPPI   C4A18376  11.328   0.506   8.520  0.0647 -0.0901  0.1697
 1221DPPI   C1B18377  11.448   1.205   7.069  0.2257 -0.0008  0.2601
 1221DPPI   C2B18378  11.466   1.197   7.473 -0.0864  0.1104  0.3560
 1221DPPI   C3B18379  11.509   1.029   7.885 -0.1914  0.2646 -0.3635
 1221DPPI   C4B18380  11.465   0.948   8.255  0.1307 -0.2259 -0.0957
 1222DPPI    C118381  10.536   0.308   5.844 -0.1276  0.0299 -0.0841
 1222DPPI    C218382  10.206   0.413   5.644  0.0113 -0.0682 -0.3703
 1222DPPI    C318383  10.523   0.657   5.650 -0.0984  0.0716 -0.0115
 1222DPPI   PO418384  10.457   0.229   6.020  0.0284  0.2061 -0.0698
 1222DPPI   GL118385  10.465   0.340   6.400  0.0082  0.0661 -0.0098
 1222DPPI   GL218386  10.718   0.475   6.577 -0.0083 -0.2334 -0.0783
 1222DPPI   C1A18387  10.237   0.330   6.756 -0.1115  0.1342 -0.1619
 1222DPPI   C2A18388  10.165   0.297   7.200 -0.0586 -0.1707 -0.0222
 1222DPPI   C3A18389  10.185   0.338   7.640  0.0214 -0.0015 -0.1283
 1222DPPI   C4A18390  10.311   0.276   8.028 -0.4261 -0.1598 -0.1369
 1222DPPI   C1B18391  10.660   0.468   7.061  0.2011  0.0366 -0.0561
 1222DPPI   C2B18392  10.649   0.420   7.416 -0.0007  0.1035 -0.0421
 1222DPPI   C3B18393  10.811   0.419   7.847 -0.1230 -0.2110 -0.0227
 1222DPPI   C4B18394  10.813   0.326   8.329  0.0266 -0.1409 -0.2281
 1223DPPI    C118395   2.498  16.078   5.907 -0.0908 -0.0531 -0.1811
 1223DPPI    C218396   2.882  16.143   5.818 -0.0983  0.1776 -0.0544
 1223DPPI    C318397   2.611  16.110   5.525  0.0109  0.0527 -0.1427
 1223DPPI   PO418398   2.534  15.813   6.114  0.0213  0.3253  0.1866
 1223DPPI   GL118399   2.658  15.718   6.526  0.1862  0.0258 -0.0919
 1223DPPI   GL218400   2.710  15.914   6.735 -0.1834 -0.4341 -0.0068
 1223DPPI   C1A18401   2.628  15.453   6.890  0.3081  0.2060  0.1905
 1223DPPI   C2A18402   2.662  15.412   7.428 -0.0283  0.1098 -0.1323
 1223DPPI   C3A18403   2.793  15.587   7.806  0.0962  0.1023  0.2020
 1223DPPI   C4A18404   2.640  15.560   8.224 -0.0598 -0.2347  0.0280
 1223DPPI   C1B18405   2.790  15.903   7.231  0.0573 -0.0689  0.1365
 1223DPPI   C2B18406   2.940  16.048   7.701  0.1305  0.3408 -0.0546
 1223DPPI   C3B18407   2.881  16.120   8.088 -0.2352  0.0060  0.0240
 1223DPPI   C4B18408   2.865  16.287   8.476  0.1763 -0.1795  0.1684
 1224DPPI    C118409   6.219  12.707   5.940 -0.1458  0.0998  0.1159
 1224DPPI    C218410   6.305  12.856   5.579 -0.0759  0.0653  0.1181
 1224DPPI    C318411   6.436  12.492   5.682  0.1454  0.1886  0.2819
 1224DPPI   PO418412   6.282  12.992   6.120  0.0840 -0.0473  0.0187
 1224DPPI   GL118413   6.155  12.996   6.526  0.1401 -0.1346 -0.0860
 1224DPPI   GL218414   6.340  13.222   6.628 -0.1520  0.1374 -0.0592
 1224DPPI   C1A18415   5.951  13.160   6.933 -0.1813 -0.1997  0.0059
 1224DPPI   C2A18416   5.857  13.105   7.344  0.1781 -0.0500 -0.3174
 1224DPPI   C3A18417   5.846  13.103   7.746  0.0503  0.2187  0.1854
 1224DPPI   C4A18418   5.840  13.131   8.156  0.3289 -0.1237  0.0650
 1224DPPI   C1B18419   6.420  13.141   7.125 -0.3227 -0.2091 -0.4059
 1224DPPI   C2B18420   6.454  13.158   7.610  0.1708 -0.1414  0.1634
 1224DPPI   C3B18421   6.281  13.179   8.047  0.0009  0.0292  0.1004
 1224DPPI   C4B18422   6.432  13.156   8.448 -0.0065 -0.0820 -0.0909
 1225DPPI    C118423   2.509  12.692   6.154  0.2643  0.0529  0.3732
 1225DPPI    C218424   2.203  12.440   6.202  0.0594  0.1964 -0.1142
 1225DPPI    C318425   2.534  12.318   6.015  0.1303  0.1679  0.0283
 1225DPPI   PO418426   2.509  12.803   6.328  0.3050 -0.0090 -0.4826
 1225DPPI   GL118427   2.455  12.588   6.669 -0.3002  0.1366  0.1474
 1225DPPI   GL218428   2.576  12.329   6.500  0.0179 -0.0807 -0.3595
 1225DPPI   C1A18429   2.351  12.600   6.999 -0.0838  0.0901  0.0547
 1225DPPI   C2A18430   2.409  12.650   7.391  0.1483 -0.1458  0.0445
 1225DPPI   C3A18431   2.461  12.607   7.789 -0.1392  0.1637  0.2675
 1225DPPI   C4A18432   2.490  12.592   8.215 -0.0275 -0.1644 -0.0506
 1225DPPI   C1B18433   2.792  12.245   6.786  0.0996  0.1781  0.1463
 1225DPPI   C2B18434   2.708  12.254   7.208  0.2237  0.1393 -0.2125
 1225DPPI   C3B18435   2.873  12.282   7.555  0.0567 -0.0384  0.2222
 1225DPPI   C4B18436   2.818  12.238   8.026  0.1707 -0.1026  0.1496
 1226DPPI    C118437   2.611  17.039   5.803 -0.0026  0.0837 -0.1393
 1226DPPI    C218438   2.288  16.921   5.599 -0.0553  0.2270 -0.1395
 1226DPPI    C318439   2.646  16.923   5.422 -0.0753  0.1959 -0.1805
 1226DPPI   PO418440   2.651  16.899   6.125  0.0007  0.2649 -0.1243
 1226DPPI   GL118441   2.702  17.264   6.523  0.2113 -0.1518  0.0607
 1226DPPI   GL218442   3.020  17.195   6.385 -0.1669 -0.2344 -0.0755
 1226DPPI   C1A18443   2.717  17.361   6.983 -0.1153  0.0381  0.0204
 1226DPPI   C2A18444   2.789  17.342   7.429  0.2519  0.1316  0.3600
 1226DPPI   C3A18445   2.872  17.458   7.866 -0.1016  0.0858 -0.1169
 1226DPPI   C4A18446   2.948  17.433   8.320 -0.1959 -0.1752  0.0906
 1226DPPI   C1B18447   3.185  17.198   6.776 -0.1575 -0.1667  0.2650
 1226DPPI   C2B18448   3.130  17.134   7.177  0.0522 -0.1361 -0.1785
 1226DPPI   C3B18449   3.254  17.144   7.601  0.2609 -0.2246  0.0816
 1226DPPI   C4B18450   3.212  17.058   7.964  0.1760  0.1714 -0.0155
 1227DPPI    C118451   5.830   4.159   5.905 -0.1370 -0.2145  0.0886
 1227DPPI    C218452   5.694   4.485   6.091 -0.0861 -0.2160  0.1286
 1227DPPI    C318453   5.639   4.442   5.698  0.0548 -0.0798  0.0927
 1227DPPI   PO418454   6.041   4.075   6.056 -0.0470  0.1571  0.3275
 1227DPPI   GL118455   5.976   3.951   6.462  0.0352  0.0764 -0.2881
 1227DPPI   GL218456   6.317   4.110   6.571 -0.0450  0.0318 -0.0568
 1227DPPI   C1A18457   6.088   3.839   6.941  0.0155 -0.4624 -0.1132
 1227DPPI   C2A18458   5.985   3.846   7.476 -0.0318  0.0671 -0.2885
 1227DPPI   C3A18459   6.057   3.864   7.936  0.2594 -0.0501  0.1906
 1227DPPI   C4A18460   6.208   3.901   8.283 -0.1999 -0.0273  0.1533
 1227DPPI   C1B18461   6.256   4.333   6.890 -0.0126 -0.0785 -0.1790
 1227DPPI   C2B18462   6.223   4.313   7.358 -0.2916 -0.0518  0.2017
 1227DPPI   C3B18463   6.217   4.290   7.805 -0.2044  0.1036 -0.1005
 1227DPPI   C4B18464   6.291   4.412   8.183 -0.0910 -0.0455  0.0717
 1228PYPI    C118465  11.708   5.869   6.560 -0.0063 -0.1139  0.0348
 1228PYPI    C218466  11.745   6.107   6.240 -0.0516 -0.1323  0.0158
 1228PYPI    C318467  11.624   5.728   6.195 -0.0375 -0.1412  0.0524
 1228PYPI   PO418468  11.932   5.787   6.720  0.0706  0.2909 -0.0331
 1228PYPI   GL118469  12.140   5.923   7.010 -0.0326  0.3384 -0.0353
 1228PYPI   GL218470  12.210   5.490   7.016  0.1419 -0.0885  0.1618
 1228PYPI   C1A18471  12.203   6.002   7.447 -0.2770  0.1843  0.1928
 1228PYPI   C2A18472  12.300   6.123   7.856 -0.0748  0.0812 -0.1317
 1228PYPI   D3A18473  12.415   5.866   8.150  0.1181 -0.0072  0.1385
 1228PYPI   C4A18474  12.859   6.144   8.321 -0.0433 -0.2153 -0.2108
 1228PYPI   C1B18475  12.307   5.390   7.401  0.1593  0.0200 -0.0602
 1228PYPI   C2B18476  12.305   5.450   7.800 -0.2304 -0.0161  0.2521
 1228PYPI   C3B18477  12.210   5.339   8.286 -0.2755 -0.1136 -0.0005
 1228PYPI   C4B18478  12.379   5.328   8.654  0.2155 -0.1810  0.1157
 1229PYPI    C118479   7.438   2.031   5.796  0.1016 -0.3613  0.1291
 1229PYPI    C218480   7.831   2.082   5.847  0.0670  0.0129  0.0526
 1229PYPI    C318481   7.697   1.837   5.560  0.2429  0.0124 -0.0307
 1229PYPI   PO418482   7.411   2.120   6.159  0.0851  0.1563 -0.2187
 1229PYPI   GL118483   7.344   2.181   6.640  0.0234  0.1125  0.1458
 1229PYPI   GL218484   6.988   2.098   6.687 -0.1561  0.0042  0.0715
 1229PYPI   C1A18485   7.393   1.873   6.998  0.0183  0.0408 -0.0193
 1229PYPI   C2A18486   7.430   1.892   7.399 -0.0701  0.0566  0.0839
 1229PYPI   D3A18487   7.367   1.857   7.816  0.1257 -0.0028  0.1794
 1229PYPI   C4A18488   7.563   1.884   8.119  0.1250 -0.0461 -0.0446
 1229PYPI   C1B18489   7.062   2.192   7.123 -0.1100 -0.0053  0.1339
 1229PYPI   C2B18490   7.101   2.233   7.597 -0.1866  0.2908  0.1750
 1229PYPI   C3B18491   7.137   2.272   8.064  0.0509  0.0782 -0.0970
 1229PYPI   C4B18492   7.113   2.031   8.373  0.0191  0.0891  0.1948
 1230PYPI    C118493   9.011  15.536   5.998 -0.1311 -0.0436 -0.0887
 1230PYPI    C218494   8.933  15.241   5.738 -0.2514 -0.0667 -0.0269
 1230PYPI    C318495   9.051  15.600   5.605 -0.0373 -0.1625 -0.0993
 1230PYPI   PO418496   8.871  15.478   6.186  0.0984 -0.0305  0.2720
 1230PYPI   GL118497   8.883  15.369   6.601  0.0848  0.0221 -0.1612
 1230PYPI   GL218498   9.213  15.396   6.552 -0.1796 -0.1584  0.1622
 1230PYPI   C1A18499   8.791  15.227   7.068  0.1488 -0.1667  0.0593
 1230PYPI   C2A18500   8.783  15.262   7.490  0.0386  0.0335 -0.0742
 1230PYPI   D3A18501   8.793  15.354   7.918  0.3149 -0.1004  0.2247
 1230PYPI   C4A18502   8.858  15.170   8.294  0.0170 -0.0376 -0.0650
 1230PYPI   C1B18503   9.248  15.440   6.986 -0.3776 -0.4124  0.0438
 1230PYPI   C2B18504   9.216  15.448   7.378  0.1960  0.0496  0.3008
 1230PYPI   C3B18505   9.220  15.500   7.772 -0.3578  0.1545  0.2884
 1230PYPI   C4B18506   9.202  15.556   8.230  0.0301 -0.1414  0.0629
 1231PYPI    C118507   0.441   8.155   5.727 -0.2894 -0.0861 -0.1225
 1231PYPI    C218508   0.158   7.907   5.590 -0.2725 -0.1858  0.0217
 1231PYPI    C318509   0.544   7.829   5.519 -0.2727 -0.1396 -0.0306
 1231PYPI   PO418510   0.424   8.202   6.071 -0.2183 -0.0897  0.1180
 1231PYPI   GL118511   0.429   8.220   6.519  0.1179 -0.4688 -0.0372
 1231PYPI   GL218512   0.206   7.982   6.466 -0.1638 -0.0165  0.1739
 1231PYPI   C1A18513   0.387   8.397   6.913 -0.0743  0.1570 -0.0389
 1231PYPI   C2A18514   0.231   8.255   7.340 -0.0457  0.0835 -0.0278
 1231PYPI   D3A18515   0.345   8.325   7.810 -0.0304  0.0089 -0.3347
 1231PYPI   C4A18516   0.458   8.285   8.202  0.1319 -0.0368 -0.2081
 1231PYPI   C1B18517   0.258   7.896   6.863  0.1027  0.1397 -0.3143
 1231PYPI   C2B18518   0.152   7.740   7.232  0.0986 -0.2321  0.2184
 1231PYPI   C3B18519   0.252   7.833   7.647  0.2041 -0.1839  0.5629
 1231PYPI   C4B18520   0.206   7.871   8.127 -0.0356  0.1384  0.0652
 1232PYPI    C118521   2.567  14.802   6.129 -0.1611  0.0129 -0.0358
 1232PYPI    C218522   2.802  14.928   5.831 -0.0408 -0.1299 -0.0021
 1232PYPI    C318523   2.724  14.538   5.873 -0.2370 -0.0890  0.0221
 1232PYPI   PO418524   2.705  14.928   6.356 -0.0115  0.2516 -0.0419
 1232PYPI   GL118525   2.595  14.875   6.849 -0.1833 -0.0208 -0.0848
 1232PYPI   GL218526   2.820  14.584   6.746 -0.0935 -0.2683  0.2632
 1232PYPI   C1A18527   2.570  14.873   7.218 -0.2740  0.1434 -0.3006
 1232PYPI   C2A18528   2.450  14.684   7.646  0.2925  0.0062  0.2303
 1232PYPI   D3A18529   2.421  14.918   7.971  0.0696 -0.2648  0.3441
 1232PYPI   C4A18530   2.757  15.107   7.766  0.0558  0.1061  0.1137
 1232PYPI   C1B18531   3.012  14.641   7.152  0.0947  0.1562 -0.1706
 1232PYPI   C2B18532   3.004  14.727   7.600  0.0579 -0.1988  0.1558
 1232PYPI   C3B18533   2.950  14.738   8.033 -0.2186 -0.3758  0.0919
 1232PYPI   C4B18534   2.732  15.035   8.391 -0.1342  0.0289  0.0839
 1233PYPI    C118535   8.804  12.209   5.995  0.2171 -0.0256  0.0358
 1233PYPI    C218536   9.046  12.469   5.810  0.1699 -0.0926 -0.1214
 1233PYPI    C318537   8.649  12.500   5.768  0.1550 -0.0515  0.0450
 1233PYPI   PO418538   8.796  12.311   6.252  0.1950 -0.0432 -0.1143
 1233PYPI   GL118539   8.597  12.478   6.701 -0.1635 -0.1620  0.1160
 1233PYPI   GL218540   8.932  12.551   6.647  0.1554  0.0440 -0.0707
 1233PYPI   C1A18541   8.447  12.462   7.177  0.0199 -0.2720  0.0534
 1233PYPI   C2A18542   8.443  12.468   7.627 -0.0990  0.2255 -0.1056
 1233PYPI   D3A18543   8.518  12.325   8.037 -0.1616  0.3893 -0.0182
 1233PYPI   C4A18544   8.353  12.466   8.349  0.1531  0.1000  0.2091
 1233PYPI   C1B18545   8.970  12.504   7.083 -0.0778  0.0833  0.0482
 1233PYPI   C2B18546   9.018  12.568   7.534 -0.0800 -0.1634  0.1836
 1233PYPI   C3B18547   8.988  12.440   8.034  0.0545 -0.0639  0.0443
 1233PYPI   C4B18548   8.847  12.511   8.519 -0.1745  0.1275 -0.1101
 1234PYPI    C118549  12.654   5.228   6.585 -0.2146  0.0435 -0.0073
 1234PYPI    C218550  12.498   5.050   6.263  0.0430 -0.2184  0.0085
 1234PYPI    C318551  12.720   5.380   6.221 -0.0743 -0.1480 -0.0634
 1234PYPI   PO418552  12.871   5.056   6.669  0.0098  0.1323 -0.0178
 1234PYPI   GL118553  12.806   4.850   6.925 -0.1716  0.1106 -0.1873
 1234PYPI   GL218554  12.512   5.019   7.004  0.0573  0.0041 -0.1489
 1234PYPI   C1A18555  12.929   4.842   7.326  0.0817  0.3433 -0.1419
 1234PYPI   C2A18556  13.118   4.747   7.664 -0.1991 -0.1244  0.0677
 1234PYPI   D3A18557  13.396   4.507   7.808 -0.0811 -0.0572 -0.5694
 1234PYPI   C4A18558  13.878   4.616   7.919  0.0217 -0.0268 -0.4735
 1234PYPI   C1B18559  12.321   4.898   7.406  0.1950  0.0760 -0.0389
 1234PYPI   C2B18560  12.298   4.809   7.767 -0.0120  0.1212 -0.2784
 1234PYPI   C3B18561  12.295   4.829   8.177 -0.0411 -0.0158 -0.1453
 1234PYPI   C4B18562  12.382   4.828   8.687  0.0669  0.0567 -0.2307
 1235PYPI    C118563  11.634  14.445   6.302  0.1376 -0.1404  0.0541
 1235PYPI    C218564  11.396  14.241   6.053  0.0633 -0.0334  0.0370
 1235PYPI    C318565  11.597  14.560   5.921  0.0502  0.0033  0.1055
 1235PYPI   PO418566  11.793  14.225   6.441  0.2906  0.0419  0.0133
 1235PYPI   GL118567  11.896  14.200   6.784 -0.0314 -0.2977 -0.1470
 1235PYPI   GL218568  12.121  13.932   6.952 -0.0576 -0.2811 -0.2881
 1235PYPI   C1A18569  11.818  14.371   7.148  0.3143  0.0890 -0.1255
 1235PYPI   C2A18570  11.753  14.293   7.603  0.0946  0.1294  0.0216
 1235PYPI   D3A18571  11.803  14.291   8.062 -0.1252 -0.3012 -0.1777
 1235PYPI   C4A18572  11.859  14.270   8.444 -0.3109  0.1133  0.0299
 1235PYPI   C1B18573  12.166  13.956   7.437  0.0751  0.0431  0.1823
 1235PYPI   C2B18574  12.084  13.921   7.823  0.0636 -0.0602  0.2151
 1235PYPI   C3B18575  12.142  13.922   8.242  0.1923 -0.1562 -0.2772
 1235PYPI   C4B18576  12.214  13.992   8.731  0.1133 -0.2191 -0.0894
 1236PYPI    C118577   8.025   1.535   5.807 -0.0966  0.0699 -0.1653
 1236PYPI    C218578   7.778   1.232   5.892 -0.1136  0.2068  0.3028
 1236PYPI    C318579   7.802   1.373   5.518 -0.3318 -0.1674  0.1429
 1236PYPI   PO418580   8.027   1.641   6.040 -0.2201  0.2351 -0.3084
 1236PYPI   GL118581   8.001   1.932   6.434 -0.1131 -0.0854  0.0099
 1236PYPI   GL218582   7.765   1.550   6.561 -0.0505 -0.0869  0.3925
 1236PYPI   C1A18583   7.930   2.027   6.863  0.2852 -0.1290  0.1269
 1236PYPI   C2A18584   7.916   1.989   7.374 -0.2019 -0.1012 -0.0184
 1236PYPI   D3A18585   7.995   1.950   7.839 -0.1533 -0.2240  0.2595
 1236PYPI   C4A18586   8.064   2.019   8.226 -0.1140  0.2435  0.0300
 1236PYPI   C1B18587   7.760   1.505   6.984 -0.1186 -0.0795  0.0247
 1236PYPI   C2B18588   7.742   1.462   7.461 -0.2849  0.2524  0.1621
 1236PYPI   C3B18589   7.781   1.502   7.907 -0.2837 -0.3113  0.3684
 1236PYPI   C4B18590   7.889   1.543   8.358 -0.0094 -0.2133  0.0482
 1237PYPI    C118591   2.646   2.682   6.044  0.2657 -0.0155 -0.0693
 1237PYPI    C218592   2.883   2.541   5.755 -0.0152 -0.1666 -0.2303
 1237PYPI    C318593   2.636   2.846   5.679  0.2768  0.1335 -0.0034
 1237PYPI   PO418594   2.797   2.693   6.319  0.1689  0.0080  0.0805
 1237PYPI   GL118595   2.932   2.322   6.475 -0.0030 -0.4292 -0.0667
 1237PYPI   GL218596   2.888   2.071   6.565 -0.0477  0.0904 -0.3817
 1237PYPI   C1A18597   2.913   2.439   6.943 -0.0498  0.0482 -0.1131
 1237PYPI   C2A18598   3.028   2.495   7.361  0.0522  0.0302  0.1878
 1237PYPI   D3A18599   3.092   2.532   7.777  0.1835 -0.0569  0.1003
 1237PYPI   C4A18600   2.997   2.433   8.233  0.1773  0.1427  0.1857
 1237PYPI   C1B18601   2.824   1.927   7.047  0.1626 -0.2324 -0.1619
 1237PYPI   C2B18602   2.725   1.891   7.544 -0.2076 -0.0377  0.1123
 1237PYPI   C3B18603   2.961   2.008   7.893  0.0904 -0.1133 -0.2188
 1237PYPI   C4B18604   2.985   1.953   8.368 -0.2591 -0.1160  0.2116
 1238PYPI    C118605   1.816   9.506   6.117  0.0835  0.0889  0.0651
 1238PYPI    C218606   1.685   9.175   5.934  0.1163  0.0238  0.1581
 1238PYPI    C318607   1.510   9.527   5.860  0.1305 -0.0014  0.0014
 1238PYPI   PO418608   1.866   9.431   6.393 -0.1127  0.2085 -0.1010
 1238PYPI   GL118609   1.602   9.522   6.727 -0.0089 -0.0666  0.0405
 1238PYPI   GL218610   1.571   9.781   6.809  0.1193 -0.2650  0.2894
 1238PYPI   C1A18611   1.245   9.443   6.979  0.0414 -0.1583  0.0233
 1238PYPI   C2A18612   1.106   9.517   7.306 -0.1142  0.2992  0.0088
 1238PYPI   D3A18613   1.123   9.379   7.651  0.0541 -0.3179 -0.1161
 1238PYPI   C4A18614   1.093   9.524   8.002 -0.1737  0.2196  0.2659
 1238PYPI   C1B18615   1.632   9.641   7.203 -0.1254  0.2718 -0.1149
 1238PYPI   C2B18616   1.784   9.672   7.524 -0.0231 -0.2543  0.0880
 1238PYPI   C3B18617   1.619   9.612   7.805  0.1870  0.1697  0.1471
 1238PYPI   C4B18618   1.573   9.695   8.207 -0.0762  0.1744 -0.0219
 1239PYPI    C118619  17.183   5.749   5.658 -0.0213 -0.2103  0.2193
 1239PYPI    C218620  16.807   5.842   5.557  0.0353 -0.1218  0.0876
 1239PYPI    C318621  17.086   5.800   5.273  0.2001  0.1444  0.2054
 1239PYPI   PO418622  17.094   5.634   5.945  0.2378  0.1379 -0.1106
 1239PYPI   GL118623  16.888   5.574   6.392  0.0419 -0.0866  0.1796
 1239PYPI   GL218624  17.120   5.802   6.412 -0.2022 -0.2341  0.0037
 1239PYPI   C1A18625  16.778   5.323   6.752 -0.3331 -0.0567  0.0136
 1239PYPI   C2A18626  16.708   5.328   7.096 -0.0106 -0.0764 -0.2299
 1239PYPI   D3A18627  16.878   5.331   7.471  0.3240  0.0815 -0.1991
 1239PYPI   C4A18628  16.877   5.361   7.906 -0.2167  0.1207  0.0658
 1239PYPI   C1B18629  16.940   5.784   6.824  0.2366  0.1409 -0.1065
 1239PYPI   C2B18630  16.961   5.753   7.249  0.1627 -0.3509 -0.0436
 1239PYPI   C3B18631  17.083   5.885   7.763 -0.1454 -0.0217  0.2624
 1239PYPI   C4B18632  17.192   5.931   8.200  0.2028  0.0441  0.2630
 1240PYPI    C118633   1.206   5.947   5.598  0.1010 -0.0404  0.0790
 1240PYPI    C218634   1.534   6.135   5.468  0.0945 -0.0090  0.1077
 1240PYPI    C318635   1.183   6.199   5.288  0.0887  0.0208  0.1294
 1240PYPI   PO418636   1.280   5.901   5.927 -0.0322 -0.2631 -0.0442
 1240PYPI   GL118637   1.214   5.912   6.383  0.0419  0.0763  0.0071
 1240PYPI   GL218638   1.537   5.993   6.333 -0.1621  0.0776 -0.0193
 1240PYPI   C1A18639   1.225   5.837   6.939  0.0698 -0.0708 -0.1269
 1240PYPI   C2A18640   1.058   5.675   7.353 -0.1845 -0.2459  0.0286
 1240PYPI   D3A18641   1.097   5.707   7.790 -0.2378  0.0981 -0.1511
 1240PYPI   C4A18642   1.009   5.880   8.232  0.0446 -0.1220 -0.2122
 1240PYPI   C1B18643   1.629   5.930   6.699 -0.0233 -0.0267 -0.3405
 1240PYPI   C2B18644   1.636   5.899   7.168 -0.0718 -0.1517  0.1011
 1240PYPI   C3B18645   1.520   5.833   7.565  0.0073 -0.2471  0.0013
 1240PYPI   C4B18646   1.630   5.824   7.909 -0.2117 -0.2800 -0.2583
 1241PYPI    C118647  12.040   4.583   6.427  0.0649 -0.0666 -0.3448
 1241PYPI    C218648  11.692   4.642   6.239  0.0597  0.1349 -0.2739
 1241PYPI    C318649  11.943   4.359   6.110 -0.2361 -0.1782 -0.1779
 1241PYPI   PO418650  12.215   4.704   6.541  0.2076  0.3785  0.2698
 1241PYPI   GL118651  12.484   4.484   6.865  0.0082 -0.1624  0.5931
 1241PYPI   GL218652  12.495   4.077   6.811 -0.0909 -0.2054 -0.0747
 1241PYPI   C1A18653  12.514   4.437   7.336 -0.0309 -0.1577 -0.2640
 1241PYPI   C2A18654  12.664   4.538   7.654 -0.1495 -0.0525 -0.4266
 1241PYPI   D3A18655  12.763   4.382   7.977  0.2935  0.0183 -0.0462
 1241PYPI   C4A18656  12.711   4.588   8.254  0.2272  0.1869 -0.0555
 1241PYPI   C1B18657  12.325   3.958   7.225 -0.0364 -0.3648 -0.3374
 1241PYPI   C2B18658  12.107   3.784   7.607  0.1845  0.0842 -0.2213
 1241PYPI   C3B18659  12.130   3.758   8.074 -0.1815 -0.3721  0.3161
 1241PYPI   C4B18660  12.205   3.579   8.486 -0.3602  0.0966  0.0371
 1242PYPI    C118661   8.582   8.231   6.124  0.0246 -0.1184  0.1126
 1242PYPI    C218662   8.432   7.864   6.176 -0.3129 -0.0342 -0.2229
 1242PYPI    C318663   8.448   8.024   5.809 -0.0122  0.2240 -0.1024
 1242PYPI   PO418664   8.408   8.334   6.347 -0.2553  0.2297 -0.1845
 1242PYPI   GL118665   8.522   8.601   6.675  0.1738 -0.0543 -0.0904
 1242PYPI   GL218666   8.847   8.727   6.656  0.2195  0.1233 -0.2609
 1242PYPI   C1A18667   8.340   8.630   7.060 -0.0972 -0.1196 -0.0644
 1242PYPI   C2A18668   8.368   8.641   7.548  0.1709  0.1289  0.0687
 1242PYPI   D3A18669   8.371   8.796   7.946  0.3067 -0.1421 -0.0212
 1242PYPI   C4A18670   8.293   8.795   8.401  0.0683  0.3664 -0.1288
 1242PYPI   C1B18671   8.835   8.784   7.092 -0.0510 -0.1587  0.2133
 1242PYPI   C2B18672   8.899   8.837   7.577 -0.1723 -0.2284  0.1436
 1242PYPI   C3B18673   8.906   8.892   7.967  0.2373 -0.2647 -0.1095
 1242PYPI   C4B18674   8.783   8.652   8.356  0.2286 -0.3287 -0.2107
 1243PYPI    C118675  10.069   5.711   6.248  0.1687  0.0372 -0.1384
 1243PYPI    C218676   9.978   5.321   6.241  0.0986  0.0504  0.0169
 1243PYPI    C318677  10.182   5.484   5.938  0.2445 -0.1352  0.0137
 1243PYPI   PO418678  10.137   5.757   6.420 -0.0547  0.1383 -0.0016
 1243PYPI   GL118679  10.362   5.881   6.783 -0.2602 -0.0075 -0.1912
 1243PYPI   GL218680  10.578   5.638   6.892 -0.0942 -0.0600  0.1304
 1243PYPI   C1A18681  10.380   6.098   7.176 -0.0059 -0.0991  0.0064
 1243PYPI   C2A18682  10.396   6.047   7.639  0.0074  0.1122 -0.0484
 1243PYPI   D3A18683  10.143   6.160   8.023 -0.3284 -0.1828 -0.0956
 1243PYPI   C4A18684  10.142   6.241   8.510  0.0190  0.2739 -0.1000
 1243PYPI   C1B18685  10.629   5.677   7.369  0.0146 -0.1001  0.1790
 1243PYPI   C2B18686  10.777   5.722   7.700  0.1659  0.4864  0.2050
 1243PYPI   C3B18687  11.016   5.738   8.188 -0.0424  0.2053 -0.1055
 1243PYPI   C4B18688  11.207   5.867   8.652 -0.0026  0.0294  0.0209
 1244PYPI    C118689  16.050   3.320   5.734 -0.1155  0.0247 -0.1930
 1244PYPI    C218690  15.822   3.005   5.643 -0.0443 -0.0975  0.0422
 1244PYPI    C318691  16.202   3.019   5.520 -0.1261  0.0277 -0.2049
 1244PYPI   PO418692  15.897   3.375   5.953 -0.0906 -0.0851 -0.0017
 1244PYPI   GL118693  15.749   3.636   6.222 -0.1434  0.0777 -0.3083
 1244PYPI   GL218694  15.436   3.482   6.457 -0.0792  0.4938  0.0822
 1244PYPI   C1A18695  15.934   3.598   6.614 -0.3445 -0.2493 -0.1672
 1244PYPI   C2A18696  15.821   3.672   7.082  0.1133 -0.0065  0.2761
 1244PYPI   D3A18697  15.802   3.760   7.458 -0.0992 -0.2378 -0.1959
 1244PYPI   C4A18698  15.974   3.737   7.856 -0.1087 -0.1318  0.1755
 1244PYPI   C1B18699  15.424   3.639   6.765 -0.0020  0.0694  0.1849
 1244PYPI   C2B18700  15.356   3.548   7.214 -0.1670 -0.0916  0.1605
 1244PYPI   C3B18701  15.352   3.581   7.667 -0.0759  0.1336 -0.3179
 1244PYPI   C4B18702  15.512   3.661   8.116  0.2303  0.0104 -0.0960
 1245PYPI    C118703   9.812   7.838   5.849  0.2925  0.0669 -0.1053
 1245PYPI    C218704   9.881   8.210   5.978 -0.0596  0.1737 -0.2143
 1245PYPI    C318705   9.636   8.148   5.668 -0.1257 -0.1601 -0.0986
 1245PYPI   PO418706   9.781   7.661   6.171 -0.0958  0.4388 -0.2195
 1245PYPI   GL118707  10.021   7.603   6.512  0.1181  0.2966  0.0025
 1245PYPI   GL218708  10.183   7.396   6.523 -0.0384 -0.0364 -0.0879
 1245PYPI   C1A18709   9.972   7.813   6.887  0.0867  0.1732  0.2620
 1245PYPI   C2A18710   9.912   7.791   7.441  0.1714  0.0558  0.0312
 1245PYPI   D3A18711   9.974   7.628   7.887 -0.3163  0.0301 -0.1187
 1245PYPI   C4A18712   9.817   7.221   8.075 -0.2075  0.1091  0.0479
 1245PYPI   C1B18713  10.085   7.353   6.890 -0.0645  0.4394 -0.0799
 1245PYPI   C2B18714   9.964   7.266   7.353 -0.2262  0.0721  0.5680
 1245PYPI   C3B18715   9.864   7.066   7.619  0.2025 -0.0603  0.1499
 1245PYPI   C4B18716   9.854   6.607   7.752  0.1885 -0.0998 -0.1626
 1246PYPI    C118717   7.954   6.939   6.147  0.2468 -0.0524 -0.0161
 1246PYPI    C218718   8.147   7.159   5.874  0.0147  0.1644 -0.0085
 1246PYPI    C318719   7.876   6.889   5.758  0.1496  0.0272 -0.0072
 1246PYPI   PO418720   8.194   6.972   6.385  0.3129 -0.1166 -0.0914
 1246PYPI   GL118721   8.457   6.875   6.749  0.0615  0.2523  0.2342
 1246PYPI   GL218722   8.557   6.529   6.763  0.2157 -0.0476 -0.1223
 1246PYPI   C1A18723   8.101   7.048   7.042  0.0052  0.0937 -0.0628
 1246PYPI   C2A18724   8.074   7.014   7.538  0.3147 -0.2005  0.2081
 1246PYPI   D3A18725   7.929   7.039   8.063  0.1706  0.0990 -0.1589
 1246PYPI   C4A18726   8.020   7.325   8.309 -0.0899  0.2738  0.3140
 1246PYPI   C1B18727   8.417   6.746   7.265  0.1417 -0.2173 -0.2302
 1246PYPI   C2B18728   8.371   6.689   7.690 -0.2743 -0.5659 -0.0934
 1246PYPI   C3B18729   8.425   6.620   8.227  0.0409  0.1237 -0.1195
 1246PYPI   C4B18730   8.645   6.337   8.515  0.1390  0.0627  0.0566
 1247PYPI    C118731  11.049  13.874   6.165  0.2330  0.2251  0.1121
 1247PYPI    C218732  10.878  14.216   6.047 -0.0888  0.0080 -0.0621
 1247PYPI    C318733  10.770  13.869   5.879  0.2504 -0.1793  0.0974
 1247PYPI   PO418734  10.906  13.830   6.382 -0.2185  0.0688 -0.0525
 1247PYPI   GL118735  10.809  13.938   6.758 -0.4540  0.1496  0.0118
 1247PYPI   GL218736  10.859  14.295   6.548  0.3352 -0.1148  0.0785
 1247PYPI   C1A18737  10.756  13.962   7.245  0.0334 -0.0804 -0.0404
 1247PYPI   C2A18738  10.633  13.995   7.617  0.0130 -0.3078  0.0885
 1247PYPI   D3A18739  10.666  14.027   8.041 -0.2318  0.0115  0.1357
 1247PYPI   C4A18740  10.855  13.936   8.388  0.0659  0.1240  0.1815
 1247PYPI   C1B18741  10.918  14.387   6.897  0.1739 -0.1831 -0.3793
 1247PYPI   C2B18742  10.887  14.536   7.349  0.4653  0.0192 -0.0644
 1247PYPI   C3B18743  10.808  14.491   7.757 -0.0917 -0.3788  0.3018
 1247PYPI   C4B18744  10.871  14.526   8.230 -0.3586  0.3158  0.0697
 1248ERGO   ROH18745  11.551   4.713   7.216  0.0104  0.0028  0.1185
 1248ERGO    R118746  11.709   4.725   7.451  0.0131 -0.0478  0.1198
 1248ERGO    R218747  11.605   4.790   7.698  0.0251 -0.0529  0.1264
 1248ERGO    R318748  11.719   4.555   7.772 -0.0167 -0.0801  0.1039
 1248ERGO    R418749  11.629   4.678   8.023  0.0765 -0.0463  0.1245
 1248ERGO    R518750  11.830   4.606   7.979  0.0482 -0.1003  0.0752
 1248ERGO    C118751  11.750   4.391   8.284  0.0671 -0.0680  0.1022
 1248ERGO    C218752  11.598   4.360   8.703  0.1737  0.3497 -0.0611
 1249ERGO   ROH18753   2.264  15.158   6.546 -0.0080 -0.0624  0.0018
 1249ERGO    R118754   2.133  15.195   6.794 -0.0185 -0.0983  0.0015
 1249ERGO    R218755   2.164  15.022   7.006  0.0966 -0.0427  0.0290
 1249ERGO    R318756   2.232  15.249   7.140 -0.0337  0.0215 -0.0118
 1249ERGO    R418757   2.135  15.067   7.348  0.2991 -0.0925  0.0545
 1249ERGO    R518758   2.065  15.270   7.310  0.0651 -0.1569  0.1122
 1249ERGO    C118759   2.181  15.306   7.672  0.2947 -0.0612  0.0310
 1249ERGO    C218760   2.272  15.465   7.972  0.1666 -0.0436  0.0127
 1250ERGO   ROH18761  14.865   5.215   6.687  0.1030  0.2163  0.0123
 1250ERGO    R118762  15.035   5.257   6.909  0.0546 -0.2160  0.1382
 1250ERGO    R218763  15.011   5.477   7.076  0.5668 -0.0754  0.0298
 1250ERGO    R318764  14.995   5.287   7.270 -0.1613  0.0231  0.1008
 1250ERGO    R418765  14.980   5.542   7.414  0.5262  0.1727 -0.0184
 1250ERGO    R518766  15.119   5.379   7.453  0.0152 -0.2712  0.1465
 1250ERGO    C118767  14.947   5.402   7.793 -0.1808  0.4095  0.0201
 1250ERGO    C218768  15.055   5.391   8.052 -0.0747  0.1337 -0.0658
 1251ERGO   ROH18769  13.195   5.978   6.777  0.3293  0.3379  0.0990
 1251ERGO    R118770  13.085   5.953   7.036  0.1577  0.1121  0.0066
 1251ERGO    R218771  13.141   5.739   7.201  0.2707  0.1098 -0.0437
 1251ERGO    R318772  13.213   5.933   7.377 -0.0805  0.1203  0.0998
 1251ERGO    R418773  13.182   5.692   7.541  0.3607 -0.0728 -0.0769
 1251ERGO    R518774  13.086   5.885   7.574  0.0027 -0.2628  0.0707
 1251ERGO    C118775  13.274   5.847   7.904  0.0834 -0.1692  0.0384
 1251ERGO    C218776  13.236   5.708   8.241 -0.1016  0.0789 -0.0311
 1252ERGO   ROH18777  16.134   9.853   6.848  0.0800  0.2192 -0.0101
 1252ERGO    R118778  16.193   9.920   7.117 -0.0885  0.1563  0.0441
 1252ERGO    R218779  15.999   9.930   7.314 -0.1681 -0.1837 -0.0093
 1252ERGO    R318780  16.166   9.758   7.441  0.0058 -0.0454 -0.0474
 1252ERGO    R418781  16.028   9.901   7.657 -0.1053 -0.2005 -0.0162
 1252ERGO    R518782  16.243   9.880   7.632 -0.0883  0.0026 -0.0403
 1252ERGO    C118783  16.203   9.722   7.976  0.0945 -0.0804 -0.0560
 1252ERGO    C218784  16.202   9.696   8.306 -0.1005 -0.0322 -0.2510
 1253ERGO   ROH18785  13.093   0.095   6.967 -0.0666  0.0138 -0.0236
 1253ERGO    R118786  13.214   0.141   7.219  0.0500 -0.0890 -0.0611
 1253ERGO    R218787  13.075   0.243   7.435  0.2070  0.0411 -0.0244
 1253ERGO    R318788  13.169   0.021   7.559  0.0451 -0.0399 -0.0434
 1253ERGO    R418789  13.069   0.192   7.776  0.3679  0.1205 -0.0080
 1253ERGO    R518790  13.268   0.103   7.761  0.2678 -0.1027 -0.1212
 1253ERGO    C118791  13.154  -0.047   8.092  0.3097  0.0909 -0.0164
 1253ERGO    C218792  13.032  -0.053   8.394 -0.1453 -0.0571 -0.0657
 1254ERGO   ROH18793   2.024   9.090   6.745 -0.1188  0.0110  0.0502
 1254ERGO    R118794   2.126   9.095   7.010 -0.1922 -0.0593  0.0815
 1254ERGO    R218795   2.168   9.330   7.149  0.0395 -0.0741  0.0532
 1254ERGO    R318796   2.011   9.209   7.335 -0.1639  0.1370  0.0222
 1254ERGO    R418797   2.182   9.389   7.489 -0.0388 -0.0150  0.0456
 1254ERGO    R518798   2.155   9.176   7.523 -0.2793  0.0251  0.0868
 1254ERGO    C118799   2.043   9.309   7.862 -0.2755  0.2176  0.0119
 1254ERGO    C218800   1.940   9.261   8.227 -0.1169 -0.1193 -0.0530
 1255ERGO   ROH18801   9.525   8.343   6.613 -0.1003  0.4245  0.1358
 1255ERGO    R118802   9.624   8.227   6.852  0.1092  0.2802 -0.0161
 1255ERGO    R218803   9.839   8.332   6.989  0.0660  0.3600  0.0037
 1255ERGO    R318804   9.666   8.331   7.198  0.1400 -0.0197  0.0711
 1255ERGO    R418805   9.910   8.452   7.305  0.0183  0.2128  0.0702
 1255ERGO    R518806   9.802   8.282   7.389  0.2674  0.0119 -0.0159
 1255ERGO    C118807   9.789   8.521   7.686  0.0601 -0.2293  0.1721
 1255ERGO    C218808   9.778   8.627   8.112 -0.1594  0.4113 -0.1268
 1256ERGO   ROH18809  10.010   5.092   7.156 -0.3032 -0.0570 -0.0691
 1256ERGO    R118810   9.748   5.123   7.258 -0.2668 -0.1080  0.0438
 1256ERGO    R218811   9.621   4.928   7.406 -0.1284 -0.0927  0.1866
 1256ERGO    R318812   9.590   5.130   7.585 -0.1114 -0.0292  0.1179
 1256ERGO    R418813   9.483   4.892   7.721  0.0673 -0.0164  0.2829
 1256ERGO    R518814   9.380   5.083   7.691 -0.0306 -0.0735  0.2592
 1256ERGO    C118815   9.372   5.061   8.072  0.1972  0.0876  0.2745
 1256ERGO    C218816   9.204   5.010   8.417  0.0627 -0.4315 -0.0295
 1257ERGO   ROH18817  11.130   5.645   7.026  0.1313 -0.3998 -0.1840
 1257ERGO    R118818  11.132   5.667   7.308 -0.0704 -0.2850 -0.1901
 1257ERGO    R218819  11.364   5.649   7.457 -0.1904 -0.3205 -0.0112
 1257ERGO    R318820  11.281   5.889   7.555 -0.1636 -0.2461 -0.1664
 1257ERGO    R418821  11.436   5.769   7.773 -0.4827 -0.2981  0.0500
 1257ERGO    R518822  11.232   5.846   7.785 -0.4599 -0.1700 -0.2069
 1257ERGO    C118823  11.400   6.064   8.049 -0.6278 -0.2152 -0.0601
 1257ERGO    C218824  11.447   6.191   8.387 -0.0444  0.1439 -0.0940
 1258ERGO   ROH18825  12.245  10.756   6.734 -0.1428  0.0400 -0.2325
 1258ERGO    R118826  12.131  10.673   6.980 -0.1885  0.0324 -0.2576
 1258ERGO    R218827  12.264  10.511   7.159 -0.2384 -0.0005 -0.2582
 1258ERGO    R318828  12.207  10.711   7.334 -0.2364 -0.0137 -0.2405
 1258ERGO    R418829  12.249  10.475   7.502 -0.5681 -0.1175 -0.2805
 1258ERGO    R518830  12.075  10.606   7.503 -0.4733  0.0224 -0.3919
 1258ERGO    C118831  12.187  10.642   7.866 -0.7582 -0.1983 -0.2768
 1258ERGO    C218832  12.122  10.670   8.246 -0.0279  0.1643  0.0939
 1259ERGO   ROH18833  13.087  11.841   6.779  0.0941 -0.1233  0.0416
 1259ERGO    R118834  12.955  11.874   7.028 -0.0022 -0.1013 -0.0129
 1259ERGO    R218835  12.906  11.662   7.200  0.0300 -0.0661  0.0334
 1259ERGO    R318836  13.036  11.821   7.379 -0.0988  0.0426  0.0332
 1259ERGO    R418837  12.893  11.625   7.543  0.1801 -0.1786  0.0285
 1259ERGO    R518838  12.883  11.841   7.562 -0.0718 -0.1891  0.0884
 1259ERGO    C118839  13.007  11.751   7.911  0.1465 -0.1421  0.0254
 1259ERGO    C218840  13.007  11.750   8.245 -0.0994  0.0397  0.3267
 1260ERGO   ROH18841  14.637  11.886   6.763  0.0958  0.0893  0.0251
 1260ERGO    R118842  14.705  11.772   7.013 -0.0418  0.0371  0.0395
 1260ERGO    R218843  14.918  11.861   7.165  0.0796 -0.2088  0.0206
 1260ERGO    R318844  14.728  11.884   7.358  0.1105  0.0597  0.0226
 1260ERGO    R418845  14.973  11.809   7.502  0.0359 -0.1645  0.0346
 1260ERGO    R518846  14.780  11.709   7.513 -0.0760  0.0496  0.0751
 1260ERGO    C118847  14.827  11.801   7.880  0.0395  0.1131  0.0446
 1260ERGO    C218848  14.774  11.785   8.250 -0.1752  0.1527 -0.0350
 1261ERGO   ROH18849  14.612   6.475   6.546  0.0141 -0.1113  0.0450
 1261ERGO    R118850  14.750   6.481   6.793 -0.0726 -0.2309  0.0981
 1261ERGO    R218851  14.845   6.716   6.904  0.2165 -0.3243  0.0629
 1261ERGO    R318852  14.700   6.634   7.119  0.0095 -0.0573  0.0297
 1261ERGO    R418853  14.950   6.738   7.233  0.0790 -0.3142  0.1066
 1261ERGO    R518854  14.863   6.541   7.269 -0.1779 -0.1932  0.1505
 1261ERGO    C118855  14.875   6.674   7.626 -0.1955 -0.0576  0.1008
 1261ERGO    C218856  14.983   6.753   7.997  0.2766  0.0179 -0.0815
 1262ERGO   ROH18857  17.112  10.087   6.991  0.2382  0.0399  0.0262
 1262ERGO    R118858  17.215  10.109   7.254  0.0326  0.0926  0.1029
 1262ERGO    R218859  17.090  10.258   7.451 -0.2671 -0.0900  0.0498
 1262ERGO    R318860  17.103  10.025   7.590 -0.1072 -0.1080  0.0091
 1262ERGO    R418861  17.126  10.234   7.794 -0.2242 -0.1197  0.0443
 1262ERGO    R518862  17.263  10.067   7.763 -0.1168 -0.0312  0.0039
 1262ERGO    C118863  17.159  10.001   8.124 -0.0494 -0.1540  0.0030
 1262ERGO    C218864  17.163   9.991   8.431 -0.1334 -0.1691  0.0065
 1263ERGO   ROH18865   9.640   2.577   6.879  0.1479  0.0375  0.1242
 1263ERGO    R118866   9.518   2.610   7.132  0.1574 -0.0422  0.1392
 1263ERGO    R218867   9.411   2.398   7.274  0.1928 -0.0921  0.0916
 1263ERGO    R318868   9.575   2.490   7.471  0.1915 -0.1202  0.1061
 1263ERGO    R418869   9.390   2.308   7.607  0.2886 -0.2576  0.0538
 1263ERGO    R518870   9.431   2.515   7.661  0.2158 -0.2666  0.1443
 1263ERGO    C118871   9.532   2.341   7.986  0.3431 -0.3804  0.0456
 1263ERGO    C218872   9.456   2.326   8.412 -0.1470 -0.0557 -0.0716
 1264ERGO   ROH18873   3.005   8.880   6.440  0.0903 -0.1097  0.0188
 1264ERGO    R118874   3.102   8.724   6.655 -0.0386 -0.1353  0.0598
 1264ERGO    R218875   3.302   8.812   6.824  0.0341 -0.2550  0.0373
 1264ERGO    R318876   3.120   8.753   7.017 -0.0157 -0.0554  0.0525
 1264ERGO    R418877   3.379   8.735   7.152 -0.0109 -0.4383  0.0062
 1264ERGO    R518878   3.224   8.582   7.148 -0.2221 -0.2311 -0.0057
 1264ERGO    C118879   3.254   8.636   7.525 -0.0840 -0.3576  0.0023
 1264ERGO    C218880   3.318   8.654   7.984  0.2682 -0.1240  0.2529
 1265ERGO   ROH18881   5.006  11.996   6.532 -0.2115 -0.2785 -0.1124
 1265ERGO    R118882   4.986  11.853   6.776 -0.0930 -0.1935 -0.0517
 1265ERGO    R218883   5.192  11.843   6.960 -0.0167 -0.0961 -0.1296
 1265ERGO    R318884   5.000  11.932   7.131  0.0378 -0.0621 -0.0855
 1265ERGO    R418885   5.239  11.902   7.297  0.0776 -0.0679 -0.1474
 1265ERGO    R518886   5.043  11.815   7.335  0.0807 -0.0456 -0.0862
 1265ERGO    C118887   5.086  12.020   7.654  0.1837 -0.0196 -0.1163
 1265ERGO    C218888   5.118  12.068   7.997  0.0008 -0.1279 -0.0357
 1266ERGO   ROH18889  15.225  12.843   6.898 -0.0069  0.1222 -0.1973
 1266ERGO    R118890  15.089  12.844   7.146  0.0783  0.0833 -0.1509
 1266ERGO    R218891  15.152  12.669   7.351  0.2003  0.1045 -0.1738
 1266ERGO    R318892  15.176  12.899   7.495  0.1806  0.1114 -0.1798
 1266ERGO    R418893  15.139  12.688   7.696  0.3341  0.0932 -0.1669
 1266ERGO    R518894  15.022  12.870   7.677  0.2623  0.0548 -0.1169
 1266ERGO    C118895  15.154  12.913   8.032  0.3936  0.0930 -0.1685
 1266ERGO    C218896  15.138  12.713   8.262 -0.0526  0.3582 -0.2070
 1267ERGO   ROH18897  15.313   5.329   6.568  0.1650 -0.3637  0.0140
 1267ERGO    R118898  15.490   5.436   6.760  0.0329 -0.2092  0.0522
 1267ERGO    R218899  15.410   5.619   6.951 -0.1677 -0.2813  0.0403
 1267ERGO    R318900  15.517   5.438   7.124 -0.0425 -0.1916  0.0576
 1267ERGO    R418901  15.418   5.656   7.294 -0.2187 -0.2553  0.0384
 1267ERGO    R518902  15.620   5.572   7.293 -0.1550 -0.1035  0.0569
 1267ERGO    C118903  15.522   5.508   7.657 -0.1310 -0.1559  0.0536
 1267ERGO    C218904  15.565   5.475   7.978 -0.1555 -0.0275  0.1552
 1268ERGO   ROH18905   0.709   5.784   6.473  0.3358  0.0755  0.0257
 1268ERGO    R118906   0.770   5.951   6.694 -0.0176  0.1753  0.0533
 1268ERGO    R218907   0.580   6.025   6.881 -0.1789 -0.2904  0.0915
 1268ERGO    R318908   0.760   5.923   7.056  0.0812  0.0749  0.0481
 1268ERGO    R418909   0.568   6.068   7.223 -0.0695 -0.1647  0.0802
 1268ERGO    R518910   0.784   6.093   7.223 -0.1072  0.1868 -0.0379
 1268ERGO    C118911   0.731   5.996   7.588  0.2383  0.2514  0.0329
 1268ERGO    C218912   0.729   6.119   7.884 -0.0321  0.0333  0.1293
 1269ERGO   ROH18913   2.683  13.976   6.672  0.0530 -0.0335  0.0386
 1269ERGO    R118914   2.819  14.063   6.905 -0.0843  0.2573  0.0133
 1269ERGO    R218915   2.711  14.247   7.080 -0.5184 -0.0818  0.1112
 1269ERGO    R318916   2.761  14.053   7.264  0.0750 -0.0187  0.0355
 1269ERGO    R418917   2.747  14.301   7.420 -0.5170 -0.0770  0.1108
 1269ERGO    R518918   2.910  14.157   7.420 -0.1198  0.3405 -0.0004
 1269ERGO    C118919   2.815  14.150   7.790  0.0408 -0.0149  0.0395
 1269ERGO    C218920   2.886  14.176   8.134  0.1391  0.1838  0.1243
 1270ERGO   ROH18921  15.474  11.829   6.570 -0.0064  0.3155  0.1464
 1270ERGO    R118922  15.501  11.868   6.849  0.0025  0.1169  0.1754
 1270ERGO    R218923  15.349  11.729   7.033 -0.0218  0.0114  0.0839
 1270ERGO    R318924  15.592  11.664   7.136 -0.0302 -0.1020  0.0316
 1270ERGO    R418925  15.416  11.687   7.370  0.0309 -0.0604  0.0639
 1270ERGO    R518926  15.606  11.790   7.340  0.0640 -0.1375  0.0432
 1270ERGO    C118927  15.683  11.601   7.662  0.0537 -0.2087  0.0031
 1270ERGO    C218928  15.742  11.589   7.998  0.0438 -0.2969  0.0764
 1271ERGO   ROH18929  11.299  14.153   7.089 -0.1694  0.0682  0.1386
 1271ERGO    R118930  11.307  14.230   7.361 -0.2337  0.0007  0.1589
 1271ERGO    R218931  11.119  14.144   7.545 -0.2238 -0.1158  0.1095
 1271ERGO    R318932  11.339  14.061   7.682 -0.2128 -0.0684  0.1222
 1271ERGO    R418933  11.145  14.135   7.890 -0.2476 -0.1027  0.1122
 1271ERGO    R518934  11.349  14.208   7.872 -0.2573 -0.0586  0.1215
 1271ERGO    C118935  11.366  14.052   8.219 -0.2512 -0.0505  0.1257
 1271ERGO    C218936  11.329  14.061   8.592  0.2573 -0.3952  0.2659
 1272ERGO   ROH18937   9.622  15.053   6.574 -0.0578 -0.1558  0.1233
 1272ERGO    R118938   9.652  14.983   6.847  0.0404  0.0171  0.1573
 1272ERGO    R218939   9.823  15.119   7.018 -0.0529  0.2551  0.0582
 1272ERGO    R318940   9.598  15.145   7.168 -0.0525  0.1437  0.0803
 1272ERGO    R418941   9.810  15.093   7.362  0.0297  0.4145  0.0754
 1272ERGO    R518942   9.623  14.983   7.343  0.1127  0.2469  0.1581
 1272ERGO    C118943   9.591  15.101   7.704  0.0782  0.4028  0.1062
 1272ERGO    C218944   9.680  15.146   7.959  0.0519  0.1191 -0.0248
 1273ERGO   ROH18945   5.768   0.265   6.401 -0.0151  0.0766  0.1487
 1273ERGO    R118946   5.746   0.421   6.636 -0.0971 -0.0031  0.1953
 1273ERGO    R218947   5.550   0.376   6.826 -0.0913 -0.1463  0.1756
 1273ERGO    R318948   5.762   0.362   6.995 -0.0919 -0.1062  0.1768
 1273ERGO    R418949   5.532   0.414   7.169 -0.0940 -0.1490  0.1750
 1273ERGO    R518950   5.718   0.528   7.161 -0.1193 -0.1179  0.1760
 1273ERGO    C118951   5.722   0.422   7.528 -0.0960 -0.1129  0.1758
 1273ERGO    C218952   5.738   0.374   7.861 -0.0140  0.0155 -0.0893
 1274ERGO   ROH18953   2.122   0.751   6.421  0.0817  0.0063 -0.0016
 1274ERGO    R118954   2.032   0.823   6.679 -0.0322 -0.1285 -0.0043
 1274ERGO    R218955   1.928   0.639   6.858  0.3187 -0.3018  0.0165
 1274ERGO    R318956   2.120   0.739   7.022  0.1493  0.0695  0.0029
 1274ERGO    R418957   1.902   0.659   7.202  0.3059 -0.3971  0.0231
 1274ERGO    R518958   1.998   0.855   7.192 -0.0794 -0.1875  0.0314
 1274ERGO    C118959   2.068   0.765   7.556  0.1394 -0.1040  0.0141
 1274ERGO    C218960   2.087   0.860   7.913  0.2509 -0.0645  0.0616
 1275ERGO   ROH18961   4.598   1.408   6.503 -0.0339 -0.2289 -0.0683
 1275ERGO    R118962   4.553   1.543   6.748  0.0988 -0.1179 -0.1025
 1275ERGO    R218963   4.417   1.426   6.960  0.0497  0.0426 -0.0411
 1275ERGO    R318964   4.642   1.493   7.097  0.1205 -0.0698 -0.1014
 1275ERGO    R418965   4.438   1.451   7.303  0.1167  0.1742 -0.0549
 1275ERGO    R518966   4.563   1.628   7.278  0.2490  0.0684 -0.1477
 1275ERGO    C118967   4.661   1.529   7.633  0.2222  0.1452 -0.1196
 1275ERGO    C218968   4.612   1.494   7.864  0.1859  0.0053  0.0320
 1276ERGO   ROH18969   3.292  15.640   6.631  0.2492  0.0853 -0.0650
 1276ERGO    R118970   3.239  15.748   6.888  0.2618  0.0985 -0.0683
 1276ERGO    R218971   3.125  15.600   7.091 -0.0792  0.2119 -0.1711
 1276ERGO    R318972   3.344  15.681   7.230 -0.0324 -0.1498 -0.0227
 1276ERGO    R418973   3.141  15.629   7.435 -0.2661  0.2011 -0.1602
 1276ERGO    R518974   3.255  15.813   7.409  0.0646  0.0109 -0.0918
 1276ERGO    C118975   3.355  15.722   7.765 -0.3310 -0.1447 -0.0146
 1276ERGO    C218976   3.190  15.716   8.182  0.0184  0.2946  0.3115
 1277ERGO   ROH18977  12.034   6.446   6.971 -0.0556 -0.2447  0.0997
 1277ERGO    R118978  12.068   6.475   7.251 -0.0238 -0.1443  0.0862
 1277ERGO    R218979  12.313   6.533   7.366 -0.0217 -0.0244  0.0342
 1277ERGO    R318980  12.176   6.739   7.478 -0.0778 -0.0345 -0.0171
 1277ERGO    R418981  12.339   6.631   7.696 -0.1089  0.0296  0.0251
 1277ERGO    R518982  12.123   6.663   7.698 -0.1089 -0.0079 -0.0201
 1277ERGO    C118983  12.226   6.882   7.993 -0.2124  0.0515 -0.0285
 1277ERGO    C218984  12.193   6.863   8.267  0.0194  0.0828  0.0644
 1278ERGO   ROH18985  13.980   3.229  10.711  0.0739  0.1621 -0.1245
 1278ERGO    R118986  13.978   3.300  10.437  0.0952 -0.0025 -0.1684
 1278ERGO    R218987  14.081   3.136  10.240 -0.0101 -0.1806 -0.0774
 1278ERGO    R318988  13.835   3.167  10.130 -0.0009 -0.1088 -0.0784
 1278ERGO    R418989  13.998   3.051   9.915  0.0027 -0.0237 -0.1228
 1278ERGO    R518990  13.878   3.233   9.904  0.0187 -0.0075 -0.0459
 1278ERGO    C118991  13.717   3.030   9.623  0.0188  0.1350 -0.1501
 1278ERGO    C218992  13.831   2.758   9.318 -0.0303  0.1692 -0.1671
 1279ERGO   ROH18993   3.344  11.170   6.497  0.1181  0.0721 -0.1553
 1279ERGO    R118994   3.393  11.027   6.737  0.1475  0.0229 -0.1892
 1279ERGO    R218995   3.561  11.122   6.935  0.0188  0.0802 -0.0982
 1279ERGO    R318996   3.343  11.084   7.093 -0.0089 -0.1344 -0.1861
 1279ERGO    R418997   3.567  11.112   7.280 -0.1459  0.2723 -0.0888
 1279ERGO    R518998   3.424  10.948   7.273  0.0845  0.0728 -0.0742
 1279ERGO    C118999   3.366  11.071   7.630 -0.2678  0.1826 -0.1658
 1279ERGO    C219000   3.374  11.103   7.984 -0.2439  0.0890  0.0268
 1280ERGO   ROH19001   3.990  12.523   6.610 -0.0287  0.0619  0.0241
 1280ERGO    R119002   3.964  12.597   6.882  0.0166  0.1412  0.0078
 1280ERGO    R219003   3.728  12.567   7.023  0.0474  0.1516  0.0670
 1280ERGO    R319004   3.886  12.429   7.196  0.1027  0.2250  0.0739
 1280ERGO    R419005   3.714  12.594   7.367 -0.0229  0.0986  0.0677
 1280ERGO    R519006   3.932  12.586   7.371 -0.0194  0.2293  0.1010
 1280ERGO    C119007   3.854  12.481   7.730 -0.0119  0.1367  0.0748
 1280ERGO    C219008   3.869  12.598   8.037 -0.1399 -0.1635 -0.1873
 1281ERGO   ROH19009   2.433   2.271   6.720 -0.0737 -0.1953  0.1407
 1281ERGO    R119010   2.404   2.357   6.988  0.0591  0.0432  0.0814
 1281ERGO    R219011   2.343   2.183   7.194 -0.1276  0.2691  0.2190
 1281ERGO    R319012   2.566   2.289   7.307  0.0149  0.0873  0.1141
 1281ERGO    R419013   2.392   2.223   7.534  0.0529  0.2515  0.1964
 1281ERGO    R519014   2.484   2.416   7.493  0.2021  0.1727  0.1427
 1281ERGO    C119015   2.630   2.345   7.838  0.2917  0.0706  0.0848
 1281ERGO    C219016   2.445   2.424   8.197  0.1860  0.4767  0.2593
 1282ERGO   ROH19017   6.836  15.157   6.896  0.0089  0.0517 -0.0349
 1282ERGO    R119018   6.949  15.185   7.154 -0.0476 -0.1184  0.0095
 1282ERGO    R219019   6.914  15.412   7.308  0.4117  0.0352 -0.0962
 1282ERGO    R319020   6.825  15.234   7.493 -0.1097  0.3050 -0.0695
 1282ERGO    R419021   6.980  15.430   7.647  0.5481 -0.1560 -0.1108
 1282ERGO    R519022   7.006  15.214   7.648 -0.1236 -0.2572 -0.1093
 1282ERGO    C119023   6.935  15.274   8.018  0.1381 -0.0141 -0.0941
 1282ERGO    C219024   6.871  15.304   8.393  0.0843 -0.3226  0.1405
 1283ERGO   ROH19025   1.683   7.679   6.729 -0.2560  0.0362 -0.0959
 1283ERGO    R119026   1.699   7.775   6.995 -0.0692  0.0941 -0.1261
 1283ERGO    R219027   1.485   7.766   7.170  0.0357  0.1794  0.0127
 1283ERGO    R319028   1.663   7.636   7.329  0.1093  0.1772 -0.0719
 1283ERGO    R419029   1.497   7.790   7.515  0.0057 -0.0609  0.0321
 1283ERGO    R519030   1.715   7.793   7.502  0.0028  0.0846  0.0435
 1283ERGO    C119031   1.672   7.683   7.865  0.0572 -0.2030 -0.0360
 1283ERGO    C219032   1.722   7.669   8.225 -0.0819 -0.1125  0.1694
 1284ERGO   ROH19033  11.652  13.335   6.836  0.2077 -0.1250  0.0832
 1284ERGO    R119034  11.540  13.412   7.085  0.0342 -0.0257 -0.0227
 1284ERGO    R219035  11.394  13.238   7.243  0.0441 -0.0052  0.0109
 1284ERGO    R319036  11.575  13.310   7.433 -0.0933  0.2132  0.0620
 1284ERGO    R419037  11.372  13.156   7.578  0.0887 -0.1039 -0.0104
 1284ERGO    R519038  11.442  13.357   7.627 -0.2018 -0.0109  0.0442
 1284ERGO    C119039  11.528  13.176   7.951 -0.0143  0.0437  0.0251
 1284ERGO    C219040  11.523  13.181   8.210  0.0721  0.0267 -0.1845
 1285ERGO   ROH19041  15.058   1.076   7.019 -0.1063 -0.0641  0.0259
 1285ERGO    R119042  15.220   1.095   7.250 -0.0566 -0.0463 -0.0096
 1285ERGO    R219043  15.207   1.309   7.425 -0.0557 -0.0557  0.0070
 1285ERGO    R319044  15.167   1.113   7.610  0.0200 -0.0744  0.0025
 1285ERGO    R419045  15.300   1.329   7.757  0.0873 -0.0982 -0.0308
 1285ERGO    R519046  15.364   1.121   7.747  0.0772 -0.0961 -0.0810
 1285ERGO    C119047  15.318   1.158   8.124  0.2416 -0.1406 -0.0569
 1285ERGO    C219048  15.394   1.220   8.387  0.3583 -0.1935 -0.0336
 1286ERGO   ROH19049  16.699  15.707   6.862  0.1376  0.1697 -0.1108
 1286ERGO    R119050  16.829  15.675   7.111  0.0971  0.1228 -0.0946
 1286ERGO    R219051  16.813  15.863   7.314  0.0529  0.0804 -0.0539
 1286ERGO    R319052  16.730  15.649   7.461  0.0365  0.0431 -0.1185
 1286ERGO    R419053  16.875  15.818   7.651 -0.0517  0.0225 -0.0422
 1286ERGO    R519054  16.911  15.607   7.612 -0.0103  0.0386 -0.0682
 1286ERGO    C119055  16.835  15.592   7.985 -0.1277 -0.0463 -0.0960
 1286ERGO    C219056  16.927  15.620   8.283 -0.2288 -0.1297  0.2737
 1287ERGO   ROH19057   1.104  10.071   6.818 -0.0535  0.1516  0.0036
 1287ERGO    R119058   1.164   9.940   7.061 -0.3818  0.0296  0.0226
 1287ERGO    R219059   1.372  10.019   7.225 -0.1166 -0.5177 -0.0395
 1287ERGO    R319060   1.176  10.030   7.414 -0.0648  0.0849  0.0035
 1287ERGO    R419061   1.425  10.002   7.567 -0.0752 -0.7724 -0.0555
 1287ERGO    R519062   1.248   9.876   7.583 -0.5145 -0.2140 -0.0499
 1287ERGO    C119063   1.272  10.002   7.942 -0.0024 -0.3550 -0.0245
 1287ERGO    C219064   1.111  10.014   8.293 -0.2763 -0.0708  0.1478
 1288ERGO   ROH19065  11.471   2.312   6.768 -0.2620 -0.0777 -0.1173
 1288ERGO    R119066  11.568   2.352   7.030 -0.0523 -0.1578 -0.1808
 1288ERGO    R219067  11.402   2.408   7.244  0.1407  0.0427 -0.0798
 1288ERGO    R319068  11.525   2.193   7.355 -0.0206 -0.0824 -0.1393
 1288ERGO    R419069  11.546   2.403   7.558  0.1209 -0.1582 -0.0726
 1288ERGO    R519070  11.710   2.285   7.475  0.0413 -0.2522 -0.1000
 1288ERGO    C119071  11.746   2.198   7.845 -0.0419 -0.3924 -0.1243
 1288ERGO    C219072  11.766   2.159   8.237 -0.0320 -0.0877  0.3253
 1289ERGO   ROH19073   5.288  14.906   6.774 -0.1736  0.0095 -0.0163
 1289ERGO    R119074   5.382  14.801   7.020 -0.1740  0.0358 -0.0056
 1289ERGO    R219075   5.502  14.959   7.212 -0.0241  0.0269 -0.0950
 1289ERGO    R319076   5.311  14.852   7.373 -0.0474  0.2026 -0.0019
 1289ERGO    R419077   5.521  14.942   7.557  0.2182 -0.1472 -0.1136
 1289ERGO    R519078   5.434  14.742   7.547 -0.0515 -0.0370 -0.1418
 1289ERGO    C119079   5.353  14.832   7.908  0.3375 -0.0836 -0.0370
 1289ERGO    C219080   5.436  14.893   8.233  0.0486 -0.0141  0.1391
 1290ERGO   ROH19081  11.961   0.938   6.786  0.0244  0.0852 -0.1288
 1290ERGO    R119082  11.936   1.006   7.060  0.1694  0.0175 -0.0979
 1290ERGO    R219083  11.761   0.876   7.230  0.0732  0.1443 -0.0975
 1290ERGO    R319084  11.985   0.837   7.379  0.0753 -0.1484 -0.1698
 1290ERGO    R419085  11.762   0.788   7.564  0.0596  0.3484 -0.0424
 1290ERGO    R519086  11.928   0.926   7.595  0.3156  0.0863 -0.1982
 1290ERGO    C119087  11.972   0.701   7.899  0.0536  0.1924 -0.0783
 1290ERGO    C219088  11.820   0.632   8.142  0.0946  0.3554  0.1897
 1291ERGO   ROH19089  11.005  15.951   6.468 -0.0194  0.2752 -0.0106
 1291ERGO    R119090  10.867  16.037   6.699 -0.0305  0.2359 -0.0031
 1291ERGO    R219091  10.766  15.861   6.887  0.0378  0.2095  0.0047
 1291ERGO    R319092  10.912  16.011   7.060 -0.0001  0.2575 -0.0044
 1291ERGO    R419093  10.746  15.843   7.232  0.1464  0.1109  0.0067
 1291ERGO    R519094  10.761  16.060   7.239  0.0186  0.1233  0.0523
 1291ERGO    C119095  10.871  15.974   7.594  0.1739  0.0985 -0.0007
 1291ERGO    C219096  10.779  15.921   7.998  0.1225  0.2891 -0.3403
 1292ERGO   ROH19097   9.586   3.965   6.824  0.1218  0.1842  0.1111
 1292ERGO    R119098   9.492   4.004   7.088  0.0094  0.0359  0.0951
 1292ERGO    R219099   9.344   3.814   7.223  0.0402 -0.0868 -0.0324
 1292ERGO    R319100   9.538   3.844   7.412 -0.0361 -0.0788  0.0436
 1292ERGO    R419101   9.299   3.761   7.562 -0.0711 -0.1211 -0.0529
 1292ERGO    R519102   9.422   3.937   7.600 -0.1121 -0.1131  0.0091
 1292ERGO    C119103   9.454   3.759   7.936 -0.2076 -0.1336  0.0066
 1292ERGO    C219104   9.313   3.755   8.275  0.0796  0.2335 -0.2161
 1293ERGO   ROH19105  17.190  13.373   6.983 -0.2772 -0.1001  0.0400
 1293ERGO    R119106  17.138  13.506   7.227 -0.0535 -0.0587  0.0679
 1293ERGO    R219107  16.995  13.388   7.433 -0.1530  0.0950  0.0926
 1293ERGO    R319108  17.216  13.451   7.579 -0.0331 -0.1947  0.0422
 1293ERGO    R419109  17.031  13.331   7.772 -0.2916  0.3561  0.1534
 1293ERGO    R519110  17.129  13.525   7.789  0.0929  0.1875 -0.0333
 1293ERGO    C119111  17.259  13.357   8.106 -0.2598  0.2362  0.1414
 1293ERGO    C219112  17.304  13.331   8.413  0.1708 -0.1457  0.0728
 1294ERGO   ROH19113  14.080  10.034   6.606  0.1612  0.2083 -0.0832
 1294ERGO    R119114  14.025  10.182   6.841 -0.0554  0.1214 -0.0761
 1294ERGO    R219115  13.806  10.132   7.002 -0.0423 -0.1362 -0.1342
 1294ERGO    R319116  13.994  10.112   7.197 -0.0648  0.0413 -0.0928
 1294ERGO    R419117  13.745  10.166   7.341 -0.1152 -0.0182 -0.1588
 1294ERGO    R519118  13.931  10.277   7.358 -0.1728  0.0810 -0.1752
 1294ERGO    C119119  13.886  10.167   7.720 -0.1787  0.2172 -0.1341
 1294ERGO    C219120  13.962  10.084   8.004  0.2691 -0.1858  0.2316
 1295ERGO   ROH19121   9.736  10.674   6.529  0.2920  0.0673  0.0466
 1295ERGO    R119122   9.690  10.800   6.778  0.3389  0.0694  0.0554
 1295ERGO    R219123   9.446  10.786   6.908  0.2411  0.3809 -0.0761
 1295ERGO    R319124   9.598  10.695   7.114  0.0080  0.1034 -0.0215
 1295ERGO    R419125   9.388  10.854   7.242  0.0817  0.2335 -0.0735
 1295ERGO    R519126   9.602  10.877   7.270  0.0845  0.0020  0.0916
 1295ERGO    C119127   9.496  10.807   7.630 -0.2299 -0.1130 -0.0209
 1295ERGO    C219128   9.506  10.746   8.005 -0.0535  0.2943  0.2879
 1296ERGO   ROH19129  17.202   1.683   6.575  0.1810  0.0898 -0.1225
 1296ERGO    R119130  17.243   1.785   6.836 -0.1316  0.1607 -0.0939
 1296ERGO    R219131  17.079   1.721   7.049 -0.1713 -0.0944 -0.1794
 1296ERGO    R319132  17.313   1.648   7.166 -0.1175  0.2621 -0.0591
 1296ERGO    R419133  17.124   1.672   7.388 -0.2316  0.0190 -0.1565
 1296ERGO    R519134  17.318   1.770   7.372 -0.3746  0.2910 -0.0797
 1296ERGO    C119135  17.371   1.575   7.695 -0.2161  0.4197 -0.0303
 1296ERGO    C219136  17.285   1.722   7.976  0.0104 -0.1711 -0.0316
 1297ERGO   ROH19137  16.098   4.118   6.368 -0.0101  0.0479  0.0763
 1297ERGO    R119138  16.108   4.048   6.642  0.2123  0.0212  0.0650
 1297ERGO    R219139  16.255   4.191   6.827  0.0932  0.2158  0.0266
 1297ERGO    R319140  16.018   4.203   6.959  0.1224 -0.1474  0.1201
 1297ERGO    R419141  16.221   4.248   7.166  0.1181  0.2812  0.0168
 1297ERGO    R519142  16.062   4.099   7.170  0.3813  0.0096  0.1390
 1297ERGO    C119143  15.978   4.293   7.487  0.1597 -0.0218  0.0989
 1297ERGO    C219144  16.083   4.279   7.867  0.0633 -0.3281 -0.6061
 1298ERGO   ROH19145   0.128   8.722   6.624 -0.1480  0.1893  0.1250
 1298ERGO    R119146   0.070   8.830   6.880 -0.0381  0.1359  0.1744
 1298ERGO    R219147  -0.113   8.714   7.051 -0.0764  0.1808  0.1714
 1298ERGO    R319148   0.096   8.720   7.225 -0.0364 -0.0018  0.1294
 1298ERGO    R419149  -0.144   8.712   7.395  0.0041  0.0774  0.1776
 1298ERGO    R519150   0.019   8.857   7.406  0.0875 -0.0232  0.1950
 1298ERGO    C119151   0.034   8.715   7.760  0.0885 -0.1541  0.1418
 1298ERGO    C219152   0.039   8.644   8.135  0.1937 -0.1279 -0.4176
 1299ERGO   ROH19153  12.751   6.024  10.780 -0.0072 -0.0836  0.0187
 1299ERGO    R119154  12.678   6.018  10.507  0.0466  0.0130  0.0023
 1299ERGO    R219155  12.446   5.897  10.417  0.1062 -0.0225 -0.0937
 1299ERGO    R319156  12.400   6.140  10.305  0.0451  0.0108  0.0008
 1299ERGO    R419157  12.224   5.958  10.160  0.2625 -0.0320 -0.2330
 1299ERGO    R519158  12.369   6.094  10.072  0.2522  0.1069 -0.0520
 1299ERGO    C119159  12.052   6.223   9.904  0.2961 -0.0063 -0.2254
 1299ERGO    C219160  11.979   6.313   9.564 -0.1282  0.0615 -0.2575
 1300ERGO   ROH19161   7.624   3.490   6.690 -0.0453 -0.0545  0.0313
 1300ERGO    R119162   7.769   3.380   6.907  0.0294  0.0777  0.0494
 1300ERGO    R219163   7.898   3.538   7.095 -0.2377  0.2014  0.1351
 1300ERGO    R319164   7.750   3.392   7.270 -0.1077 -0.0424  0.0473
 1300ERGO    R419165   7.965   3.506   7.432 -0.0590 -0.1632  0.0706
 1300ERGO    R519166   7.911   3.296   7.419 -0.0038 -0.1670 -0.1408
 1300ERGO    C119167   7.865   3.352   7.793  0.1671 -0.6044 -0.0494
 1300ERGO    C219168   7.877   3.293   8.058  0.0118  0.2279 -0.3637
 1301ERGO   ROH19169   8.211  17.246   6.412 -0.0751 -0.0662  0.0236
 1301ERGO    R119170   8.213  17.112   6.662  0.0049 -0.0069  0.0543
 1301ERGO    R219171   8.443  17.084   6.814  0.0159  0.1901  0.0726
 1301ERGO    R319172   8.290  17.199   7.007 -0.0750  0.1268  0.0398
 1301ERGO    R419173   8.481  17.034   7.154 -0.0057  0.2429  0.0835
 1301ERGO    R519174   8.265  17.029   7.173 -0.0074  0.1276  0.0527
 1301ERGO    C119175   8.359  17.113   7.533 -0.1035  0.2141  0.0592
 1301ERGO    C219176   8.254  17.147   7.928 -0.1805 -0.1354  0.1096
 1302ERGO   ROH19177  13.692   5.472  10.579 -0.2359 -0.1574 -0.0292
 1302ERGO    R119178  13.530   5.609  10.391 -0.0992  0.0280 -0.0125
 1302ERGO    R219179  13.581   5.870  10.314  0.1646 -0.0166  0.0180
 1302ERGO    R319180  13.577   5.763  10.064  0.0505  0.0192  0.0024
 1302ERGO    R419181  13.458   6.028  10.032  0.0419  0.0378  0.1003
 1302ERGO    R519182  13.371   5.839   9.969  0.0051  0.0447  0.1093
 1302ERGO    C119183  13.383   6.020   9.634 -0.1367  0.1031  0.1339
 1302ERGO    C219184  13.323   6.105   9.331  0.2305  0.0101  0.0210
 1303ERGO   ROH19185   2.794   3.227   6.575  0.1743  0.2035  0.0884
 1303ERGO    R119186   2.858   3.258   6.849  0.0838  0.0990  0.1220
 1303ERGO    R219187   2.796   3.487   6.991  0.1763  0.1085  0.1497
 1303ERGO    R319188   2.673   3.311   7.158 -0.0082  0.1491  0.0588
 1303ERGO    R419189   2.813   3.497   7.336 -0.0054  0.0489  0.1609
 1303ERGO    R519190   2.829   3.280   7.337 -0.1215  0.0401  0.1394
 1303ERGO    C119191   2.707   3.338   7.694 -0.2844  0.0523  0.0821
 1303ERGO    C219192   2.796   3.292   8.128  0.0885 -0.0136  0.1291
 1304ERGO   ROH19193   1.304   0.019   6.496  0.0378 -0.1220  0.0493
 1304ERGO    R119194   1.429   0.071   6.745 -0.0230 -0.0017  0.0553
 1304ERGO    R219195   1.332   0.258   6.924 -0.1642 -0.0355  0.0128
 1304ERGO    R319196   1.336   0.049   7.096 -0.0476 -0.0049  0.0493
 1304ERGO    R419197   1.386   0.284   7.264 -0.0713  0.0452 -0.0069
 1304ERGO    R519198   1.508   0.104   7.254 -0.0164  0.0796 -0.0110
 1304ERGO    C119199   1.420   0.101   7.625  0.0922  0.1210  0.0160
 1304ERGO    C219200   1.393   0.218   7.879  0.1088 -0.1478  0.3734
 1305ERGO   ROH19201  11.042   0.728   6.893 -0.0853 -0.1583  0.0255
 1305ERGO    R119202  11.064   0.858   7.144  0.0669 -0.1312 -0.0003
 1305ERGO    R219203  10.844   0.923   7.298  0.1484  0.0433  0.0480
 1305ERGO    R319204  10.976   0.783   7.489  0.1040 -0.0163  0.0342
 1305ERGO    R419205  10.857   1.009   7.632  0.2592  0.0626  0.0387
 1305ERGO    R519206  11.067   0.950   7.634  0.2260 -0.0564  0.0042
 1305ERGO    C119207  10.988   0.926   8.007  0.2820  0.0178  0.0202
 1305ERGO    C219208  10.989   0.851   8.343  0.0188 -0.0600 -0.1861
 1306ERGO   ROH19209   1.269  14.556   6.947  0.2226 -0.1252 -0.1148
 1306ERGO    R119210   1.284  14.679   7.201  0.2171 -0.0686 -0.1411
 1306ERGO    R219211   1.066  14.700   7.369  0.1539  0.1722 -0.2420
 1306ERGO    R319212   1.232  14.579   7.547 -0.0310  0.0677 -0.1388
 1306ERGO    R419213   1.040  14.729   7.712  0.0147  0.2380 -0.2575
 1306ERGO    R519214   1.258  14.741   7.722  0.0140  0.0660 -0.1506
 1306ERGO    C119215   1.181  14.632   8.079 -0.2399  0.1784 -0.1695
 1306ERGO    C219216   1.154  14.777   8.363 -0.1247  0.6004  0.0707
 1307ERGO   ROH19217   9.201  11.573   6.624  0.1141 -0.0110  0.0823
 1307ERGO    R119218   9.260  11.681   6.878 -0.0567  0.1598  0.0530
 1307ERGO    R219219   9.063  11.755   7.058 -0.1854 -0.1767  0.0653
 1307ERGO    R319220   9.198  11.589   7.225  0.1619  0.1082  0.0786
 1307ERGO    R419221   9.059  11.776   7.403  0.0803  0.0610  0.0568
 1307ERGO    R519222   9.272  11.731   7.403  0.1375  0.3263 -0.0842
 1307ERGO    C119223   9.184  11.632   7.761  0.5609  0.4670  0.0643
 1307ERGO    C219224   9.087  11.591   8.143 -0.1200  0.1135 -0.1357
 1308ERGO   ROH19225   6.396   3.472   6.570 -0.2469 -0.1600  0.0336
 1308ERGO    R119226   6.444   3.391   6.837 -0.2786  0.0065  0.0910
 1308ERGO    R219227   6.651   3.494   6.989 -0.0318 -0.2042 -0.0956
 1308ERGO    R319228   6.451   3.549   7.165  0.1314  0.3113 -0.0551
 1308ERGO    R419229   6.679   3.471   7.333  0.0390 -0.0728 -0.0920
 1308ERGO    R519230   6.478   3.386   7.338 -0.1472  0.3423  0.0247
 1308ERGO    C119231   6.508   3.510   7.698  0.2334  0.4877 -0.0520
 1308ERGO    C219232   6.509   3.456   8.025  0.1344  0.0473  0.0021
 1309ERGO   ROH19233  13.097  16.097   6.995 -0.2284  0.0100 -0.0429
 1309ERGO    R119234  13.223  16.051   7.244 -0.2634 -0.2779 -0.0759
 1309ERGO    R219235  13.265  16.252   7.429  0.2424 -0.3623 -0.0878
 1309ERGO    R319236  13.134  16.081   7.595 -0.1083 -0.0708 -0.0514
 1309ERGO    R419237  13.285  16.257   7.774  0.3570 -0.4036 -0.0928
 1309ERGO    R519238  13.289  16.039   7.772 -0.1418 -0.4273 -0.0962
 1309ERGO    C119239  13.173  16.100   8.131  0.0945 -0.1541 -0.0615
 1309ERGO    C219240  13.277  16.065   8.476  0.1718  0.0753  0.0080
 1310ERGO   ROH19241  11.857  12.902   6.805  0.1983  0.2541 -0.0303
 1310ERGO    R119242  11.843  13.004   7.069  0.0662  0.2127 -0.0200
 1310ERGO    R219243  11.691  12.885   7.267  0.0132  0.1468 -0.0979
 1310ERGO    R319244  11.926  12.884   7.403 -0.0411  0.1833 -0.0040
 1310ERGO    R419245  11.722  12.828   7.606 -0.1201  0.2293 -0.0716
 1310ERGO    R519246  11.873  12.985   7.613 -0.1260  0.2326 -0.0494
 1310ERGO    C119247  11.961  12.794   7.931 -0.2486  0.3116  0.0318
 1310ERGO    C219248  11.831  12.730   8.172  0.0018 -0.0727 -0.0818
 1311ERGO   ROH19249   3.927  14.951   6.973 -0.1755  0.1698  0.0747
 1311ERGO    R119250   3.958  14.856   7.238  0.1346  0.1317  0.0306
 1311ERGO    R219251   4.143  14.963   7.414  0.1077  0.3537 -0.0447
 1311ERGO    R319252   3.925  14.992   7.574  0.1508 -0.0061  0.0822
 1311ERGO    R419253   4.151  14.979   7.759  0.2146  0.1451 -0.0383
 1311ERGO    R519254   3.972  14.855   7.764  0.3793 -0.0585 -0.0287
 1311ERGO    C119255   3.951  15.014   8.110  0.3174 -0.3141  0.0845
 1311ERGO    C219256   3.913  15.133   8.491 -0.0921 -0.2884  0.0692
 1312ERGO   ROH19257  13.363  11.379   6.910  0.1911  0.1034  0.0420
 1312ERGO    R119258  13.301  11.473   7.170  0.0632 -0.0298  0.0599
 1312ERGO    R219259  13.195  11.309   7.366  0.1751 -0.1800 -0.0095
 1312ERGO    R319260  13.407  11.399   7.510  0.0676 -0.0359  0.0581
 1312ERGO    R419261  13.202  11.335   7.710  0.0239 -0.1519 -0.0073
 1312ERGO    R519262  13.309  11.524   7.688 -0.0838 -0.0825  0.0145
 1312ERGO    C119263  13.406  11.434   8.046 -0.1649 -0.0003  0.0574
 1312ERGO    C219264  13.364  11.460   8.386  0.2325  0.1285 -0.2236
 1313ERGO   ROH19265  13.679  14.750   6.804  0.1410  0.0038 -0.0674
 1313ERGO    R119266  13.771  14.859   7.049 -0.0338 -0.0576  0.0273
 1313ERGO    R219267  13.605  14.901   7.266 -0.1631 -0.2338 -0.0376
 1313ERGO    R319268  13.791  14.751   7.396 -0.1546 -0.1997 -0.0088
 1313ERGO    R419269  13.655  14.901   7.608 -0.1632 -0.1698 -0.0367
 1313ERGO    R519270  13.870  14.894   7.572 -0.1626 -0.1637 -0.0342
 1313ERGO    C119271  13.859  14.761   7.929 -0.1551 -0.1007 -0.0092
 1313ERGO    C219272  13.830  14.855   8.211 -0.0116 -0.0282 -0.2044
 1314ERGO   ROH19273  14.966   2.629   6.665 -0.0880 -0.2221  0.1073
 1314ERGO    R119274  14.994   2.548   6.935  0.2076 -0.3210  0.0519
 1314ERGO    R219275  15.235   2.558   7.070  0.2160  0.3697  0.0233
 1314ERGO    R319276  15.091   2.704   7.249 -0.2491 -0.1964  0.1389
 1314ERGO    R419277  15.259   2.529   7.413  0.5017  0.3466  0.0027
 1314ERGO    R519278  15.042   2.550   7.426  0.4017 -0.4513  0.1220
 1314ERGO    C119279  15.138   2.648   7.782  0.2316 -0.1981  0.0992
 1314ERGO    C219280  15.219   2.636   8.239 -0.2543  0.0763 -0.0833
 1315ERGO   ROH19281  13.997   8.528   6.425  0.0942  0.0428  0.0061
 1315ERGO    R119282  14.119   8.599   6.670 -0.0711  0.1795  0.0521
 1315ERGO    R219283  14.014   8.790   6.840 -0.4197 -0.0254  0.0810
 1315ERGO    R319284  14.029   8.590   7.023 -0.1406 -0.0539  0.0290
 1315ERGO    R419285  14.051   8.835   7.181 -0.1508 -0.0778  0.0601
 1315ERGO    R519286  14.189   8.667   7.183 -0.0484  0.0056 -0.0935
 1315ERGO    C119287  14.087   8.673   7.551  0.2676 -0.1350 -0.0009
 1315ERGO    C219288  14.016   8.765   7.935  0.0129  0.1495 -0.1710
 1316ERGO   ROH19289  10.582  11.689   6.624 -0.2205 -0.1140  0.0154
 1316ERGO    R119290  10.532  11.563   6.873  0.0657 -0.1014  0.0829
 1316ERGO    R219291  10.733  11.510   7.056  0.2378  0.1673 -0.0189
 1316ERGO    R319292  10.570  11.648   7.224  0.1856  0.0395  0.0362
 1316ERGO    R419293  10.752  11.502   7.401  0.2413  0.0512 -0.0215
 1316ERGO    R519294  10.535  11.499   7.408  0.2460 -0.0387 -0.0183
 1316ERGO    C119295  10.611  11.626   7.760  0.1945 -0.1365  0.0287
 1316ERGO    C219296  10.537  11.568   8.141  0.0834  0.0113  0.1168
 1317ERGO   ROH19297  12.764  12.198   6.553 -0.0331  0.2209 -0.0483
 1317ERGO    R119298  12.760  12.236   6.834 -0.0652  0.2028 -0.0465
 1317ERGO    R219299  12.542  12.343   6.967 -0.1338  0.0679 -0.0483
 1317ERGO    R319300  12.561  12.115   7.113 -0.0053  0.0699 -0.0604
 1317ERGO    R419301  12.530  12.328   7.312 -0.2251  0.0318 -0.0528
 1317ERGO    R519302  12.687  12.178   7.306 -0.1098  0.1508 -0.0177
 1317ERGO    C119303  12.539  12.105   7.650 -0.1575  0.0125 -0.0668
 1317ERGO    C219304  12.649  12.117   8.029  0.1246 -0.1876  0.0046
 1318ERGO   ROH19305   2.097   8.538   6.607 -0.1871 -0.3434  0.0512
 1318ERGO    R119306   2.208   8.525   6.867 -0.0808 -0.2528  0.0107
 1318ERGO    R219307   2.090   8.647   7.085 -0.0418 -0.2587  0.0328
 1318ERGO    R319308   2.106   8.397   7.192  0.0958 -0.2326  0.0758
 1318ERGO    R419309   2.166   8.577   7.415 -0.0118 -0.1554  0.0483
 1318ERGO    R519310   2.288   8.410   7.347  0.0861 -0.1006  0.0799
 1318ERGO    C119311   2.226   8.302   7.707  0.1348 -0.0707  0.0977
 1318ERGO    C219312   2.254   8.334   8.022 -0.1343  0.1864  0.1571
 1319ERGO   ROH19313   1.037   9.128   6.680  0.1015 -0.0683  0.0194
 1319ERGO    R119314   0.990   8.983   6.918 -0.0599 -0.0464  0.0011
 1319ERGO    R219315   1.188   8.931   7.103 -0.1318 -0.2286  0.0279
 1319ERGO    R319316   1.012   9.046   7.275 -0.0627 -0.0919  0.0096
 1319ERGO    R419317   1.177   8.871   7.443 -0.0415 -0.0147  0.0708
 1319ERGO    R519318   0.959   8.872   7.431 -0.0457  0.0128  0.1347
 1319ERGO    C119319   1.005   8.944   7.803  0.0759  0.2382  0.0786
 1319ERGO    C219320   1.038   9.059   8.164 -0.0623 -0.0217  0.1013
 1320ERGO   ROH19321  12.575   3.189   6.891 -0.1045 -0.2387  0.0491
 1320ERGO    R119322  12.728   3.063   7.093 -0.0669 -0.0917  0.1150
 1320ERGO    R219323  12.873   3.206   7.280  0.0120  0.0494 -0.0397
 1320ERGO    R319324  12.731   3.056   7.457  0.0302  0.2213  0.1216
 1320ERGO    R419325  12.970   3.139   7.605  0.3809 -0.2124 -0.1977
 1320ERGO    R519326  12.897   2.935   7.580  0.0169 -0.0863 -0.1606
 1320ERGO    C119327  12.893   2.960   7.961  0.6128 -0.2033 -0.1383
 1320ERGO    C219328  12.948   2.862   8.371  0.1981 -0.1297  0.2114
 1321ERGO   ROH19329   6.001  13.883   8.953 -0.1172  0.0710  0.1865
 1321ERGO    R119330   6.237  13.739   8.896 -0.1513  0.0928 -0.0169
 1321ERGO    R219331   6.381  13.605   9.091  0.1815  0.3391 -0.0867
 1321ERGO    R319332   6.349  13.393   8.923  0.0010  0.1539  0.1711
 1321ERGO    R419333   6.561  13.310   9.108  0.3778  0.4566 -0.0976
 1321ERGO    R519334   6.571  13.309   8.891  0.0007  0.2494 -0.1277
 1321ERGO    C119335   6.636  12.940   8.961  0.3228  0.3510  0.1382
 1321ERGO    C219336   6.624  12.626   8.963  0.1997  0.0268  0.0730
 1322ERGO   ROH19337   7.571   8.903   6.516  0.0008 -0.0689 -0.1463
 1322ERGO    R119338   7.504   8.806   6.773  0.0010 -0.0342 -0.1332
 1322ERGO    R219339   7.688   8.788   6.978 -0.0008 -0.0017 -0.1300
 1322ERGO    R319340   7.504   8.937   7.113 -0.0041  0.0128 -0.1506
 1322ERGO    R419341   7.663   8.807   7.322 -0.0655 -0.0420 -0.1324
 1322ERGO    R519342   7.446   8.802   7.302 -0.0644 -0.0033 -0.1784
 1322ERGO    C119343   7.476   8.957   7.649 -0.1064 -0.0518 -0.1531
 1322ERGO    C219344   7.567   8.895   7.885 -0.0079 -0.1306  0.0235
 1323ERGO   ROH19345  12.987   4.399   7.014 -0.1727  0.0236 -0.0119
 1323ERGO    R119346  12.967   4.234   7.243 -0.1055  0.0511  0.0134
 1323ERGO    R219347  13.186   4.111   7.357 -0.0532  0.1774  0.0451
 1323ERGO    R319348  13.098   4.236   7.582 -0.1260  0.1694  0.0221
 1323ERGO    R419349  13.268   4.017   7.679 -0.2326  0.1018  0.0706
 1323ERGO    R519350  13.062   4.058   7.738 -0.2525  0.1527 -0.0219
 1323ERGO    C119351  13.234   4.080   8.078 -0.4055  0.0503  0.0639
 1323ERGO    C219352  13.350   3.970   8.266  0.4142 -0.0037 -0.0751
 1324ERGO   ROH19353  14.673   0.897   6.773 -0.0702 -0.0645 -0.0141
 1324ERGO    R119354  14.626   0.988   7.036 -0.0470 -0.0807 -0.0031
 1324ERGO    R219355  14.589   0.816   7.249 -0.0353 -0.0973 -0.0063
 1324ERGO    R319356  14.791   0.960   7.359 -0.0199 -0.1099 -0.0215
 1324ERGO    R419357  14.598   0.922   7.577 -0.0372 -0.0140 -0.0340
 1324ERGO    R519358  14.681   1.112   7.508  0.0037 -0.0528 -0.0701
 1324ERGO    C119359  14.794   1.120   7.873 -0.0238  0.0227 -0.0645
 1324ERGO    C219360  14.837   1.005   8.180  0.2155 -0.4946  0.1367
 1325ERGO   ROH19361   9.890   4.465  10.764  0.2881 -0.1936 -0.0778
 1325ERGO    R119362   9.798   4.580  10.522  0.2813 -0.0994 -0.0315
 1325ERGO    R219363   9.969   4.665  10.323  0.2722 -0.1687 -0.0724
 1325ERGO    R319364   9.818   4.501  10.168  0.1260 -0.0561 -0.0499
 1325ERGO    R419365   9.970   4.664   9.978  0.2964 -0.2440 -0.0721
 1325ERGO    R519366   9.754   4.638   9.982  0.2714 -0.0347 -0.0832
 1325ERGO    C119367   9.828   4.510   9.631  0.1733 -0.1821 -0.0510
 1325ERGO    C219368   9.883   4.608   9.318  0.0053  0.1517  0.0437
 1326ERGO   ROH19369   6.294  15.912   6.639 -0.2000 -0.0850 -0.0294
 1326ERGO    R119370   6.346  16.040   6.885 -0.0616 -0.0720 -0.0649
 1326ERGO    R219371   6.145  16.126   7.054  0.0321  0.0700 -0.0260
 1326ERGO    R319372   6.279  15.975   7.237 -0.0042  0.0272 -0.0345
 1326ERGO    R419373   6.075  16.117   7.392  0.0113  0.0542 -0.0308
 1326ERGO    R519374   6.289  16.114   7.432  0.0115  0.0099 -0.0210
 1326ERGO    C119375   6.159  15.970   7.761 -0.0349  0.0046 -0.0416
 1326ERGO    C219376   6.158  15.991   8.065 -0.1392 -0.0109 -0.1840
 1327ERGO   ROH19377  12.795   8.367   6.498  0.0434  0.1707 -0.1875
 1327ERGO    R119378  12.911   8.299   6.747  0.0002  0.1101 -0.1845
 1327ERGO    R219379  13.071   8.474   6.890 -0.0904  0.1020 -0.0785
 1327ERGO    R319380  12.894   8.422   7.089 -0.1225 -0.0282 -0.1388
 1327ERGO    R419381  13.141   8.497   7.227 -0.1577 -0.0445 -0.0530
 1327ERGO    R519382  13.025   8.316   7.259 -0.1320 -0.0860 -0.1633
 1327ERGO    C119383  13.016   8.463   7.611 -0.2272 -0.2519 -0.0947
 1327ERGO    C219384  13.067   8.543   7.943 -0.0697 -0.1501 -0.1038
 1328ERGO   ROH19385   3.590  16.691   6.521  0.3578 -0.0402  0.0687
 1328ERGO    R119386   3.540  16.768   6.789  0.1946 -0.0983  0.0554
 1328ERGO    R219387   3.363  16.632   6.952  0.1651 -0.1899 -0.0534
 1328ERGO    R319388   3.577  16.618   7.119  0.0874 -0.1315  0.0532
 1328ERGO    R419389   3.352  16.695   7.291  0.0359  0.0870 -0.1056
 1328ERGO    R519390   3.543  16.799   7.273  0.0809  0.0058 -0.1054
 1328ERGO    C119391   3.547  16.719   7.646 -0.1124  0.3027 -0.0359
 1328ERGO    C219392   3.564  16.706   8.055  0.0084 -0.2039  0.0256
 1329ERGO   ROH19393   3.071   7.708   6.472 -0.2062  0.1565 -0.1127
 1329ERGO    R119394   3.279   7.712   6.664 -0.1443  0.2130 -0.1784
 1329ERGO    R219395   3.298   7.906   6.860 -0.1664  0.1877 -0.1445
 1329ERGO    R319396   3.304   7.692   7.026 -0.0212  0.1571 -0.1906
 1329ERGO    R419397   3.393   7.917   7.192 -0.1568  0.1749 -0.1482
 1329ERGO    R519398   3.498   7.728   7.163 -0.0396  0.2495 -0.1930
 1329ERGO    C119399   3.454   7.721   7.542 -0.0150  0.1386 -0.1935
 1329ERGO    C219400   3.436   7.845   7.910  0.3550 -0.1501 -0.0734
 1330ERGO   ROH19401   0.728   2.746   6.906 -0.2679  0.0369 -0.1112
 1330ERGO    R119402   0.639   2.812   7.167 -0.1927  0.1550 -0.1145
 1330ERGO    R219403   0.617   2.623   7.368 -0.3079  0.2108 -0.0744
 1330ERGO    R319404   0.775   2.797   7.504 -0.1655  0.1246 -0.1269
 1330ERGO    R419405   0.627   2.653   7.712 -0.1546  0.1904 -0.0759
 1330ERGO    R519406   0.639   2.869   7.688 -0.0553  0.1848 -0.0689
 1330ERGO    C119407   0.781   2.833   8.040  0.0683  0.0977 -0.1261
 1330ERGO    C219408   0.797   2.782   8.376 -0.0569  0.0444 -0.2108
 1331ERGO   ROH19409   4.990  16.020   6.350  0.1963  0.0271  0.0839
 1331ERGO    R119410   4.828  16.084   6.574  0.0498 -0.1195  0.0221
 1331ERGO    R219411   4.802  15.916   6.791  0.2304 -0.0852  0.0715
 1331ERGO    R319412   4.879  16.137   6.930 -0.1086  0.0738  0.0181
 1331ERGO    R419413   4.821  15.936   7.136  0.2693  0.0037  0.0647
 1331ERGO    R519414   4.738  16.137   7.124 -0.0737 -0.1308  0.0468
 1331ERGO    C119415   4.905  16.155   7.467 -0.0263  0.2050  0.0105
 1331ERGO    C219416   4.814  16.190   7.849  0.0140 -0.1638  0.2467
 1332ERGO   ROH19417   1.053  12.010   6.716 -0.2914  0.0365  0.0534
 1332ERGO    R119418   1.092  11.918   6.980 -0.3190  0.1484  0.0973
 1332ERGO    R219419   1.342  11.862   7.083 -0.3585 -0.2635 -0.0083
 1332ERGO    R319420   1.266  12.036   7.278  0.0827  0.0334 -0.0858
 1332ERGO    R419421   1.398  11.816   7.421 -0.5275 -0.2841  0.0169
 1332ERGO    R519422   1.198  11.895   7.459 -0.3308  0.2812 -0.0373
 1332ERGO    C119423   1.358  11.952   7.801 -0.2117 -0.0173 -0.0411
 1332ERGO    C219424   1.404  11.809   8.136  0.1131 -0.1408  0.2262
 1333ERGO   ROH19425  11.587   0.019   6.782 -0.0101 -0.1424  0.0770
 1333ERGO    R119426  11.533   0.012   7.059 -0.0709 -0.1523  0.0649
 1333ERGO    R219427  11.369  -0.179   7.174 -0.0418 -0.1969  0.0313
 1333ERGO    R319428  11.585  -0.222   7.333 -0.0654 -0.1315  0.0819
 1333ERGO    R419429  11.355  -0.255   7.511 -0.0951 -0.1017  0.0511
 1333ERGO    R519430  11.526  -0.124   7.543 -0.1122 -0.0762  0.0437
 1333ERGO    C119431  11.550  -0.341   7.856 -0.1484  0.0150  0.1101
 1333ERGO    C219432  11.586  -0.334   8.168  0.1359 -0.1102  0.0421
 1334ERGO   ROH19433   6.448   7.153   6.565  0.0527 -0.0828  0.0852
 1334ERGO    R119434   6.475   7.340   6.775 -0.1679  0.0818 -0.0306
 1334ERGO    R219435   6.258   7.467   6.891 -0.3348 -0.2308  0.0017
 1334ERGO    R319436   6.364   7.368   7.121 -0.0482  0.0764  0.0095
 1334ERGO    R419437   6.168   7.568   7.209 -0.3630 -0.2079 -0.0128
 1334ERGO    R519438   6.378   7.559   7.266 -0.3092  0.1900 -0.1041
 1334ERGO    C119439   6.216   7.535   7.610 -0.1105  0.0939 -0.0139
 1334ERGO    C219440   6.344   7.581   7.943  0.1188 -0.1181  0.2470
 1335ERGO   ROH19441   6.455  13.854   6.604 -0.2949 -0.0757  0.0799
 1335ERGO    R119442   6.442  13.701   6.842 -0.2326 -0.0270  0.1150
 1335ERGO    R219443   6.648  13.694   7.026 -0.1496 -0.0507  0.0207
 1335ERGO    R319444   6.452  13.767   7.200 -0.0518  0.0397  0.0999
 1335ERGO    R419445   6.664  13.656   7.369 -0.0560 -0.1248  0.0089
 1335ERGO    R519446   6.455  13.597   7.368 -0.0995  0.0023  0.0671
 1335ERGO    C119447   6.490  13.704   7.732  0.0903 -0.0830  0.0764
 1335ERGO    C219448   6.486  13.716   8.090  0.0946  0.0231  0.1450
 1336ERGO   ROH19449  13.846  14.124   6.916 -0.3191  0.0569 -0.0077
 1336ERGO    R119450  13.894  13.990   7.161 -0.2928 -0.0173 -0.0534
 1336ERGO    R219451  14.107  14.053   7.327 -0.1742 -0.1811 -0.1376
 1336ERGO    R319452  13.911  14.080   7.513 -0.0750 -0.0876 -0.0453
 1336ERGO    R419453  14.146  13.994   7.665  0.0070  0.0226 -0.1201
 1336ERGO    R519454  13.949  13.901   7.666  0.0177  0.0084  0.0418
 1336ERGO    C119455  13.985  13.985   8.037  0.2055  0.2289 -0.0233
 1336ERGO    C219456  14.015  13.982   8.325 -0.0802  0.0671 -0.2036
 1337ERGO   ROH19457  17.196   9.721   6.715 -0.0316  0.0482  0.0812
 1337ERGO    R119458  17.047   9.659   6.948 -0.0826  0.1474  0.0748
 1337ERGO    R219459  17.137   9.481   7.139 -0.1953  0.1113  0.0907
 1337ERGO    R319460  17.094   9.690   7.307 -0.0912  0.1460  0.0767
 1337ERGO    R419461  17.107   9.456   7.482  0.0307  0.1800  0.1184
 1337ERGO    R519462  16.946   9.603   7.474  0.0187  0.1744  0.1929
 1337ERGO    C119463  17.048   9.637   7.840  0.2599  0.2527  0.1215
 1337ERGO    C219464  17.011   9.530   8.220 -0.3228 -0.0271  0.1879
 1338ERGO   ROH19465  13.242   1.585   6.620 -0.0939  0.0477 -0.1934
 1338ERGO    R119466  13.398   1.687   6.833 -0.1331  0.0708 -0.1758
 1338ERGO    R219467  13.291   1.843   7.035 -0.2101 -0.0759 -0.1029
 1338ERGO    R319468  13.403   1.655   7.195 -0.0640 -0.0625 -0.1881
 1338ERGO    R419469  13.372   1.889   7.368 -0.0739 -0.1044 -0.1317
 1338ERGO    R519470  13.556   1.777   7.334 -0.0461 -0.0290 -0.2366
 1338ERGO    C119471  13.526   1.739   7.712  0.1427 -0.1083 -0.2284
 1338ERGO    C219472  13.498   1.635   8.115  0.3314 -0.1125 -0.1147
 1339ERGO   ROH19473  10.967   7.521   6.817 -0.1263  0.0201  0.0989
 1339ERGO    R119474  11.009   7.728   7.005  0.0340  0.0104  0.0757
 1339ERGO    R219475  10.843   7.769   7.221 -0.0469  0.2786 -0.0289
 1339ERGO    R319476  11.075   7.752   7.362 -0.1473  0.0023  0.1093
 1339ERGO    R419477  10.884   7.878   7.547 -0.1435  0.0821  0.0504
 1339ERGO    R519478  11.081   7.954   7.491 -0.0410 -0.0672  0.2109
 1339ERGO    C119479  11.125   7.925   7.869 -0.2940 -0.2917  0.2263
 1339ERGO    C219480  11.010   7.981   8.081 -0.2127  0.0455 -0.3366
 1340ERGO   ROH19481   1.997   4.717   6.686 -0.0293 -0.0544  0.0223
 1340ERGO    R119482   2.173   4.650   6.897 -0.0157 -0.2025 -0.0367
 1340ERGO    R219483   2.197   4.803   7.126  0.2058 -0.2104 -0.0598
 1340ERGO    R319484   2.143   4.568   7.250  0.0377 -0.1530 -0.0185
 1340ERGO    R419485   2.208   4.752   7.468  0.1360 -0.1389 -0.0454
 1340ERGO    R519486   2.299   4.558   7.431  0.0176 -0.2123  0.0026
 1340ERGO    C119487   2.163   4.501   7.783 -0.0626 -0.0434  0.0018
 1340ERGO    C219488   2.204   4.527   8.093  0.0642  0.1370  0.0195
 1341ERGO   ROH19489   6.591   8.609   6.768  0.0532  0.0998 -0.0926
 1341ERGO    R119490   6.474   8.564   7.022  0.0076  0.2972 -0.0779
 1341ERGO    R219491   6.598   8.416   7.219 -0.2113  0.0904 -0.0964
 1341ERGO    R319492   6.555   8.639   7.368  0.1774  0.1664 -0.0863
 1341ERGO    R419493   6.595   8.424   7.565 -0.6127 -0.0276 -0.0923
 1341ERGO    R519494   6.425   8.561   7.554 -0.2640  0.4243 -0.2653
 1341ERGO    C119495   6.552   8.638   7.906 -0.4815 -0.0248 -0.0805
 1341ERGO    C219496   6.687   8.716   8.224 -0.1380  0.1772 -0.2357
 1342ERGO   ROH19497   7.194   7.828   6.769  0.0993  0.1178 -0.0671
 1342ERGO    R119498   7.294   7.725   7.013 -0.0110  0.1676 -0.0006
 1342ERGO    R219499   7.263   7.856   7.254 -0.2067  0.1677 -0.0285
 1342ERGO    R319500   7.155   7.619   7.332 -0.1652  0.1316 -0.0773
 1342ERGO    R419501   7.249   7.742   7.580 -0.3610  0.1949 -0.0246
 1342ERGO    R519502   7.298   7.543   7.508 -0.2390  0.2032  0.0191
 1342ERGO    C119503   7.138   7.453   7.843 -0.4121  0.1770 -0.0683
 1342ERGO    C219504   7.098   7.145   8.123  0.1866  0.0598 -0.2529
 1343ERGO   ROH19505  16.580  10.872   6.873  0.1100  0.0096  0.0857
 1343ERGO    R119506  16.480  10.988   7.112  0.1493  0.0291  0.0927
 1343ERGO    R219507  16.339  10.842   7.300 -0.0080  0.0908  0.0255
 1343ERGO    R319508  16.528  10.940   7.469  0.0349 -0.1007  0.0912
 1343ERGO    R419509  16.339  10.798   7.643  0.0588 -0.2585 -0.0150
 1343ERGO    R519510  16.406  11.005   7.664  0.0828 -0.2868  0.1840
 1343ERGO    C119511  16.516  10.865   8.001  0.1383 -0.6418  0.0231
 1343ERGO    C219512  16.405  10.798   8.314 -0.2117  0.0402 -0.0367
 1344ERGO   ROH19513   1.186   3.874   6.666 -0.1841  0.1410  0.0680
 1344ERGO    R119514   1.082   3.932   6.923 -0.1762  0.0508  0.0935
 1344ERGO    R219515   0.953   3.742   7.078  0.0067 -0.0630  0.1223
 1344ERGO    R319516   1.138   3.816   7.263 -0.0048  0.0831  0.0750
 1344ERGO    R419517   0.907   3.729   7.420  0.1541 -0.2004  0.1365
 1344ERGO    R519518   1.011   3.919   7.437 -0.0445 -0.0996  0.1493
 1344ERGO    C119519   1.055   3.790   7.793  0.2291 -0.1433  0.1004
 1344ERGO    C219520   0.962   3.866   8.107  0.2358  0.1504  0.0022
 1345ERGO   ROH19521   7.097   5.028   6.326  0.1484  0.1122 -0.0327
 1345ERGO    R119522   7.045   5.074   6.601  0.0314  0.0565 -0.0447
 1345ERGO    R219523   6.816   4.986   6.726  0.0975 -0.1983 -0.1003
 1345ERGO    R319524   6.992   4.870   6.898  0.1855 -0.0038 -0.0570
 1345ERGO    R419525   6.786   4.988   7.070  0.0542 -0.1531 -0.1041
 1345ERGO    R519526   7.002   5.021   7.083  0.0262  0.0462 -0.0862
 1345ERGO    C119527   6.935   4.881   7.432  0.1116  0.0558 -0.0656
 1345ERGO    C219528   6.870   4.958   7.733  0.0011 -0.0883  0.1324
 1346ERGO   ROH19529   9.557   6.411   6.854  0.3340 -0.3279  0.1769
 1346ERGO    R119530   9.457   6.523   7.094  0.4480 -0.0575  0.1029
 1346ERGO    R219531   9.311   6.375   7.278  0.0246  0.2885  0.0608
 1346ERGO    R319532   9.500   6.465   7.451  0.1394 -0.0870  0.1390
 1346ERGO    R419533   9.251   6.467   7.605  0.0669  0.4016  0.0370
 1346ERGO    R519534   9.389   6.634   7.578  0.4149  0.1377  0.0947
 1346ERGO    C119535   9.393   6.605   7.959  0.1991  0.1149  0.0965
 1346ERGO    C219536   9.346   6.572   8.273  0.0205  0.0231 -0.0861
 1347ERGO   ROH19537  15.340  10.126   6.535  0.0025 -0.1076  0.0378
 1347ERGO    R119538  15.333  10.038   6.804  0.0031 -0.1292  0.0314
 1347ERGO    R219539  15.547  10.067   6.975 -0.0131 -0.0945  0.0511
 1347ERGO    R319540  15.362  10.190   7.133 -0.0528 -0.1454  0.0429
 1347ERGO    R419541  15.509  10.013   7.315  0.1194  0.0509  0.0896
 1347ERGO    R519542  15.293  10.020   7.287  0.1090 -0.1141  0.1482
 1347ERGO    C119543  15.315  10.097   7.660  0.1593  0.0878  0.1042
 1347ERGO    C219544  15.281  10.093   8.052  0.1049  0.0255 -0.1729
 1348ERGO   ROH19545   0.247  11.602   6.729 -0.3480  0.0537  0.0610
 1348ERGO    R119546   0.188  11.540   6.998 -0.1176 -0.1734  0.0638
 1348ERGO    R219547   0.381  11.461   7.179  0.1158  0.0997 -0.0573
 1348ERGO    R319548   0.283  11.667   7.326 -0.2015 -0.1347  0.0734
 1348ERGO    R419549   0.363  11.465   7.524  0.4509 -0.0038 -0.0348
 1348ERGO    R519550   0.167  11.561   7.507  0.2097 -0.4302  0.1772
 1348ERGO    C119551   0.261  11.662   7.863  0.3481 -0.2840  0.1010
 1348ERGO    C219552   0.321  11.498   8.164  0.1151 -0.3234 -0.2260
 1349W        W19553   3.697   0.269  17.194 -0.0065 -0.0852  0.1143
 1350W        W19554  14.628   3.676   3.257  0.0395  0.1051 -0.0150
 1351W        W19555   6.318  15.544  15.810 -0.3813  0.1315  0.1010
 1352W        W19556  14.581   6.776   1.572  0.1322  0.0928  0.1469
 1353W        W19557  16.804  15.467  14.506  0.1095  0.0851  0.2996
 1354W        W19558  16.774   6.475   3.314  0.0094  0.2197 -0.0641
 1355W        W19559  14.241  14.443   0.437  0.1034  0.0941 -0.0944
 1356W        W19560  17.057   8.745   2.404 -0.0973 -0.1440 -0.2450
 1357W        W19561   1.095  12.960  15.881  0.0309  0.0117  0.2010
 1358W        W19562  13.950  15.040  13.685  0.0580 -0.1385 -0.0803
 1359W        W19563   6.704  11.145  16.110 -0.2489 -0.0136 -0.1589
 1360W        W19564   8.590   4.322   3.644  0.2430 -0.0133 -0.0785
 1361W        W19565   5.144  16.871   1.754  0.0764 -0.1223 -0.0941
 1362W        W19566   9.874  12.362   3.370  0.2196 -0.0944  0.1707
 1363W        W19567   1.854   3.755  16.812  0.1902  0.0869  0.2520
 1364W        W19568  17.200  12.849  15.115 -0.0837  0.0266 -0.2173
 1365W        W19569  15.830   7.121  12.806 -0.1534  0.2616  0.0279
 1366W        W19570   0.125  15.865   3.843 -0.0146 -0.5210 -0.1958
 1367W        W19571   4.467   2.440   2.275  0.1234  0.2108 -0.1596
 1368W        W19572   2.548   7.944  13.617 -0.1785 -0.0507  0.0104
 1369W        W19573   1.515  10.591  14.593 -0.0915  0.2042 -0.0546
 1370W        W19574   3.047   4.504   0.625 -0.2132 -0.2175 -0.1436
 1371W        W19575   4.087  16.204  17.319  0.2172 -0.4681  0.0056
 1372W        W19576  10.512   0.631  13.766  0.0312  0.0901 -0.0577
 1373W        W19577   4.353  14.340   1.465 -0.0262 -0.0112 -0.1209
 1374W        W19578  12.609  15.049  15.071 -0.1972 -0.0102 -0.1064
 1375W        W19579   4.928  11.839   2.540  0.0025 -0.2237 -0.0444
 1376W        W19580   3.834   6.928  14.646 -0.0848  0.1685  0.0517
 1377W        W19581   0.608  12.472  12.738  0.3977 -0.0715 -0.4161
 1378W        W19582   7.371  12.982   4.743 -0.3370  0.3868  0.1075
 1379W        W19583  16.130   5.191  15.271 -0.3409 -0.0925 -0.0265
 1380W        W19584  10.505   7.561   2.963 -0.0241  0.2559  0.1935
 1381W        W19585   7.963   5.657   3.810 -0.1430  0.3169 -0.0115
 1382W        W19586   0.691   6.022  15.830 -0.2376  0.1006 -0.2062
 1383W        W19587   0.789  13.861   4.328  0.0243 -0.0205 -0.1143
 1384W        W19588   9.692   5.451   6.868  0.0935 -0.0288 -0.0025
 1385W        W19589  17.226   3.119  15.326  0.1142 -0.3580  0.3623
 1386W        W19590   4.675  11.902   3.559  0.3379  0.0627  0.2412
 1387W        W19591  16.781  11.610   3.982 -0.0631 -0.0331  0.1522
 1388W        W19592   8.124   4.749  13.233 -0.0164  0.1088 -0.0075
 1389W        W19593   2.153   7.370  16.530 -0.2296 -0.1100  0.1886
 1390W        W19594  17.045  15.684  14.040 -0.4003 -0.0715 -0.0817
 1391W        W19595  15.133   4.781   0.622  0.2065 -0.0578 -0.1251
 1392W        W19596   7.509  12.912   3.327 -0.1915  0.0856 -0.1092
 1393W        W19597  17.155  14.630   3.763  0.6806 -0.3660  0.0218
 1394W        W19598   0.707  14.747   2.248 -0.0923  0.5417  0.0720
 1395W        W19599   8.684   4.285   5.729 -0.0801 -0.1715 -0.0336
 1396W        W19600  12.375   9.869  14.247 -0.1474 -0.0614 -0.0419
 1397W        W19601   2.622   6.708  16.237  0.0348 -0.0157 -0.3219
 1398W        W19602   7.709   3.740  13.574 -0.1332 -0.2303 -0.0054
 1399W        W19603   2.690   3.079   4.452 -0.0806 -0.0938 -0.0285
 1400W        W19604   3.340   7.603  11.886  0.1568  0.0971 -0.0954
 1401W        W19605  15.591   4.172   3.573  0.2140 -0.0416  0.0849
 1402W        W19606  12.393   8.890   2.275  0.4438  0.2511 -0.0230
 1403W        W19607  14.545   8.232   0.052  0.1451 -0.2481  0.1844
 1404W        W19608  16.314   0.050  14.994  0.4821  0.2046  0.1190
 1405W        W19609  14.597  12.319  14.406 -0.1331  0.2467  0.0289
 1406W        W19610   7.275   3.901   2.358 -0.0590 -0.0808  0.0455
 1407W        W19611   9.205   5.362  14.811 -0.0924  0.3164 -0.0973
 1408W        W19612  15.092  16.002   4.345 -0.0049 -0.0423  0.4489
 1409W        W19613   3.481   4.935  14.607 -0.1688 -0.1771  0.2611
 1410W        W19614  10.630   5.498   3.369  0.1147  0.2397 -0.1694
 1411W        W19615   9.983   7.523   3.764  0.2895  0.0828  0.2227
 1412W        W19616   8.558   9.389   4.619  0.2361 -0.1129 -0.0721
 1413W        W19617  14.163  13.164   3.696  0.3968  0.1668 -0.1522
 1414W        W19618   5.692   3.879  15.618 -0.2138 -0.0824 -0.1365
 1415W        W19619  12.157   6.933  15.501 -0.0255 -0.0531 -0.1880
 1416W        W19620   0.384  12.845  14.830  0.2505 -0.1103  0.3084
 1417W        W19621  16.528  10.132   3.507 -0.0316  0.0792 -0.1465
 1418W        W19622  11.882  11.245   3.294  0.2998 -0.0952  0.1646
 1419W        W19623   4.629   6.616  15.659 -0.2517  0.2898 -0.2493
 1420W        W19624  10.805   9.643   4.739 -0.0907  0.2068 -0.1280
 1421W        W19625  12.625   7.307   0.005 -0.0437  0.2958  0.0658
 1422W        W19626   5.146  16.424  12.880 -0.1018 -0.0185  0.0075
 1423W        W19627  10.868   5.926  15.647  0.3595 -0.2103 -0.1069
 1424W        W19628   5.383   5.389  17.077  0.0336  0.0942  0.1232
 1425W        W19629   0.462  16.321   2.062  0.1432 -0.1445  0.1963
 1426W        W19630   5.892   6.327  15.743 -0.0962  0.0492 -0.1607
 1427W        W19631  14.214   5.887  17.055 -0.2136 -0.0315  0.0358
 1428W        W19632   6.729   0.706  15.970  0.1177  0.1185 -0.0023
 1429W        W19633   1.990  16.068   3.136 -0.2301  0.0310 -0.0094
 1430W        W19634  10.499   6.331   1.352 -0.2233 -0.2337  0.0665
 1431W        W19635   1.927  14.299   4.212  0.1820 -0.2228  0.0684
 1432W        W19636  14.672   7.031  16.074  0.0236 -0.3552  0.0455
 1433W        W19637  15.774  13.221  13.690  0.1865 -0.0177  0.2843
 1434W        W19638   6.371  15.983  14.038  0.0027 -0.0988 -0.1451
 1435W        W19639  11.756   5.990   1.048 -0.1012 -0.3135  0.0037
 1436W        W19640  16.040   1.463  16.835  0.0181  0.1152 -0.2518
 1437W        W19641   8.598  13.855   0.762 -0.0423  0.0531  0.0971
 1438W        W19642   7.991   1.173  16.007  0.1158 -0.1066  0.1105
 1439W        W19643   9.045  11.378  14.456  0.0444 -0.3792  0.2230
 1440W        W19644   6.619   9.651   4.179 -0.1765 -0.1608  0.0428
 1441W        W19645   8.319  12.131  17.417  0.0133 -0.0729 -0.0018
 1442W        W19646  12.375  17.092   4.253 -0.0324 -0.2641 -0.2368
 1443W        W19647  11.498   6.715  14.055  0.1214  0.0450 -0.2603
 1444W        W19648  16.028  11.127   5.377  0.0407  0.2025 -0.1216
 1445W        W19649  10.158   2.875  14.831  0.0591 -0.0242  0.0691
 1446W        W19650   4.805   9.250  13.578  0.1046  0.1417 -0.0086
 1447W        W19651   0.968  11.349  16.355  0.2690  0.3360 -0.1291
 1448W        W19652  16.904  15.426   3.241 -0.0070 -0.1576  0.0074
 1449W        W19653   6.880   7.675  15.397  0.0609  0.2451 -0.1027
 1450W        W19654  13.679  11.011  12.492  0.2689 -0.1725  0.2407
 1451W        W19655   5.567  14.451   2.328  0.2326  0.1118  0.2325
 1452W        W19656  12.438  12.199  12.899 -0.3147  0.2602 -0.1449
 1453W        W19657  15.393  10.397  16.047  0.0158 -0.1503 -0.2301
 1454W        W19658   7.510   6.905  15.143  0.1870 -0.0268 -0.1211
 1455W        W19659  12.707   7.306   2.994  0.0753  0.0760  0.0932
 1456W        W19660  11.500  11.157   2.406 -0.1762  0.0004  0.2993
 1457W        W19661  15.747  10.114   2.999 -0.0103 -0.1623  0.0927
 1458W        W19662   8.921  14.608  15.905  0.0073  0.1341  0.0917
 1459W        W19663   1.138  12.676   3.227  0.0090 -0.2799 -0.0673
 1460W        W19664  15.808  11.665  16.848 -0.1874 -0.0588  0.0790
 1461W        W19665  10.463  11.643   1.872  0.1034 -0.0128  0.1161
 1462W        W19666   0.458   7.437  12.311 -0.1504 -0.1580  0.1207
 1463W        W19667  14.853   2.313   4.992  0.3190  0.0128 -0.0599
 1464W        W19668   6.499   0.971  14.135 -0.0325  0.0873  0.0670
 1465W        W19669   3.687   7.303  11.711  0.0951  0.3518  0.3017
 1466W        W19670   1.046   7.419  15.939 -0.0224 -0.2791 -0.0621
 1467W        W19671  13.700   4.269   0.885 -0.0287  0.1235  0.0526
 1468W        W19672   0.713   5.719   3.657 -0.0158 -0.1309  0.2778
 1469W        W19673   0.050   8.763  13.689  0.3014  0.1283  0.0752
 1470W        W19674   5.264   0.254  14.904 -0.1597  0.0313  0.0849
 1471W        W19675   1.540  16.362   0.583  0.0951  0.3073 -0.2479
 1472W        W19676   0.254  14.759   4.761 -0.1089 -0.3042 -0.1561
 1473W        W19677  10.101   5.200  12.422 -0.2410  0.0324 -0.0049
 1474W        W19678   7.372   7.667  15.725 -0.1598  0.2195  0.0533
 1475W        W19679   3.208   6.731   3.701 -0.0302 -0.1730 -0.0489
 1476W        W19680   4.645  16.119  14.108  0.0798  0.0022  0.2645
 1477W        W19681  11.394   9.618   1.947 -0.1134  0.2174  0.2172
 1478W        W19682   6.343  10.236   4.034  0.1903 -0.2970 -0.2151
 1479W        W19683   5.506   9.732  15.905 -0.1964  0.1740  0.0434
 1480W        W19684  10.922   6.121  15.122 -0.1001 -0.0534 -0.0432
 1481W        W19685   5.192   6.660   1.694  0.0597 -0.0378  0.1776
 1482W        W19686  10.719   4.783   0.473 -0.2666 -0.1181  0.3744
 1483W        W19687  16.606  12.604  12.560  0.3176  0.1735 -0.2133
 1484W        W19688   9.783  14.396   2.649  0.2977 -0.1976 -0.2605
 1485W        W19689   3.759   3.946   0.696 -0.1188  0.1155 -0.0990
 1486W        W19690   1.281  12.795   4.639 -0.0294  0.0498  0.0103
 1487W        W19691   8.014  10.395   4.673 -0.0346 -0.1539  0.0608
 1488W        W19692  14.464   0.596   5.147  0.1887  0.1398  0.1871
 1489W        W19693  11.086   1.708  16.571 -0.0267  0.2333  0.0256
 1490W        W19694   7.609   2.090  15.495  0.0923  0.0973  0.3270
 1491W        W19695   4.216   6.642  11.992  0.0466 -0.0097 -0.0645
 1492W        W19696  10.799  11.683  13.103 -0.4688 -0.0322  0.0383
 1493W        W19697   0.543   4.639  16.463  0.0203 -0.0898  0.0693
 1494W        W19698  13.116   0.816  14.061 -0.2212  0.1425 -0.1575
 1495W        W19699  12.857  14.763   4.199  0.3284  0.0900 -0.0425
 1496W        W19700  14.033  14.456  14.738 -0.0061 -0.0875  0.0418
 1497W        W19701   1.164  17.285   4.619  0.1962 -0.2042 -0.4128
 1498W        W19702  15.674   7.598   0.639 -0.2682  0.0051  0.1260
 1499W        W19703  14.517   7.548  14.789 -0.1943  0.0936 -0.0546
 1500W        W19704   7.714   5.671   1.401 -0.0400  0.3585  0.0906
 1501W        W19705   4.948   7.303  13.892  0.1681  0.1584  0.2471
 1502W        W19706   9.763  14.328  16.100  0.0287  0.1636 -0.2335
 1503W        W19707   3.200   5.573   2.379 -0.0838 -0.1070 -0.1695
 1504W        W19708  11.462   7.826   1.439  0.0612 -0.2192 -0.0079
 1505W        W19709   2.065   6.838  13.722 -0.0618  0.0981 -0.0336
 1506W        W19710   8.909   6.371  16.591 -0.0091  0.0463 -0.0179
 1507W        W19711   4.760  16.600  14.241 -0.1428 -0.2075 -0.0342
 1508W        W19712   1.128  11.425   2.029 -0.0878 -0.1237  0.0447
 1509W        W19713   0.757   5.080  16.687 -0.1695  0.2886 -0.2335
 1510W        W19714  16.840  15.261   1.088  0.0290 -0.2143  0.0497
 1511W        W19715  15.841   7.379   3.858  0.0377 -0.1670  0.4454
 1512W        W19716  11.040  10.754   2.846  0.0671 -0.0406  0.0329
 1513W        W19717  12.761   2.117  14.429 -0.1000 -0.0450 -0.2496
 1514W        W19718   6.405   5.738  14.718  0.1195  0.3840  0.0572
 1515W        W19719  14.600   5.010  15.854  0.1595 -0.1494  0.2836
 1516W        W19720  16.654  16.997  17.436 -0.3695 -0.1156  0.3741
 1517W        W19721  11.436  14.552   2.996 -0.1807  0.4270 -0.0716
 1518W        W19722   5.949  12.303   4.814  0.0836 -0.0723  0.2026
 1519W        W19723   4.321  10.791   4.666  0.4181  0.1584  0.0450
 1520W        W19724   4.876  13.085   4.536  0.3397 -0.1266 -0.2677
 1521W        W19725  16.987   2.645   3.177  0.0368  0.1640 -0.0459
 1522W        W19726   7.355   9.895   0.855  0.0203  0.0299  0.1588
 1523W        W19727   4.562   9.221   1.977  0.2142 -0.0412 -0.1536
 1524W        W19728   8.469  14.054  16.077  0.2016 -0.0954  0.2301
 1525W        W19729  14.044   6.954   3.844  0.0867  0.0299  0.0711
 1526W        W19730   2.592   4.408   0.891 -0.2261 -0.2820  0.2659
 1527W        W19731   0.747  16.920  15.613 -0.0167 -0.2037  0.1629
 1528W        W19732  15.586   6.751  14.265 -0.3434  0.0411  0.0336
 1529W        W19733  15.273  15.026   0.339  0.0475  0.0289 -0.1547
 1530W        W19734   2.344   2.621   0.160 -0.0296  0.1384  0.0942
 1531W        W19735  12.501   3.670  13.464 -0.3262 -0.0383 -0.2995
 1532W        W19736   9.554  11.809  16.614  0.1576  0.0586  0.0932
 1533W        W19737  14.334   4.546   3.624  0.0021 -0.2542  0.0480
 1534W        W19738   0.309   8.874   3.256  0.2847 -0.1078  0.0145
 1535W        W19739   1.288   9.116   2.664 -0.0473  0.3086 -0.0714
 1536W        W19740  15.659  13.241   0.831  0.3515  0.2699 -0.2652
 1537W        W19741   5.343   4.376  12.542  0.0385 -0.2439 -0.2206
 1538W        W19742  10.475   7.114  15.249 -0.2221  0.0670 -0.4559
 1539W        W19743   8.728   0.448   4.230 -0.1132 -0.3945 -0.0692
 1540W        W19744  12.941   1.107   5.535  0.2621 -0.2152 -0.2213
 1541W        W19745  17.310  15.489  16.873  0.4005  0.0121 -0.2374
 1542W        W19746  14.565  12.000   0.187  0.1024  0.0239 -0.0343
 1543W        W19747   1.319   6.530   0.881  0.0070 -0.1047  0.1132
 1544W        W19748   5.765   0.289   1.828  0.5146  0.1249  0.0033
 1545W        W19749   1.356   1.598  16.216  0.3750  0.3832 -0.3400
 1546W        W19750   0.615   2.616  15.384 -0.1961 -0.0225 -0.1814
 1547W        W19751   3.965  11.474   2.234  0.0117 -0.1344  0.1731
 1548W        W19752  13.729  12.465   1.240  0.2862  0.2805 -0.3317
 1549W        W19753  12.409   4.942   3.838 -0.2320 -0.0760  0.1546
 1550W        W19754  13.325   2.823   1.099 -0.1240 -0.0575  0.2734
 1551W        W19755   3.068   9.688   0.230 -0.1713  0.1834 -0.3755
 1552W        W19756   2.693   1.680   0.568 -0.0742 -0.1426  0.1210
 1553W        W19757   7.553  10.998  16.119  0.0140  0.1633  0.1969
 1554W        W19758  16.827   0.488   4.609  0.0601 -0.0642  0.1731
 1555W        W19759   7.417  12.485  14.465  0.1740 -0.2125 -0.2573
 1556W        W19760  17.090   4.910   3.395 -0.4462  0.1203  0.0010
 1557W        W19761   3.572   2.904  16.951  0.0996  0.3251  0.1791
 1558W        W19762   3.644   1.009  16.504  0.1419  0.0897  0.5332
 1559W        W19763   7.555  15.373   4.873 -0.0538 -0.0705 -0.2245
 1560W        W19764  11.925   4.657  12.747 -0.2140 -0.2146  0.2117
 1561W        W19765   7.412   1.563   5.133 -0.2621 -0.0246 -0.1069
 1562W        W19766  16.297   8.002  16.294  0.1493 -0.0786 -0.1287
 1563W        W19767  17.028  13.809  13.330  0.1226  0.2608  0.1349
 1564W        W19768   2.818  12.759   3.673  0.0761  0.2115  0.1533
 1565W        W19769  11.250   9.703   3.401  0.0829 -0.1592 -0.0152
 1566W        W19770  16.635  11.783  16.598 -0.0922  0.1073 -0.2008
 1567W        W19771   1.823   0.049   1.863 -0.1239 -0.1804  0.0427
 1568W        W19772   4.071  11.924   3.990  0.4231 -0.2795  0.1212
 1569W        W19773   5.849   7.324   2.585 -0.1716 -0.1915  0.1711
 1570W        W19774   4.783  17.315  14.848  0.1591 -0.0998 -0.0285
 1571W        W19775   9.683   1.926   4.741 -0.0210  0.1769  0.0062
 1572W        W19776  15.325  13.482   5.110  0.1168  0.5637  0.0591
 1573W        W19777  13.332   2.164  16.089  0.0585 -0.0835  0.3915
 1574W        W19778  15.127   4.034  13.111 -0.0731  0.0647  0.0779
 1575W        W19779   5.071  16.248   0.160 -0.2255 -0.2266 -0.0039
 1576W        W19780  11.623   7.648  13.750  0.1123 -0.0471  0.3360
 1577W        W19781   8.145  12.122  12.512  0.2314 -0.0914  0.2364
 1578W        W19782   8.306  11.084  16.037 -0.0127 -0.0284  0.2405
 1579W        W19783   8.324   4.322   2.469  0.1362 -0.0175  0.1401
 1580W        W19784  10.109  15.332   2.697  0.1761  0.0982 -0.0755
 1581W        W19785   7.050   1.334   3.529 -0.1547  0.3301  0.2158
 1582W        W19786   6.285   2.478   2.869 -0.1282 -0.2438 -0.0832
 1583W        W19787  11.580   1.947  17.183  0.0076  0.0046  0.1589
 1584W        W19788   7.938   6.974   3.520  0.0078  0.0120  0.1297
 1585W        W19789   5.162   4.688  11.665 -0.0357  0.1000 -0.1834
 1586W        W19790   0.033  10.882  14.953 -0.4363  0.2095  0.0384
 1587W        W19791  12.054   2.448  14.749  0.2147  0.0427  0.0482
 1588W        W19792   2.963  11.128   5.159  0.1830  0.1289 -0.0925
 1589W        W19793  12.663   5.742  16.028  0.1740 -0.0473 -0.4752
 1590W        W19794  11.164  14.999   4.468 -0.0305  0.0369  0.0232
 1591W        W19795  14.341  15.724  11.461 -0.1075 -0.2421 -0.1896
 1592W        W19796   7.529   9.582   3.668 -0.0806 -0.2239  0.0436
 1593W        W19797   5.345   9.490   1.778 -0.1908 -0.0150  0.1570
 1594W        W19798  15.001  12.039   3.047  0.0392 -0.1584  0.3287
 1595W        W19799   3.599  15.537  14.102  0.0625  0.4595  0.0379
 1596W        W19800   8.272  10.915   1.531 -0.1527  0.1210  0.0832
 1597W        W19801   5.255   1.950  13.489 -0.0292  0.0564  0.1198
 1598W        W19802  11.531  10.702   1.101  0.0426  0.0643  0.0219
 1599W        W19803  11.604   9.112   4.516 -0.1391 -0.3609 -0.2273
 1600W        W19804  11.098  10.902  15.944  0.1059  0.2883 -0.1567
 1601W        W19805  14.543   0.961   1.072  0.2753 -0.0781 -0.1627
 1602W        W19806  10.303  15.890   3.532 -0.1567 -0.1296 -0.0775
 1603W        W19807   4.074   0.521   1.436 -0.0563  0.1497  0.2000
 1604W        W19808   9.299  17.140  16.059  0.0365 -0.0762  0.2832
 1605W        W19809  12.507   7.790  13.206 -0.0550  0.1225 -0.1039
 1606W        W19810   1.623   3.610   0.122 -0.2008  0.1915  0.1448
 1607W        W19811  10.006   7.779  17.470 -0.0240  0.1963  0.2728
 1608W        W19812   1.799   5.781   1.905 -0.2669 -0.1781 -0.0927
 1609W        W19813  14.077   6.428   4.365 -0.6097 -0.2074 -0.2082
 1610W        W19814  16.273  14.768  16.900 -0.1485  0.2256 -0.0144
 1611W        W19815   7.503  15.074  15.109 -0.0870  0.0766 -0.1970
 1612W        W19816   2.729   3.863   5.462 -0.0272 -0.3323  0.2152
 1613W        W19817  10.852  14.385   1.590 -0.1479  0.0598  0.0093
 1614W        W19818  15.015  11.229  15.555 -0.1060 -0.0604 -0.0215
 1615W        W19819   7.688   8.843   3.917  0.0144  0.1600  0.0010
 1616W        W19820  11.118  16.383  14.411  0.1668  0.0258  0.2444
 1617W        W19821  10.038   4.439   5.361  0.0831  0.2094 -0.1960
 1618W        W19822   6.331   7.397   4.646 -0.3730  0.0854  0.2011
 1619W        W19823   2.264   5.725  14.317  0.3052 -0.2473 -0.1120
 1620W        W19824   3.910  12.865  15.600  0.2152  0.4284  0.2557
 1621W        W19825  13.944   2.205  12.370 -0.0021 -0.1599  0.0052
 1622W        W19826  10.337   1.154  15.593  0.0237 -0.0096 -0.0141
 1623W        W19827   9.095  12.922  12.524 -0.3248  0.1251 -0.0686
 1624W        W19828   4.289   3.421   4.477  0.0685 -0.0652  0.0159
 1625W        W19829  11.258   2.350  17.092 -0.2999 -0.1458  0.2346
 1626W        W19830  10.607   9.519  17.408  0.0079  0.1208  0.2220
 1627W        W19831   5.728   7.462   2.052  0.0791  0.1268 -0.1780
 1628W        W19832   3.063  12.103  12.313  0.0897  0.1073 -0.0841
 1629W        W19833   2.120  13.280   2.270  0.1184  0.0842 -0.2945
 1630W        W19834  12.189   9.799   3.604 -0.2954  0.0954  0.0723
 1631W        W19835   4.646   1.095   2.323  0.0322 -0.1769  0.3086
 1632W        W19836   3.521   3.967  15.901  0.3000  0.0640  0.1695
 1633W        W19837  10.278   0.528   0.901  0.1883 -0.0474 -0.1732
 1634W        W19838  11.001  17.224  15.177 -0.1006  0.2105  0.0135
 1635W        W19839  10.141  11.482  15.090 -0.1299 -0.2329  0.0781
 1636W        W19840   4.673   2.952   0.399  0.1168 -0.2832 -0.1747
 1637W        W19841   4.178  11.624   3.608 -0.0070  0.0958  0.2815
 1638W        W19842   3.156   9.891  17.234  0.1776 -0.1181  0.0575
 1639W        W19843  13.058   0.145  15.826  0.1225 -0.1358 -0.0488
 1640W        W19844  12.496   5.364  13.480 -0.2301  0.0218  0.0361
 1641W        W19845   5.363  11.654   2.262 -0.1529 -0.1207 -0.0002
 1642W        W19846  15.495   3.111  15.861  0.0422 -0.1189  0.2086
 1643W        W19847  10.747   5.798  13.333 -0.0283 -0.0698  0.2614
 1644W        W19848  12.810  13.825  16.984 -0.4453  0.0196 -0.2216
 1645W        W19849  11.067   5.723  17.249 -0.2427 -0.0317  0.1894
 1646W        W19850  12.464   3.916  14.494 -0.1533  0.1216  0.2117
 1647W        W19851   4.721  11.950   3.063 -0.0554 -0.0870  0.0155
 1648W        W19852  10.836   6.829  12.710 -0.2477  0.0846  0.0106
 1649W        W19853  16.348  10.469  12.702  0.1630  0.3159  0.1738
 1650W        W19854   9.452   3.430   5.137  0.1665  0.1237 -0.0721
 1651W        W19855  16.562  12.866   4.456 -0.1807  0.1602  0.1028
 1652W        W19856  16.665  12.866   5.398  0.2269 -0.0344  0.2666
 1653W        W19857  16.046  13.472   5.535 -0.0478  0.0300 -0.0025
 1654W        W19858  15.110   1.794   0.806 -0.1088 -0.0443 -0.1737
 1655W        W19859  12.900  16.772  16.395 -0.0941  0.1149 -0.2050
 1656W        W19860  16.752  12.267  17.221  0.1419 -0.1219  0.0866
 1657W        W19861  11.579  14.672  16.176 -0.0751 -0.3123  0.0074
 1658W        W19862   2.932   6.715   5.149  0.1199 -0.2336  0.1082
 1659W        W19863  13.290  10.253  14.213 -0.1342 -0.1725 -0.0329
 1660W        W19864   7.329  13.353   3.131  0.2740 -0.4480  0.4215
 1661W        W19865   2.661   8.570   3.840  0.1016  0.1041  0.0712
 1662W        W19866  15.577   2.472   2.122 -0.4913  0.0383  0.1066
 1663W        W19867   5.557  16.807  12.722  0.1322 -0.1971  0.0546
 1664W        W19868   1.279   4.156  12.576 -0.0645  0.3004 -0.1968
 1665W        W19869   5.147   6.806  17.392  0.5339  0.0702  0.3954
 1666W        W19870   4.338  14.604  12.427 -0.1623  0.0044  0.1338
 1667W        W19871  13.336   3.598  17.515 -0.0191  0.0276 -0.1446
 1668W        W19872   3.211   1.288  13.841  0.1134 -0.0371 -0.1084
 1669W        W19873  12.985   3.447   4.820  0.0386 -0.2416 -0.1799
 1670W        W19874  13.826   1.115   0.659  0.1050 -0.0395 -0.0585
 1671W        W19875   2.562   1.366  17.184 -0.2596 -0.0768 -0.0106
 1672W        W19876   7.853  12.850  14.505  0.1293  0.1765 -0.0222
 1673W        W19877   9.736  15.828   4.253 -0.3234 -0.1262 -0.0131
 1674W        W19878   8.749   7.093  14.585 -0.0189 -0.0187 -0.0284
 1675W        W19879  11.338   6.823   2.931 -0.0626 -0.0880 -0.1174
 1676W        W19880  10.370   5.416  17.529  0.1356 -0.3349  0.0969
 1677W        W19881  13.417   2.444   3.343 -0.1711  0.0947 -0.2654
 1678W        W19882  14.805   3.876   0.181 -0.0222 -0.1239  0.1372
 1679W        W19883   4.156   9.741   4.579 -0.2378 -0.0895  0.0570
 1680W        W19884   2.763  10.927   3.334 -0.0452 -0.2450 -0.0202
 1681W        W19885   1.185  16.380  11.305  0.3245 -0.1442  0.1346
 1682W        W19886   8.113   9.616   2.985 -0.2383 -0.2826  0.2749
 1683W        W19887   6.627   2.802   5.301  0.1684  0.1772  0.0455
 1684W        W19888  13.017  13.161   2.994  0.2643  0.1932 -0.2753
 1685W        W19889  14.428   9.433   3.042 -0.1522  0.3761 -0.2080
 1686W        W19890  15.427   9.855   3.577  0.2915  0.1289 -0.1877
 1687W        W19891  15.847  17.093  12.528 -0.0981 -0.2254 -0.0525
 1688W        W19892  12.329  16.784  14.797 -0.0761  0.0719 -0.0493
 1689W        W19893  13.106   8.772   1.585  0.1560 -0.1735 -0.1542
 1690W        W19894   7.719  15.783   2.187  0.2068 -0.1029  0.0707
 1691W        W19895   0.302  13.809  14.648 -0.0571  0.1357  0.0300
 1692W        W19896   9.691   8.792  15.796  0.0232  0.0337 -0.1077
 1693W        W19897  15.597  15.959  16.196  0.0422 -0.1032  0.0426
 1694W        W19898  12.006   0.516  15.034 -0.0703 -0.1079  0.0185
 1695W        W19899   2.651  14.384   3.737 -0.0539  0.1555 -0.0642
 1696W        W19900   9.492  10.105   1.137  0.1478  0.0169  0.0870
 1697W        W19901   1.334   9.176   1.568  0.0347 -0.0852  0.2900
 1698W        W19902  13.481   0.289  14.563 -0.1093  0.0779 -0.3314
 1699W        W19903  16.594   6.441   1.717 -0.0588 -0.2034 -0.0499
 1700W        W19904   1.537  14.884  15.661  0.1063  0.0101  0.3785
 1701W        W19905   0.086  11.237  16.978 -0.0957  0.1951 -0.1427
 1702W        W19906   7.494   3.339  12.549 -0.1646 -0.2801  0.2480
 1703W        W19907   6.472  13.655   4.668  0.1149  0.0830 -0.3792
 1704W        W19908  10.795  15.616   3.441 -0.4580 -0.5096  0.0052
 1705W        W19909   8.345   5.590   5.298 -0.2906 -0.4351 -0.0202
 1706W        W19910  12.686   5.142  12.256  0.0154  0.0665  0.3584
 1707W        W19911   1.160   6.920  15.824 -0.1181  0.1380  0.3012
 1708W        W19912  13.922   2.603  13.360 -0.1632  0.0778 -0.0677
 1709W        W19913  13.079  15.176  16.407  0.5970  0.1022  0.0872
 1710W        W19914   1.089   4.079   0.036 -0.1034  0.1043 -0.3017
 1711W        W19915   8.017  15.971   0.871 -0.1410  0.2309  0.1642
 1712W        W19916  11.892   8.624   2.968  0.2691 -0.2060  0.1031
 1713W        W19917  10.959  15.374   3.002 -0.1837  0.0626 -0.4601
 1714W        W19918   5.109  12.716  16.624 -0.1614  0.0114  0.2602
 1715W        W19919  10.038   2.699   3.704  0.2249 -0.0046  0.0200
 1716W        W19920   6.543  10.154   4.861  0.0071  0.1659  0.1478
 1717W        W19921  14.320   0.527   0.273  0.2385  0.1150  0.1497
 1718W        W19922  12.085  12.969  12.471  0.1446  0.1247  0.0059
 1719W        W19923   2.352   9.010   4.469  0.1458  0.2666  0.0382
 1720W        W19924  15.259   7.423  16.724  0.3492 -0.2938  0.0879
 1721W        W19925  12.951   9.266  13.752 -0.2382 -0.2172  0.2438
 1722W        W19926  11.984  15.353   4.219  0.1003 -0.3368  0.1443
 1723W        W19927   8.462  16.992   3.593  0.1351  0.0258 -0.3442
 1724W        W19928  14.218   9.281  14.919 -0.0953 -0.0096 -0.2967
 1725W        W19929  15.677   7.162   2.351 -0.0497 -0.0446  0.0484
 1726W        W19930  16.558  15.553  14.008 -0.0598 -0.2107  0.1068
 1727W        W19931   0.135  11.761  13.436 -0.2185 -0.0684  0.0763
 1728W        W19932  11.180   1.191   1.815  0.3200 -0.0858  0.1527
 1729W        W19933  10.410   8.735   3.461  0.2039 -0.0086 -0.0640
 1730W        W19934  17.022  15.247  16.465  0.0510  0.3505  0.0912
 1731W        W19935  11.193  10.692   0.165  0.0604 -0.1456  0.2562
 1732W        W19936  13.304   4.181   1.216 -0.0982  0.0622 -0.1882
 1733W        W19937  14.052   8.018  16.259  0.0905 -0.0432 -0.1629
 1734W        W19938   7.348   6.303   2.271 -0.0075 -0.2098  0.2143
 1735W        W19939  10.917   6.536   1.849 -0.2861  0.1630 -0.2156
 1736W        W19940   9.760   0.894   0.052 -0.1562 -0.1901  0.1604
 1737W        W19941  14.768  16.889   2.991  0.0535  0.0498 -0.2038
 1738W        W19942  13.111  12.880   4.336  0.3359  0.2992 -0.1020
 1739W        W19943  12.001   3.913   1.137  0.1596  0.3106  0.0587
 1740W        W19944   7.287  15.381   5.275  0.1503 -0.2094  0.0817
 1741W        W19945   3.361  14.079  15.268 -0.1767  0.0730 -0.1857
 1742W        W19946  12.256  12.724  14.264 -0.0948  0.1747  0.0831
 1743W        W19947   7.857   5.456   5.245  0.4065 -0.0665 -0.1496
 1744W        W19948  10.419   5.760  17.149  0.1387 -0.0112  0.2646
 1745W        W19949  16.100   1.683   4.702  0.4440 -0.1445  0.0573
 1746W        W19950   9.235   6.871   0.647  0.2989  0.0822  0.2343
 1747W        W19951  15.838   2.576  13.607  0.0841  0.1010  0.0641
 1748W        W19952   0.897   6.639   3.134  0.1950  0.2040  0.2377
 1749W        W19953   2.687   7.687  17.338  0.0998  0.0091 -0.0943
 1750W        W19954   1.728  16.012   0.945  0.2381 -0.0763  0.1778
 1751W        W19955   3.306  12.578  17.414 -0.1408  0.1945 -0.2768
 1752W        W19956  14.982  14.511   1.037  0.2705 -0.1159  0.1600
 1753W        W19957   8.937  16.820  17.119 -0.2288 -0.1024  0.0833
 1754W        W19958   5.476   6.314   1.290 -0.0892  0.0474 -0.0678
 1755W        W19959   2.718  10.051   2.720 -0.3338  0.1230 -0.0137
 1756W        W19960   1.227   4.778   0.869 -0.1426  0.0333  0.2537
 1757W        W19961   3.164   6.133   2.029 -0.3074  0.1091  0.0108
 1758W        W19962   9.942  15.650   1.201 -0.1384  0.1115 -0.0665
 1759W        W19963  12.581   3.564   2.876 -0.1326 -0.2883 -0.0319
 1760W        W19964   8.720   2.528   1.994  0.3203  0.2461 -0.1581
 1761W        W19965   9.752   2.115   5.287  0.0174  0.0485 -0.0109
 1762W        W19966   3.020   3.064   0.984  0.1844  0.2944  0.0685
 1763W        W19967   0.927   4.857  17.152  0.0535 -0.0917 -0.1898
 1764W        W19968   2.464  12.301   3.629  0.2976  0.2148 -0.0413
 1765W        W19969  16.845   5.621  17.166  0.2186 -0.1407 -0.0135
 1766W        W19970   4.721   2.909  15.065  0.2531  0.1867  0.0315
 1767W        W19971   6.262   0.913  13.697 -0.3149  0.0155  0.0448
 1768W        W19972  10.279  11.050  16.185 -0.1561  0.2319 -0.2379
 1769W        W19973   3.614  10.371   2.038  0.0448  0.1494  0.2659
 1770W        W19974   8.924  17.043   2.123  0.0008  0.2213 -0.2182
 1771W        W19975   2.468  12.618   0.996 -0.1029 -0.4068  0.1422
 1772W        W19976   9.142   0.720   1.805  0.2140 -0.0525  0.1554
 1773W        W19977  12.103  15.058   0.781  0.3303  0.1091  0.1506
 1774W        W19978  10.874   3.172   4.776 -0.1869  0.1505  0.0334
 1775W        W19979  16.781  10.709  13.911  0.1111 -0.0286 -0.1716
 1776W        W19980   3.404  17.061  13.042  0.0773  0.0796 -0.1914
 1777W        W19981  14.830   3.087  12.156  0.0946 -0.0688  0.0068
 1778W        W19982  11.058   1.241   3.908 -0.1417 -0.0382  0.1849
 1779W        W19983  13.760  11.143  15.666  0.0459 -0.1472 -0.1008
 1780W        W19984  14.373  15.875  12.161  0.0537  0.0344  0.3395
 1781W        W19985  12.163  10.956  16.516 -0.3154  0.1345 -0.0242
 1782W        W19986   7.688   2.091  16.423  0.0678 -0.2288  0.1568
 1783W        W19987   9.967   6.463  14.462  0.0037  0.0453  0.1454
 1784W        W19988  15.595  16.002   2.639  0.0009  0.3142 -0.0193
 1785W        W19989  11.272   8.787  17.454 -0.0234  0.0547  0.0980
 1786W        W19990   7.970   1.541  16.792  0.0545 -0.0608  0.0477
 1787W        W19991   0.532   5.412   1.166 -0.3227 -0.2273 -0.0540
 1788W        W19992   3.938   4.267  16.545  0.0103 -0.1046 -0.0123
 1789W        W19993  15.237   5.095   1.610  0.0360  0.1009 -0.0955
 1790W        W19994  15.552  11.307  16.585  0.1931 -0.2452 -0.1644
 1791W        W19995   0.899  11.592   5.394  0.1007  0.0042  0.3422
 1792W        W19996  16.408  15.336  12.762 -0.0539 -0.2196 -0.1298
 1793W        W19997   9.510   7.536   1.315  0.0332 -0.1368 -0.0847
 1794W        W19998   4.312  15.368  13.033  0.1114 -0.0050  0.5595
 1795W        W19999  13.464   3.585   3.335  0.1495 -0.1782  0.1104
 1796W        W20000  11.412   1.273  13.298 -0.1617 -0.1517  0.0047
 1797W        W20001   7.643   1.502  14.099  0.0989  0.3380 -0.3142
 1798W        W20002  12.233   5.581  15.445  0.2363  0.0400 -0.0226
 1799W        W20003  13.428   4.860   2.715  0.0649  0.0928  0.1651
 1800W        W20004   3.667  15.848   2.382 -0.2179  0.2510  0.0408
 1801W        W20005   4.728   0.556   1.550 -0.0615  0.1623 -0.0354
 1802W        W20006   7.077  14.296   4.857  0.0467  0.2775  0.1079
 1803W        W20007  14.938   0.352  16.955 -0.0249 -0.0597  0.1163
 1804W        W20008   3.175  14.450  16.856 -0.0093 -0.2099  0.1388
 1805W        W20009   5.674  10.563   3.058 -0.0941 -0.0818 -0.2102
 1806W        W20010   2.743  12.351  15.294  0.0109 -0.0385 -0.0171
 1807W        W20011   5.557   6.949   0.132 -0.3820 -0.0444 -0.1215
 1808W        W20012  15.007  14.968  15.366 -0.0660 -0.0840 -0.0630
 1809W        W20013   8.635   6.709  14.986  0.0355 -0.1425 -0.0633
 1810W        W20014   5.463  11.278  12.813  0.1384 -0.1576  0.1408
 1811W        W20015  15.787   0.825  15.841 -0.0453  0.0198 -0.2829
 1812W        W20016  10.946   9.333  14.911  0.1978  0.2872 -0.0945
 1813W        W20017   9.940   6.479   0.038  0.1136  0.0068  0.0587
 1814W        W20018   6.572  10.064  17.466 -0.1441  0.2409  0.0602
 1815W        W20019  15.677   5.325  14.058  0.0307 -0.2371 -0.2464
 1816W        W20020   4.628   0.224   4.759  0.0945  0.0118 -0.0430
 1817W        W20021   8.435  17.230   1.183  0.3654  0.0567  0.2324
 1818W        W20022   6.621  15.170  16.628 -0.0911  0.0335  0.3320
 1819W        W20023  12.807  11.185   6.170 -0.2943 -0.1026  0.0759
 1820W        W20024  15.155   8.391   5.523  0.0031  0.2759  0.1291
 1821W        W20025  15.879   8.318  11.807 -0.0610  0.2429 -0.5257
 1822W        W20026   1.035   7.073  13.092  0.1694 -0.0370  0.0392
 1823W        W20027   1.531   7.194   3.794  0.1147  0.0197 -0.3097
 1824W        W20028   4.314   0.552  13.801  0.4062 -0.1505  0.0955
 1825W        W20029   1.563  14.697   1.133  0.7145  0.2455  0.3143
 1826W        W20030   0.997   6.263  14.305 -0.0205 -0.3478 -0.0079
 1827W        W20031   5.579  11.069  13.324  0.1245 -0.3129 -0.2168
 1828W        W20032  16.854   8.289  13.323  0.1671 -0.0079 -0.0127
 1829W        W20033   7.925   4.332   4.468 -0.0094  0.2818  0.0038
 1830W        W20034   0.235  15.640   3.370  0.3705  0.2003 -0.1074
 1831W        W20035   0.214  14.620   1.835 -0.0157  0.1005 -0.1680
 1832W        W20036  17.331  11.652  17.408 -0.1796  0.0412 -0.4309
 1833W        W20037   5.359   5.943   0.960  0.1011 -0.1399 -0.0545
 1834W        W20038  13.488   3.220   1.457  0.0434  0.2020  0.0135
 1835W        W20039  15.780   1.245   5.196  0.1678 -0.1863  0.2515
 1836W        W20040   5.061   5.210  14.545 -0.0593 -0.0602 -0.1807
 1837W        W20041  13.765   8.613  14.739  0.1779  0.3095  0.0824
 1838W        W20042  12.933  15.679  16.417  0.2305 -0.1640 -0.2636
 1839W        W20043   0.567  17.210   1.510  0.1947  0.1484 -0.0061
 1840W        W20044  16.422  10.120   4.523  0.2690 -0.1365  0.1381
 1841W        W20045  11.832  11.016  16.894  0.2845 -0.0241  0.0867
 1842W        W20046   0.109   4.952  11.203 -0.0764 -0.2054 -0.2380
 1843W        W20047   9.377  11.827   4.336 -0.1497 -0.1137 -0.1262
 1844W        W20048  12.602   9.342   2.340 -0.0721  0.0520 -0.1632
 1845W        W20049  14.549   9.647   3.811 -0.0564 -0.0121  0.0151
 1846W        W20050  10.799   4.331  13.268 -0.1477 -0.1980 -0.1702
 1847W        W20051   4.561  12.204   4.221  0.2964 -0.2819  0.1973
 1848W        W20052  15.447  16.349   2.225  0.0007 -0.0926 -0.2513
 1849W        W20053  17.041  16.932   5.089 -0.1692  0.2716 -0.1225
 1850W        W20054  16.189  14.474  15.766  0.2668 -0.1085  0.0305
 1851W        W20055  10.564  11.148   2.779 -0.1121 -0.1080  0.2506
 1852W        W20056   0.034  16.692   1.989 -0.2227 -0.0577  0.1060
 1853W        W20057  15.728   1.353  14.581  0.1088 -0.2743 -0.0339
 1854W        W20058  16.357  11.333  14.365  0.0673  0.1368 -0.2500
 1855W        W20059   3.488  13.411   3.744 -0.2747 -0.0777 -0.0379
 1856W        W20060   0.009   4.356  13.015 -0.0023 -0.1228  0.1221
 1857W        W20061  17.046   4.566  11.998 -0.2840 -0.2145 -0.1317
 1858W        W20062  10.300   0.237   3.193 -0.1300 -0.0566 -0.0723
 1859W        W20063   6.204   6.386   0.722 -0.0653 -0.2891 -0.0382
 1860W        W20064   9.483   0.711  12.823 -0.0698  0.1521 -0.0043
 1861W        W20065   5.792   3.069  16.566  0.2421  0.0812  0.2614
 1862W        W20066  17.267  13.389   4.992 -0.0280  0.1776 -0.0116
 1863W        W20067  11.473   3.496   6.872 -0.3441  0.0197 -0.0468
 1864W        W20068   0.498  14.861  12.173  0.1762  0.0849  0.0608
 1865W        W20069  10.844   4.270   3.267 -0.1511 -0.1669 -0.0126
 1866W        W20070   0.922   8.472  12.001 -0.0381  0.0337 -0.0446
 1867W        W20071  11.121  12.891  15.064  0.1409  0.2528 -0.0830
 1868W        W20072   4.549   9.668  15.323  0.2331  0.0469 -0.1953
 1869W        W20073  17.257  13.072  13.179  0.1915 -0.0687 -0.2051
 1870W        W20074  12.041   3.996  12.169 -0.0815  0.0337  0.2182
 1871W        W20075   3.803  14.416   1.287 -0.1233 -0.0752  0.0888
 1872W        W20076  15.235   2.926  12.938  0.0606 -0.2398 -0.0621
 1873W        W20077  17.021  16.779  17.200  0.2360 -0.2115  0.0724
 1874W        W20078  13.921   4.355   0.414 -0.0310  0.1261 -0.0226
 1875W        W20079   0.499   0.263  16.977 -0.2485  0.2015  0.0001
 1876W        W20080   0.890   1.838   2.190 -0.3403 -0.2026 -0.1016
 1877W        W20081   0.316  10.899  14.359  0.1643 -0.3819 -0.0630
 1878W        W20082   4.640  13.627   3.918  0.0129  0.0950  0.1215
 1879W        W20083  10.640  15.420  14.448 -0.0149 -0.1046  0.2441
 1880W        W20084  11.376   0.433  15.853 -0.0444  0.3912 -0.1561
 1881W        W20085   6.209   2.308   1.582 -0.0128 -0.1735 -0.1069
 1882W        W20086  14.251   1.418   0.154 -0.0169 -0.1792 -0.0458
 1883W        W20087   2.808   8.400  13.935  0.3362 -0.0104  0.0676
 1884W        W20088   2.194  11.803   2.839 -0.0207  0.2426 -0.0497
 1885W        W20089   8.088   5.084   3.453 -0.0129 -0.0693  0.2028
 1886W        W20090  15.164   0.323  13.949 -0.0554  0.2029 -0.0570
 1887W        W20091  12.479  10.394   0.265 -0.2201 -0.3039  0.1129
 1888W        W20092   6.365   4.848  11.600  0.1700 -0.0497 -0.0304
 1889W        W20093  15.618   5.224  14.519  0.1029  0.2424 -0.0134
 1890W        W20094  15.452  12.162   3.659 -0.1443  0.2501 -0.1212
 1891W        W20095  13.001  12.686   2.157 -0.1389 -0.1839 -0.2233
 1892W        W20096  14.997   6.197   4.274 -0.4293 -0.2382  0.2946
 1893W        W20097  16.148  12.241  14.933 -0.0397  0.0750  0.0017
 1894W        W20098   4.173  13.427   1.451 -0.4972  0.0135  0.0175
 1895W        W20099   0.711  12.769  17.246  0.0948  0.2343 -0.2654
 1896W        W20100   4.795  10.314  14.952  0.3804  0.1424  0.0520
 1897W        W20101  11.040   7.246  14.321 -0.1601  0.1074  0.1419
 1898W        W20102   3.584   5.075  12.842  0.0070  0.0904  0.3067
 1899W        W20103  11.478   6.357   1.188 -0.1461 -0.1962 -0.0172
 1900W        W20104  11.228  15.064   3.297 -0.2815 -0.1911 -0.1867
 1901W        W20105  12.284   9.045   2.794  0.0773 -0.0492 -0.2737
 1902W        W20106   1.073  13.477  15.141 -0.0113 -0.1665 -0.4168
 1903W        W20107   4.925   5.891  15.813  0.1399  0.0556 -0.1412
 1904W        W20108  10.267  12.460  13.470 -0.3407  0.1225 -0.1501
 1905W        W20109   6.733   3.504  17.039  0.2263  0.0105 -0.1414
 1906W        W20110  13.389  15.557  15.500  0.1642  0.0637 -0.1482
 1907W        W20111   6.379  13.489  14.513  0.2082 -0.1365 -0.2133
 1908W        W20112   5.884   5.731  16.222 -0.2882 -0.1909  0.1023
 1909W        W20113  13.297   3.452   0.817 -0.2940  0.0473  0.0625
 1910W        W20114   5.246   9.493   0.804 -0.0047 -0.1758  0.1075
 1911W        W20115  13.226   6.700   2.398 -0.1315 -0.0259  0.1708
 1912W        W20116   9.517  14.586  15.739  0.1802 -0.0653 -0.0241
 1913W        W20117  11.181   8.792  12.645  0.0970  0.0750  0.0250
 1914W        W20118   0.692   1.346  17.513 -0.0033  0.0594  0.1320
 1915W        W20119   6.837  14.026   4.024 -0.0266 -0.0498  0.0098
 1916W        W20120   0.177  11.226   1.894  0.1886  0.1638  0.0544
 1917W        W20121  15.764  12.237   5.916  0.1221 -0.5623 -0.0225
 1918W        W20122   9.489  11.912   2.586  0.1172 -0.0470 -0.2735
 1919W        W20123  14.376   6.571  12.974 -0.0110  0.1622  0.0812
 1920W        W20124   3.055   8.086  13.208  0.2097 -0.0401 -0.2814
 1921W        W20125   0.325   7.301  14.931  0.2654  0.1168  0.3252
 1922W        W20126   1.684   1.388  13.477  0.0782 -0.2467  0.0012
 1923W        W20127  15.960  14.981  15.853  0.0667 -0.0184 -0.0764
 1924W        W20128  10.963   1.219  14.148  0.0136 -0.0579 -0.2666
 1925W        W20129   4.789   8.893   2.382  0.1210 -0.2326  0.0336
 1926W        W20130  11.182  16.657  14.799 -0.0353  0.0895 -0.3324
 1927W        W20131  11.863   5.249   3.647 -0.1184 -0.0881  0.1219
 1928W        W20132  12.134  15.299   4.729  0.0970 -0.0741  0.2249
 1929W        W20133  11.449   2.556  12.713  0.1293 -0.0805 -0.0208
 1930W        W20134   7.165   2.239   3.755 -0.1944  0.1565 -0.0600
 1931W        W20135   6.150  16.408  15.848 -0.1955 -0.0234  0.2819
 1932W        W20136  11.140  12.042   3.086 -0.0592 -0.0645  0.0776
 1933W        W20137  12.844   7.413  15.849  0.0234 -0.2009 -0.0647
 1934W        W20138  14.545   1.767  14.195 -0.0186 -0.2728  0.0416
 1935W        W20139  14.202  15.480  15.585 -0.2354  0.0095  0.0953
 1936W        W20140   1.067   6.714  15.262 -0.0810 -0.3052 -0.1864
 1937W        W20141   1.032   8.435   0.783 -0.2186  0.1007  0.2128
 1938W        W20142   3.253   3.875  11.329  0.0769  0.1559 -0.1845
 1939W        W20143   4.380  11.102  15.408 -0.3425 -0.1491  0.2900
 1940W        W20144  16.844   4.452   3.589  0.0560  0.2950 -0.2617
 1941W        W20145   7.220   4.666  15.927 -0.1687 -0.0627 -0.0080
 1942W        W20146   8.771   6.055   1.020  0.1784  0.4423 -0.0611
 1943W        W20147   3.650  10.743  13.261 -0.0973  0.4466  0.1079
 1944W        W20148   4.693   6.009  13.515 -0.0312  0.1976  0.3264
 1945W        W20149   3.272  13.031  15.595 -0.2647 -0.2951  0.0284
 1946W        W20150  13.177   6.210   2.328  0.1655  0.0284  0.2841
 1947W        W20151   5.079   2.736   4.158 -0.0419  0.0229  0.0733
 1948W        W20152   0.933   5.440  14.203  0.0492  0.1413 -0.3952
 1949W        W20153   7.995  17.234  12.651  0.1040 -0.2455  0.1516
 1950W        W20154  14.931   2.664   3.200  0.5441 -0.1672  0.0052
 1951W        W20155   6.993  14.475   0.198  0.4190  0.2867  0.0957
 1952W        W20156   1.801  11.907  13.734  0.3870  0.1796  0.3824
 1953W        W20157  16.941   0.201  14.296  0.0229  0.1253  0.0719
 1954W        W20158  15.971   8.603  15.193  0.3257  0.1805 -0.2899
 1955W        W20159   2.187   3.297  12.581 -0.0949  0.3691  0.0572
 1956W        W20160   8.176   4.791   2.427  0.0126 -0.0257 -0.1047
 1957W        W20161   1.508   9.517  16.324  0.2071  0.1287  0.2120
 1958W        W20162  11.311  13.820   5.169  0.0550 -0.0653  0.1407
 1959W        W20163   8.571   3.578  15.860  0.0240 -0.3625  0.0379
 1960W        W20164   5.911   5.863  13.803 -0.1666 -0.0788 -0.2044
 1961W        W20165  10.613   5.829  12.838 -0.4198 -0.0380  0.1301
 1962W        W20166   1.923  16.487   1.877 -0.1124 -0.0305 -0.2632
 1963W        W20167   4.381  14.275  12.807 -0.1405 -0.0139  0.2126
 1964W        W20168   3.553   8.585  16.980  0.1988  0.0033  0.1795
 1965W        W20169   5.048   7.703  13.061  0.2055 -0.1475  0.1733
 1966W        W20170   6.800   7.094  12.746  0.1337 -0.0282 -0.0440
 1967W        W20171   8.753  13.382   1.139  0.2634  0.1553 -0.0274
 1968W        W20172   1.876  16.068   2.666 -0.0190  0.1188  0.0090
 1969W        W20173   8.755  15.137  17.189  0.2290 -0.2019  0.0563
 1970W        W20174   6.812  12.583  16.733  0.0829 -0.0159  0.1879
 1971W        W20175  10.427   7.695  16.136  0.0715 -0.0977  0.1169
 1972W        W20176   6.623   2.796  14.943  0.0834  0.0618 -0.4489
 1973W        W20177   3.754  10.025   4.832 -0.1524  0.1150  0.1356
 1974W        W20178   5.572  14.943   3.969  0.1121 -0.3239 -0.0454
 1975W        W20179   7.352   1.812  11.826  0.0627  0.0079  0.0155
 1976W        W20180   0.946  14.191   1.690 -0.0712 -0.0286 -0.2008
 1977W        W20181   0.600   3.763  12.673 -0.1964 -0.0672  0.0360
 1978W        W20182   2.660   4.580   1.408  0.0296 -0.0358 -0.3052
 1979W        W20183  13.792   7.644   1.407  0.0312  0.2440  0.0490
 1980W        W20184  16.541  12.470   5.110 -0.2692  0.0649  0.3079
 1981W        W20185   8.976   3.640   5.034  0.1873 -0.1246  0.3469
 1982W        W20186  10.178   0.164  12.548 -0.0989  0.1166 -0.0737
 1983W        W20187  12.443   0.738  15.742 -0.2339 -0.0515 -0.1948
 1984W        W20188   4.709  14.394   1.084 -0.1291  0.0146  0.1575
 1985W        W20189   8.243   6.538  17.182  0.2749  0.0602 -0.2514
 1986W        W20190   4.780   7.315  13.023 -0.0705  0.1340 -0.0619
 1987W        W20191   0.469   4.902   2.781 -0.2011 -0.1542  0.0783
 1988W        W20192  11.713  12.966   4.668 -0.0606  0.0703 -0.1442
 1989W        W20193  13.648   8.208   0.541 -0.0852 -0.3433 -0.0934
 1990W        W20194  10.644  10.294   5.175 -0.0166  0.1339 -0.0307
 1991W        W20195  10.997  11.160  13.124 -0.1256  0.1185  0.1598
 1992W        W20196  11.945   5.329   3.165  0.0709 -0.1557  0.0329
 1993W        W20197  14.094  17.306   1.606  0.1055  0.0154 -0.0807
 1994W        W20198  11.930  16.527  17.147  0.0090 -0.2413  0.3022
 1995W        W20199   7.744   1.568  15.612 -0.2352  0.2023 -0.1756
 1996W        W20200  12.363  14.869   4.885  0.1295 -0.1136 -0.0784
 1997W        W20201   2.786  15.021   0.556 -0.0640  0.4052 -0.1387
 1998W        W20202  15.367  13.093  12.685 -0.0282 -0.2090 -0.0786
 1999W        W20203  11.397   3.325  14.816 -0.1204  0.1471  0.0948
 2000W        W20204  10.413   2.712  15.451  0.0779 -0.0675  0.1028
 2001W        W20205  12.237   5.659   2.959  0.2058  0.1355  0.0887
 2002W        W20206   7.431  10.767  16.907  0.0724  0.0372 -0.3480
 2003W        W20207   3.050   7.301  16.588 -0.2544 -0.0528  0.2378
 2004W        W20208  17.136  15.567   3.705 -0.0214 -0.1077 -0.2508
 2005W        W20209  15.107   9.595   2.219  0.1411  0.1411 -0.1213
 2006W        W20210  15.550   1.405  16.586  0.0611 -0.1146 -0.2231
 2007W        W20211   1.150   5.897   1.855 -0.1949 -0.1522 -0.0980
 2008W        W20212  11.153   4.972   0.071 -0.0331 -0.2353 -0.1132
 2009W        W20213  11.430   8.171  14.425  0.1227  0.3228  0.0533
 2010W        W20214   9.337   2.242   3.077  0.3962  0.5142  0.1652
 2011W        W20215   5.845  13.943  15.949  0.0829 -0.3558  0.3339
 2012W        W20216   6.365  15.681   0.565 -0.0482 -0.4233 -0.0530
 2013W        W20217  13.809   6.376  12.972  0.0953 -0.2703  0.2248
 2014W        W20218  16.930   2.465   6.173  0.0816  0.2830 -0.0572
 2015W        W20219   6.193  14.196  14.109  0.1673 -0.0362  0.1391
 2016W        W20220  10.399  12.195   4.512 -0.4066  0.0387  0.1349
 2017W        W20221   0.150   8.357  13.969  0.0745  0.0378 -0.1221
 2018W        W20222   2.419   4.887  16.412  0.0479  0.2206 -0.0614
 2019W        W20223   7.146   4.009   3.228 -0.3160 -0.1662  0.1811
 2020W        W20224  15.226  13.831  16.916 -0.0102  0.0643 -0.1168
 2021W        W20225   8.261   0.244  14.162 -0.2557  0.0013 -0.0055
 2022W        W20226   8.216   3.576  14.808  0.1313  0.1528 -0.1405
 2023W        W20227  13.736   6.052   2.648  0.1298  0.1834  0.0791
 2024W        W20228   9.910   2.032  13.673 -0.1723  0.1925 -0.1986
 2025W        W20229   1.532   1.470   2.532 -0.0720  0.0501  0.1898
 2026W        W20230   7.032   4.143   2.739 -0.1212 -0.1019 -0.0711
 2027W        W20231  15.419   8.443  16.443  0.1116 -0.1402 -0.2315
 2028W        W20232   1.888  17.000   3.251 -0.1653 -0.0966  0.1937
 2029W        W20233   2.864   8.142  17.304  0.3003 -0.0374  0.0266
 2030W        W20234  15.937  16.908  16.315 -0.0577  0.0568  0.2099
 2031W        W20235  14.130   4.317  15.811  0.0829  0.0641  0.0386
 2032W        W20236   8.940  14.531  13.238 -0.0261 -0.1615 -0.0108
 2033W        W20237   8.999   7.022   1.052  0.2480  0.1687  0.0178
 2034W        W20238   3.723   0.792   3.915  0.1117 -0.2720 -0.1785
 2035W        W20239   2.916   0.239   4.952 -0.3406  0.2077 -0.1109
 2036W        W20240  14.421  10.526  15.765  0.0914  0.0347  0.1473
 2037W        W20241  13.491   4.882  16.782  0.1780 -0.1321  0.0200
 2038W        W20242  16.110  16.522   3.383  0.0140 -0.2440 -0.1538
 2039W        W20243  14.985  13.404  17.165 -0.1653 -0.1999 -0.2362
 2040W        W20244  11.671  14.290  11.879 -0.1485 -0.0905 -0.5041
 2041W        W20245  10.199   8.028   1.340 -0.0993  0.0684  0.0119
 2042W        W20246  15.787  13.328   2.241  0.0735 -0.1384  0.1699
 2043W        W20247  10.285   6.171   4.603 -0.1523  0.0139  0.1656
 2044W        W20248   9.157  10.248   2.163 -0.0793 -0.3695 -0.0360
 2045W        W20249   3.602  12.647  12.258 -0.0289  0.1584  0.1624
 2046W        W20250   4.146  12.688   3.540 -0.0010  0.1491 -0.2029
 2047W        W20251   3.513  13.766  13.603 -0.0010 -0.1993 -0.2506
 2048W        W20252   9.660   2.839   3.407  0.3711 -0.0981  0.2295
 2049W        W20253   0.168   4.469  14.075 -0.3191 -0.0917  0.0759
 2050W        W20254   9.326  16.556   4.267 -0.1812  0.0733 -0.0916
 2051W        W20255  13.160   7.735  17.331 -0.1196  0.1897  0.1170
 2052W        W20256   6.935   8.488  16.116 -0.1519  0.1864  0.3067
 2053W        W20257   1.327   3.345   5.156 -0.1810 -0.2760  0.1552
 2054W        W20258  15.507   9.494   3.135 -0.0729 -0.1144 -0.0569
 2055W        W20259   1.246  12.711   0.678 -0.0514 -0.0261  0.2020
 2056W        W20260  13.219   2.678  16.843  0.0006 -0.1158  0.1347
 2057W        W20261   9.261  13.460   3.855  0.2215  0.0299 -0.2931
 2058W        W20262  17.236  14.014  16.702  0.0976  0.3272  0.0943
 2059W        W20263   2.028   9.407  15.161 -0.1213 -0.3202  0.1232
 2060W        W20264  13.467  12.853  15.022  0.1686  0.2377 -0.0295
 2061W        W20265  12.860  11.174   0.693 -0.0125 -0.3768  0.1097
 2062W        W20266  12.398  13.387   1.920 -0.4111 -0.0395 -0.0056
 2063W        W20267   7.630   3.527   1.129  0.1628  0.0359 -0.3900
 2064W        W20268   5.664  14.421   0.170  0.3466  0.3309  0.1033
 2065W        W20269   1.557   0.969  16.630 -0.0621 -0.2481  0.0980
 2066W        W20270   7.631  10.588   4.378  0.1674  0.6239  0.0732
 2067W        W20271   2.448   4.338  13.026 -0.2481  0.1076 -0.0995
 2068W        W20272   8.894   4.719  13.551 -0.3335 -0.0358 -0.0572
 2069W        W20273   9.965  10.640  12.540  0.2020  0.1276  0.2236
 2070W        W20274   8.002  16.757   2.410 -0.2886 -0.0345 -0.0202
 2071W        W20275   9.471   7.674  12.395 -0.0048  0.0626 -0.1305
 2072W        W20276   8.450   6.736   4.352 -0.1210  0.4366 -0.0806
 2073W        W20277   6.866  13.732  14.068 -0.3020  0.3203 -0.1269
 2074W        W20278   2.208   5.041  15.990 -0.0743  0.1042 -0.0661
 2075W        W20279   3.927   1.310   2.433 -0.1168 -0.0472 -0.2354
 2076W        W20280   5.653  14.418   4.708  0.1325  0.0600 -0.2643
 2077W        W20281  15.547   7.275  15.454  0.0972 -0.2630  0.0347
 2078W        W20282   9.782   7.613  12.900 -0.0248  0.0937  0.2235
 2079W        W20283  11.182   9.868   2.423 -0.2747  0.6501 -0.0965
 2080W        W20284   4.610  12.522  14.324 -0.0429  0.2964  0.2239
 2081W        W20285   6.164   1.404   3.287 -0.0688 -0.0676  0.3015
 2082W        W20286   9.749  11.897   2.179 -0.0494 -0.0514 -0.1694
 2083W        W20287   4.446  14.816  17.221  0.1388 -0.4140  0.1248
 2084W        W20288   5.023   9.388   2.627 -0.1538 -0.0437 -0.0254
 2085W        W20289   6.178   0.486   1.560 -0.0857  0.0930  0.1681
 2086W        W20290   8.081  17.336  13.717  0.0820 -0.2011 -0.2879
 2087W        W20291   3.185   3.845  14.068 -0.0704 -0.0205 -0.2185
 2088W        W20292  11.246   8.939   4.841  0.2446 -0.1362  0.2259
 2089W        W20293   1.753   2.235  13.390 -0.0389  0.2137 -0.0106
 2090W        W20294  12.539  12.916  12.780  0.0257  0.1260  0.0744
 2091W        W20295   6.760   8.352  14.790  0.2006 -0.0017  0.4108
 2092W        W20296   2.724  15.427  16.174 -0.1213 -0.1497 -0.0010
 2093W        W20297  11.252   2.269  13.426 -0.0829 -0.0504 -0.1629
 2094W        W20298   0.863  13.610   2.534 -0.3953  0.4530 -0.3223
 2095W        W20299  10.939   6.287  13.569  0.1185 -0.0956  0.1760
 2096W        W20300  14.671   6.251  13.923  0.0128 -0.0079 -0.1171
 2097W        W20301   5.132   8.904  16.199 -0.0520  0.1243 -0.0583
 2098W        W20302  12.074  11.706  15.030 -0.0307  0.1174  0.2817
 2099W        W20303   1.262   6.264  17.110 -0.0587 -0.0854  0.0455
 2100W        W20304  12.588   1.103  13.200  0.1339 -0.1503  0.1006
 2101W        W20305  15.999  14.363   2.625  0.0501  0.0484  0.1172
 2102W        W20306   6.425   1.495  15.984 -0.1937 -0.3924  0.0951
 2103W        W20307  11.193   3.139  13.375  0.1580  0.0479  0.2110
 2104W        W20308   7.455  15.428   1.996 -0.2920  0.0677  0.0742
 2105W        W20309   5.908  12.897   2.329 -0.2371 -0.4230 -0.0838
 2106W        W20310   7.840   9.750   2.603 -0.2392  0.1173 -0.2148
 2107W        W20311  10.016  16.126   0.959  0.1177  0.1430 -0.0613
 2108W        W20312   9.140  12.046   3.860 -0.0064  0.0520  0.1456
 2109W        W20313   1.101  15.434   3.950 -0.4298 -0.1651  0.1223
 2110W        W20314   5.065   0.348   3.858  0.2858  0.2160 -0.2802
 2111W        W20315  12.732   4.090  15.286  0.0613  0.1382 -0.0276
 2112W        W20316   7.665   3.288  16.021  0.0053 -0.1695 -0.1452
 2113W        W20317   9.293   4.961   2.886  0.1118 -0.4481 -0.1146
 2114W        W20318  10.854  10.448   1.411  0.4780 -0.0533  0.0828
 2115W        W20319  10.147  10.355   2.596 -0.0603 -0.0644  0.1908
 2116W        W20320  15.735   1.443   2.344  0.3194 -0.0218  0.1023
 2117W        W20321  17.091  11.197  13.970 -0.0558 -0.0879 -0.0720
 2118W        W20322  15.516  13.305   2.645 -0.1427 -0.1478  0.2492
 2119W        W20323  16.657   4.676   4.193 -0.1714 -0.0985  0.0943
 2120W        W20324   6.244   0.349   4.526  0.0368  0.0798  0.2049
 2121W        W20325  13.351   6.156   5.114 -0.0788 -0.0914  0.0734
 2122W        W20326  14.971   3.785  13.547  0.0575 -0.2677  0.0555
 2123W        W20327   9.504   1.977  14.047  0.0726 -0.0991 -0.2053
 2124W        W20328  17.201  14.888  12.751  0.1207  0.0649 -0.1980
 2125W        W20329   5.399   3.712  12.973  0.0097  0.0840 -0.1809
 2126W        W20330   6.528  12.188   0.965  0.0993  0.1337  0.0395
 2127W        W20331  15.225   8.585  14.118 -0.2153 -0.2840 -0.0081
 2128W        W20332  16.429   0.301  16.861 -0.0080 -0.1481  0.1146
 2129W        W20333   9.374  11.769  12.267 -0.3193 -0.1590 -0.1413
 2130W        W20334  11.070  14.306  15.515  0.1375 -0.2603  0.0171
 2131W        W20335  14.106  13.994  17.468 -0.1280 -0.0496  0.0133
 2132W        W20336   6.434  13.499   2.088  0.0500  0.0541 -0.1983
 2133W        W20337  11.013   1.996   0.735 -0.2732 -0.2042  0.0057
 2134W        W20338   6.785  11.578   4.143  0.2009  0.0623 -0.0501
 2135W        W20339  12.847   7.601   1.330 -0.2774  0.2570 -0.2004
 2136W        W20340   9.926  16.287   3.542 -0.1230 -0.0774 -0.1322
 2137W        W20341  14.949   8.130   0.907  0.0775  0.1779  0.2907
 2138W        W20342   3.486   8.949   4.779 -0.0747 -0.0375 -0.1900
 2139W        W20343  11.124  14.684  13.606  0.0739  0.1815 -0.1085
 2140W        W20344  13.233   0.185  13.955 -0.0047 -0.0992 -0.0432
 2141W        W20345  16.357  13.565   2.710 -0.0745  0.0460 -0.2580
 2142W        W20346  16.557  14.452   1.252 -0.1279 -0.2794 -0.1160
 2143W        W20347   0.094  16.853   1.502  0.2039  0.0415 -0.1230
 2144W        W20348   0.011   0.465   2.938  0.1390  0.1357 -0.2034
 2145W        W20349  13.592   8.607  16.364  0.4001  0.1608  0.1424
 2146W        W20350   1.754   7.518  15.148  0.0539 -0.0857 -0.0098
 2147W        W20351   3.037  11.164   0.069 -0.2625  0.3463 -0.1309
 2148W        W20352  10.361  14.403   1.754  0.1794 -0.0949  0.0949
 2149W        W20353  11.030   1.916   2.397 -0.2754  0.0948 -0.1585
 2150W        W20354   8.511   7.404   0.735  0.2726 -0.2904 -0.0893
 2151W        W20355  12.763   7.880   3.112  0.1667  0.1421 -0.0518
 2152W        W20356   0.564   0.076   0.391  0.2721  0.2303  0.2660
 2153W        W20357   5.335  12.423  16.987 -0.0181 -0.1013  0.2622
 2154W        W20358   9.647   3.580  14.561 -0.0599 -0.1176 -0.1959
 2155W        W20359   6.571   3.804   2.650 -0.1311  0.2384  0.2504
 2156W        W20360  14.600  10.082   0.972 -0.1367  0.1122  0.0065
 2157W        W20361  12.899  10.489  15.062  0.0800  0.4686 -0.0116
 2158W        W20362  13.327  14.202   0.274 -0.1888 -0.1230  0.1964
 2159W        W20363   7.153   8.557  15.539 -0.0242 -0.1126 -0.0301
 2160W        W20364   1.095   5.369   1.775 -0.0592 -0.0679 -0.3386
 2161W        W20365  10.093  12.477  14.084  0.0455 -0.1867 -0.0002
 2162W        W20366   8.882  11.544  12.187  0.2952  0.0717  0.2607
 2163W        W20367   8.922   7.767   2.905 -0.0336  0.1396 -0.1115
 2164W        W20368   1.104  17.145  13.997 -0.0504 -0.1553  0.1574
 2165W        W20369  12.954   8.227  15.445  0.1241  0.0475  0.1474
 2166W        W20370   5.736  11.745   4.891  0.0751  0.1073  0.2811
 2167W        W20371   6.372  16.043   3.397 -0.0344  0.0385  0.0525
 2168W        W20372  13.207  16.136   4.651 -0.2681 -0.0996 -0.0697
 2169W        W20373  11.884  14.945  16.966  0.0069  0.0420  0.3000
 2170W        W20374  10.113   4.740   3.277  0.0778 -0.2706 -0.1527
 2171W        W20375   5.658   1.140  14.751 -0.1754 -0.0880 -0.0434
 2172W        W20376  16.513  12.540   1.033 -0.1668 -0.0391  0.1332
 2173W        W20377  11.032   4.786  13.000  0.0133 -0.1718 -0.2249
 2174W        W20378  10.740   4.351   2.120  0.2201 -0.2034  0.0519
 2175W        W20379   0.682   9.217   6.334 -0.1841  0.0044  0.0191
 2176W        W20380   8.303   4.260   0.799 -0.1266  0.0322  0.2903
 2177W        W20381   6.428   4.554   2.891 -0.2060  0.1542 -0.0391
 2178W        W20382  15.466  14.850  15.180 -0.1723  0.0468 -0.0258
 2179W        W20383  16.959   8.853   0.533  0.1516  0.0721 -0.2571
 2180W        W20384  11.995   9.093  16.881  0.0834 -0.1143  0.0054
 2181W        W20385  12.095  14.276   1.704  0.0210  0.1007 -0.1277
 2182W        W20386   1.450   3.272   4.450  0.2054 -0.3395 -0.2288
 2183W        W20387  12.503  15.151  12.733 -0.2879  0.0140 -0.0365
 2184W        W20388   3.664   6.723  16.203 -0.0281 -0.0229  0.3047
 2185W        W20389   6.249   0.452  16.090 -0.1134 -0.1224  0.0615
 2186W        W20390  14.837   2.424  16.752 -0.4066 -0.5353  0.0898
 2187W        W20391   7.820   9.714  14.650  0.1058 -0.0949 -0.0613
 2188W        W20392   4.190   0.177   2.076  0.0050  0.0955  0.3181
 2189W        W20393  11.584   6.315   2.507  0.0032 -0.0416 -0.1056
 2190W        W20394   9.187   2.929  16.233 -0.1702 -0.0352  0.1932
 2191W        W20395   8.890   6.025  15.694 -0.1571  0.0479 -0.0205
 2192W        W20396  11.469  17.190   2.890 -0.1153 -0.2898 -0.3336
 2193W        W20397   4.774   5.763  14.123 -0.2732 -0.1164  0.0202
 2194W        W20398   0.026  13.487  13.643 -0.2372  0.0095 -0.0519
 2195W        W20399   9.992  11.241  17.113  0.0156  0.0764  0.1597
 2196W        W20400  16.059  16.277  15.128  0.0597 -0.1701  0.1681
 2197W        W20401   4.904   0.702   2.455  0.3967 -0.1756  0.0922
 2198W        W20402  11.780  14.196  11.289  0.2405  0.0635 -0.0869
 2199W        W20403   1.256   2.959  15.894 -0.2203  0.1718 -0.1440
 2200W        W20404  10.646   4.765  15.853  0.0913 -0.1190  0.0772
 2201W        W20405   1.400   5.999  14.492 -0.0640 -0.2362  0.1560
 2202W        W20406   0.607   0.804  17.378  0.3223 -0.0232  0.0570
 2203W        W20407   6.986  11.545  15.905  0.0731 -0.0801 -0.0821
 2204W        W20408   0.056  10.307  14.214  0.1367  0.1428 -0.0012
 2205W        W20409   4.623  11.500  16.840 -0.0624 -0.1921 -0.1866
 2206W        W20410   3.649   2.592  17.393  0.0102 -0.1083  0.2740
 2207W        W20411   9.835  13.324  13.428  0.1747 -0.0880 -0.0566
 2208W        W20412  16.072  15.198   3.166  0.0716  0.2967 -0.2606
 2209W        W20413   7.043   0.531  14.070 -0.0994  0.0637  0.2357
 2210W        W20414   9.889  11.538   1.875  0.0472  0.0133  0.0597
 2211W        W20415   7.243  16.279   5.152 -0.1684 -0.0083 -0.0559
 2212W        W20416  11.889  12.706   1.586 -0.0609  0.2790  0.1218
 2213W        W20417   6.016   6.373   1.995  0.1316 -0.1258 -0.2678
 2214W        W20418   5.777  15.589  15.064 -0.1552  0.0207  0.1970
 2215W        W20419   0.939   8.704  17.233  0.0284 -0.1893 -0.0720
 2216W        W20420   2.336  12.386  16.779 -0.0783  0.0484  0.2995
 2217W        W20421   5.931  16.406  14.815 -0.1065  0.1046  0.0389
 2218W        W20422  16.560  14.042   0.986 -0.0704  0.1092  0.0472
 2219W        W20423  14.169   9.782  14.039  0.0435  0.2672 -0.1192
 2220W        W20424  12.669   1.049   2.111  0.1081 -0.1305 -0.3119
 2221W        W20425  12.114   3.721   1.645 -0.0534 -0.0141  0.2533
 2222W        W20426   7.392   4.848  12.916 -0.0704  0.0885  0.2189
 2223W        W20427   9.397   0.375  15.021 -0.2287  0.1866 -0.1913
 2224W        W20428  15.277  12.573   0.611 -0.0265 -0.1122 -0.0280
 2225W        W20429   5.432   2.424  16.953  0.1951  0.2105 -0.1332
 2226W        W20430   6.458   8.769  17.121 -0.1929  0.0144  0.0950
 2227W        W20431  11.491   4.448   4.200 -0.3201 -0.3661 -0.0331
 2228W        W20432  11.810  13.636  14.814  0.4162 -0.4596  0.0301
 2229W        W20433   7.127   6.657   4.262 -0.2050 -0.0401 -0.0036
 2230W        W20434   2.710   5.658   2.304  0.0470 -0.0921 -0.0134
 2231W        W20435  11.137  14.548  16.364  0.3415 -0.0104  0.0461
 2232W        W20436  13.872  15.707   4.033  0.1425 -0.0904 -0.2407
 2233W        W20437  12.176  12.120   2.027  0.1948  0.2406 -0.1051
 2234W        W20438   7.840   2.414  16.129 -0.0608  0.0890 -0.1742
 2235W        W20439   7.687  16.969  13.874 -0.0404 -0.2222  0.0016
 2236W        W20440   5.227   8.844   0.754  0.1768  0.1961  0.0032
 2237W        W20441   3.948  14.873  17.426  0.3545 -0.0846  0.0247
 2238W        W20442  14.678  12.622   1.989 -0.1970 -0.0430 -0.2031
 2239W        W20443  12.093   3.715  13.166 -0.3473 -0.1219 -0.3802
 2240W        W20444   3.845   4.868  11.994 -0.2850  0.0242 -0.0076
 2241W        W20445   7.799  10.180   0.918 -0.4331  0.0286  0.0310
 2242W        W20446   5.073  12.088  15.928  0.0427 -0.0955  0.0499
 2243W        W20447   1.552  13.811   2.903 -0.2105 -0.1666 -0.3279
 2244W        W20448  16.286  13.396   3.598  0.0787 -0.1787  0.0246
 2245W        W20449   0.177   3.249  17.372  0.0356  0.1065 -0.0294
 2246W        W20450  10.710   0.486  14.537 -0.1225  0.1640  0.0530
 2247W        W20451   3.313  16.478  16.490  0.0081  0.1710 -0.2057
 2248W        W20452   8.872   2.194   5.096  0.0451  0.1029  0.0930
 2249W        W20453   7.627  10.044   0.453 -0.0651  0.1074 -0.0993
 2250W        W20454   6.236  15.182   3.430 -0.2801  0.1308  0.4657
 2251W        W20455  14.267   4.753  11.879  0.2287 -0.1791 -0.2468
 2252W        W20456   6.938  15.093  12.579  0.1335 -0.0701  0.1382
 2253W        W20457  13.852  16.352   5.093 -0.0486  0.0460  0.1114
 2254W        W20458   2.780   4.014   1.066 -0.0398  0.1555  0.0038
 2255W        W20459  15.566  17.062   0.710 -0.1801 -0.0321 -0.0361
 2256W        W20460   8.123  14.347   5.756  0.0807  0.0196 -0.4183
 2257W        W20461  14.828  15.397  16.760 -0.1622  0.2254  0.2605
 2258W        W20462  14.782  11.521   3.843 -0.0105  0.1163  0.0069
 2259W        W20463  10.421  11.479  15.504  0.0442 -0.0055 -0.1759
 2260W        W20464   8.370  14.800  17.228 -0.0083 -0.1839 -0.0518
 2261W        W20465  15.046  12.737  15.409  0.0175  0.3927 -0.1589
 2262W        W20466   2.906  16.761  16.514 -0.0927 -0.1421  0.1799
 2263W        W20467  16.476  10.257  14.381 -0.1486 -0.2824  0.0199
 2264W        W20468  11.813   9.077  15.616 -0.2000 -0.2325  0.1364
 2265W        W20469  10.744   5.139   1.345 -0.0910 -0.1188  0.2182
 2266W        W20470  12.396   9.808  16.500 -0.0751 -0.3634 -0.3699
 2267W        W20471   8.847   3.461  12.417  0.2354 -0.3149 -0.1787
 2268W        W20472   2.398  13.038   3.544 -0.3232 -0.0648  0.0565
 2269W        W20473  16.842   8.879  14.024 -0.0162  0.0579 -0.3386
 2270W        W20474   5.282   5.351   1.510 -0.1419  0.2108 -0.0684
 2271W        W20475   4.788  16.261  15.491  0.0042  0.0294 -0.1711
 2272W        W20476  15.969   8.845   2.540  0.1083 -0.3380  0.0470
 2273W        W20477  15.886   0.590   3.604  0.1396  0.2204  0.1638
 2274W        W20478   5.616  15.489   3.153 -0.0027  0.3507 -0.3519
 2275W        W20479   3.866  11.523   0.786  0.1552  0.1396  0.4744
 2276W        W20480   7.160   8.784   3.914  0.2002 -0.2409  0.1679
 2277W        W20481  14.003   7.976   0.267  0.1796  0.1604 -0.2989
 2278W        W20482  10.039  10.853   2.796 -0.0699 -0.1240  0.0095
 2279W        W20483  16.156  10.935  16.480 -0.1208  0.0453 -0.0098
 2280W        W20484  10.055  12.526   4.355 -0.2898 -0.0166 -0.2041
 2281W        W20485   9.072  10.534  14.982  0.1805  0.4457 -0.1012
 2282W        W20486   0.918  12.341   0.606  0.1376  0.3468  0.3360
 2283W        W20487   4.146  13.744  12.260 -0.4037 -0.1762  0.3141
 2284W        W20488  11.284   5.878   1.305  0.0877 -0.1007 -0.1836
 2285W        W20489   5.521  10.231  16.033 -0.1759 -0.2546  0.3014
 2286W        W20490  16.266   5.664  15.941 -0.0765 -0.0050 -0.4074
 2287W        W20491  13.825   1.674  12.385  0.0657  0.4449 -0.1578
 2288W        W20492   2.622   7.201  16.150 -0.1680  0.2682  0.0598
 2289W        W20493  13.088   1.226  16.448  0.4730 -0.3351  0.4449
 2290W        W20494  13.077  14.223  12.976  0.1163  0.0507 -0.0667
 2291W        W20495   4.083  10.522  12.824 -0.1492  0.1680 -0.1987
 2292W        W20496   6.705   0.290  15.781 -0.2833  0.2007 -0.2935
 2293W        W20497  12.353   5.056   2.976 -0.1692 -0.1037  0.1747
 2294W        W20498   1.698   9.836  16.016  0.0958  0.1088  0.0668
 2295W        W20499   8.957   6.740  15.598 -0.0212  0.0813 -0.0032
 2296W        W20500  10.930   6.441   0.068  0.3105  0.1400  0.1123
 2297W        W20501  11.457   0.317  13.720  0.2124 -0.4162  0.0560
 2298W        W20502   1.501   0.860   1.444 -0.0969  0.1398 -0.4762
 2299W        W20503  11.567   3.457  17.383  0.0725  0.0206 -0.2584
 2300W        W20504  12.201  10.015  16.109 -0.0947  0.0403  0.0681
 2301W        W20505   6.417   8.136  17.206 -0.1095 -0.1871  0.0765
 2302W        W20506   0.839   2.989  15.640 -0.2207 -0.1705  0.0495
 2303W        W20507   0.934  11.413  13.257  0.0851 -0.0269  0.0201
 2304W        W20508   6.152  14.713   5.222 -0.4746  0.0249 -0.1185
 2305W        W20509   3.967   0.097  12.939  0.1080 -0.2489 -0.0653
 2306W        W20510   0.936  11.349  17.119 -0.1458  0.2215 -0.1263
 2307W        W20511   4.429   8.240   1.058  0.2447 -0.3401  0.0811
 2308W        W20512   0.994  12.905   5.757  0.1452  0.1299 -0.3461
 2309W        W20513   3.341   2.011  14.304 -0.3049 -0.1194 -0.2263
 2310W        W20514   3.845   0.693   3.385 -0.0989 -0.2010 -0.0131
 2311W        W20515   7.475  10.562   5.541 -0.1793  0.1794  0.1427
 2312W        W20516   4.081   6.128   3.089  0.3910  0.3449 -0.2236
 2313W        W20517   5.212  11.880  14.906 -0.1271  0.2114 -0.0819
 2314W        W20518  10.568   6.250   4.058  0.0408  0.0051  0.0908
 2315W        W20519   9.698  16.268  16.249  0.4286  0.3937 -0.0077
 2316W        W20520   7.358   7.897   0.060  0.1790 -0.0425  0.2394
 2317W        W20521   0.255  15.668  12.558 -0.2469 -0.0767  0.0044
 2318W        W20522  10.336  17.115   3.616  0.0452 -0.1313 -0.0769
 2319W        W20523  12.695   3.708  12.842  0.4880  0.4450  0.0191
 2320W        W20524   1.609  15.568   0.518 -0.1727 -0.0690 -0.0800
 2321W        W20525  16.792   5.271   3.220  0.2217 -0.0681  0.0306
 2322W        W20526   2.303   6.585  14.135 -0.3888 -0.1540 -0.0485
 2323W        W20527   6.050   2.930  15.578 -0.1805  0.1201 -0.1704
 2324W        W20528   1.159   3.459   2.412  0.2391 -0.4007 -0.0120
 2325W        W20529   6.630   8.693  15.141 -0.0654 -0.0647 -0.0660
 2326W        W20530  11.270   2.837  15.701  0.0622  0.1351 -0.2219
 2327W        W20531  13.038   2.707   2.523 -0.2097 -0.1317 -0.2778
 2328W        W20532   3.116   7.197   0.444 -0.1342 -0.0783 -0.0735
 2329W        W20533  10.682   1.044  17.293  0.0126 -0.2149  0.0142
 2330W        W20534   8.731  11.503   4.938 -0.1248  0.0819 -0.0589
 2331W        W20535   4.263   1.009  12.988  0.0860  0.0944  0.0163
 2332W        W20536  15.610   2.682  14.011 -0.2030  0.0430 -0.3826
 2333W        W20537   1.711   1.205  16.146  0.1285  0.3324 -0.0091
 2334W        W20538   1.678   8.161  16.385 -0.2464 -0.1691 -0.1139
 2335W        W20539  15.170   5.539  13.812  0.0326  0.0816  0.3084
 2336W        W20540   1.967   8.788   3.976 -0.1180 -0.1305  0.1288
 2337W        W20541   8.504   3.876   4.893  0.2464 -0.0288 -0.1774
 2338W        W20542   5.759   2.640  15.228  0.0504  0.3266  0.0070
 2339W        W20543   1.121   7.135  12.622  0.0073  0.0728  0.0139
 2340W        W20544   3.649   7.388   2.818  0.0054  0.1217 -0.1469
 2341W        W20545  10.700   3.485   2.881 -0.2025  0.1599 -0.1465
 2342W        W20546   6.976   6.849  15.163 -0.2978  0.0009  0.0275
 2343W        W20547   7.120   6.010  15.168  0.1722  0.1216 -0.1197
 2344W        W20548   1.101   9.734  14.080 -0.2072  0.3547  0.0910
 2345W        W20549  11.276  13.356  11.384 -0.4231  0.0228 -0.0204
 2346W        W20550  13.707  13.578   3.789  0.2906 -0.1970  0.0482
 2347W        W20551   6.266   8.302  15.079 -0.3364 -0.2451 -0.2891
 2348W        W20552   2.154   1.561   2.634  0.0498  0.1942 -0.0995
 2349W        W20553   2.936   0.067   5.544  0.0028 -0.0305  0.0752
 2350W        W20554   8.974  14.279  13.682 -0.0681  0.1233  0.4076
 2351W        W20555  15.265   1.476   3.203 -0.0905  0.3232 -0.2350
 2352W        W20556  14.013   3.217  11.282  0.1167  0.0970 -0.0489
 2353W        W20557  13.756  13.707  13.093  0.2879  0.2142  0.1519
 2354W        W20558  15.846   9.205   1.825  0.1201 -0.1305 -0.0900
 2355W        W20559   0.202   2.998  14.483 -0.1348  0.1412 -0.1034
 2356W        W20560   7.365  13.479   4.756 -0.0427 -0.1623  0.1913
 2357W        W20561   5.715  16.851  15.044  0.0110  0.0127  0.1420
 2358W        W20562  15.974   7.398  16.066  0.1376  0.0987 -0.5592
 2359W        W20563  10.370   3.821   4.988 -0.0091 -0.3109 -0.0564
 2360W        W20564  12.050  17.156   0.517 -0.2505 -0.2395 -0.1866
 2361W        W20565   4.485  11.489   3.279 -0.0828  0.2201  0.1522
 2362W        W20566  14.982  13.653   0.893  0.2758  0.1309  0.1447
 2363W        W20567  15.070   8.689   1.787 -0.2386 -0.0831 -0.3522
 2364W        W20568   2.478   2.490  13.826  0.3816 -0.0957 -0.0750
 2365W        W20569   9.285   9.593  14.777 -0.1129  0.0131 -0.0786
 2366W        W20570  11.368  14.695   0.780  0.0800  0.1808  0.2790
 2367W        W20571  16.177  13.814   4.327 -0.0005 -0.0080  0.0341
 2368W        W20572   7.414   1.590   0.199 -0.0576  0.0462 -0.1464
 2369W        W20573  16.498  17.134   0.417 -0.2443  0.1126 -0.1865
 2370W        W20574   4.190  10.978  13.014  0.0920  0.0249  0.0132
 2371W        W20575   6.391  14.959  12.667 -0.2198  0.1814 -0.0380
 2372W        W20576  10.022   3.554   2.300 -0.0905  0.1160 -0.2226
 2373W        W20577  12.270   4.295   5.295  0.0429  0.2154  0.0919
 2374W        W20578  10.956   6.806  16.068  0.1052 -0.0921 -0.0101
 2375W        W20579   2.171  14.339  15.168 -0.1650 -0.1270 -0.2509
 2376W        W20580   7.153  13.993  13.761  0.0740  0.0324 -0.1018
 2377W        W20581   7.068   8.172  15.167 -0.0669  0.0423 -0.0405
 2378W        W20582  12.939   6.733  15.787 -0.1151 -0.0141  0.0265
 2379W        W20583   1.808   5.875  12.583  0.2315  0.2264 -0.0495
 2380W        W20584  12.614  10.982  15.215 -0.2583 -0.1122  0.0638
 2381W        W20585   6.216  10.573  12.624 -0.0517  0.0645 -0.1297
 2382W        W20586  16.307  10.905   0.595 -0.0695 -0.3373 -0.0811
 2383W        W20587   2.674   0.016  14.003  0.1637  0.0902 -0.2638
 2384W        W20588   8.858  10.701  13.239 -0.1055  0.0840  0.0579
 2385W        W20589   8.523   2.627  12.212 -0.0267  0.2271 -0.1726
 2386W        W20590  10.356   4.705  16.693  0.1858 -0.3241  0.1930
 2387W        W20591  15.310   7.832   1.746  0.0568  0.1239  0.0038
 2388W        W20592   4.530   0.329   3.910 -0.4152  0.1328  0.1283
 2389W        W20593  16.988  12.923  14.160  0.3139 -0.1430  0.2240
 2390W        W20594   2.726  12.789  15.493 -0.1213 -0.0054  0.0084
 2391W        W20595  16.260   0.332  14.562 -0.1581  0.5970  0.0994
 2392W        W20596  11.701   3.987  13.305 -0.2372 -0.3188 -0.0981
 2393W        W20597  11.871   8.329  16.343 -0.2705 -0.3313 -0.0173
 2394W        W20598  14.680   7.168  15.080  0.1231 -0.1030  0.0301
 2395W        W20599  16.819   6.054   0.784 -0.1313  0.0371 -0.0004
 2396W        W20600  11.042   6.145   4.195  0.1334  0.0998 -0.3160
 2397W        W20601  13.426   6.649  15.803 -0.1061  0.6594 -0.0360
 2398W        W20602   4.523   5.199  16.275  0.0571  0.2191  0.0041
 2399W        W20603  11.920  16.487  16.095  0.0762 -0.3757  0.0731
 2400W        W20604   4.086   5.684  16.980  0.0352 -0.2706 -0.1458
 2401W        W20605   9.178   9.565  15.286  0.0743 -0.0715 -0.3032
 2402W        W20606   0.544   0.676  15.675  0.1493  0.0868  0.1534
 2403W        W20607  13.993  12.960   2.585 -0.2403 -0.0281 -0.1553
 2404W        W20608   9.189   8.724   4.403 -0.0282 -0.0121 -0.0187
 2405W        W20609   2.746  12.110  13.310  0.1631  0.0721 -0.2043
 2406W        W20610  14.174  11.290   3.341  0.0367 -0.0308  0.1023
 2407W        W20611  13.079   2.811   0.195 -0.0646  0.2575 -0.4519
 2408W        W20612   1.505   1.657   1.695 -0.0288  0.0945  0.2165
 2409W        W20613   2.810   7.800   1.768  0.1548 -0.2574 -0.1201
 2410W        W20614   0.982   5.612   1.308 -0.1569 -0.0435 -0.0823
 2411W        W20615  17.293   7.959   5.132  0.2923 -0.1338  0.2180
 2412W        W20616   0.897  11.780   3.707 -0.1991 -0.0879 -0.1393
 2413W        W20617  11.821   3.801  12.621 -0.2818 -0.0221 -0.1340
 2414W        W20618   0.404   9.542  14.898 -0.0554  0.0938  0.2952
 2415W        W20619   7.161   6.638   1.706 -0.3432  0.2504 -0.1854
 2416W        W20620  11.683  14.519   3.811 -0.0303  0.1525 -0.1305
 2417W        W20621   6.925   1.360   4.065  0.0729  0.1179  0.1113
 2418W        W20622  10.345  10.926  14.658 -0.1832 -0.3332  0.1866
 2419W        W20623   7.963   5.872   5.572 -0.4357  0.2554  0.0941
 2420W        W20624   7.709  10.011   4.318 -0.0785  0.2331  0.0138
 2421W        W20625   0.328   9.642   6.581 -0.2267 -0.1916 -0.1023
 2422W        W20626  11.520   7.675  15.251 -0.1619  0.3350 -0.1933
 2423W        W20627  13.220  14.661   5.257  0.3090 -0.2072 -0.0494
 2424W        W20628   6.819  12.548   1.698 -0.1644  0.1670  0.0997
 2425W        W20629   7.405   0.756  16.982  0.1955 -0.2068  0.1008
 2426W        W20630  12.687  10.186  16.280 -0.2291 -0.0169  0.1691
 2427W        W20631  16.020   1.716   0.887  0.0701  0.0192 -0.1759
 2428W        W20632   7.377   6.015   1.114 -0.1815  0.1035  0.0682
 2429W        W20633   6.867   8.296   3.223 -0.0034  0.3900 -0.0324
 2430W        W20634  10.639   8.702   5.956 -0.1915  0.0070  0.0823
 2431W        W20635  15.809  16.756  15.805  0.1860  0.4572  0.0463
 2432W        W20636   0.143  12.710  13.879 -0.2768 -0.0319 -0.2282
 2433W        W20637  11.069   4.337  12.741  0.1355  0.1521  0.4832
 2434W        W20638   8.740  13.066  15.737 -0.1346  0.0928  0.1107
 2435W        W20639  11.666   4.584  14.084  0.4583 -0.4900 -0.1902
 2436W        W20640   4.951   5.359   4.317  0.1229 -0.0031  0.0538
 2437W        W20641   6.253  16.982   5.296  0.0998  0.0882 -0.2047
 2438W        W20642   3.339  13.159  14.990 -0.2300  0.3136  0.0059
 2439W        W20643   0.210  14.906   0.846 -0.2301  0.1148  0.0241
 2440W        W20644   9.445   2.315  15.014  0.1576 -0.1843 -0.0608
 2441W        W20645  15.257   4.707  17.158 -0.1357  0.3252 -0.3058
 2442W        W20646   0.002   4.026   1.330 -0.1888  0.0506 -0.1522
 2443W        W20647   0.862   4.867   3.253 -0.1324 -0.0080 -0.1473
 2444W        W20648  16.652   6.918  12.862 -0.0873  0.4052 -0.2734
 2445W        W20649   2.761  11.353   4.200  0.1270  0.0284  0.1352
 2446W        W20650  13.590   9.479  14.597  0.2060  0.1724  0.1672
 2447W        W20651  16.177   5.387   0.904  0.0169 -0.0155  0.1908
 2448W        W20652  16.685  10.575   3.643 -0.0681 -0.2792  0.1747
 2449W        W20653   0.599  15.273  12.677  0.0243 -0.0913  0.1110
 2450W        W20654  13.431   0.545   4.227 -0.1019  0.0402  0.0396
 2451W        W20655   4.025   7.065   0.719  0.1962  0.2447 -0.0473
 2452W        W20656   6.638   7.954  15.019 -0.0087 -0.1857 -0.0281
 2453W        W20657   4.077   0.301   0.728  0.3477 -0.0004 -0.1921
 2454W        W20658  17.067   7.077  14.263 -0.3518 -0.1343 -0.0081
 2455W        W20659   9.100   1.211   4.340  0.0046 -0.0520  0.0901
 2456W        W20660   3.727  11.128   2.483  0.0257 -0.1677 -0.2075
 2457W        W20661   6.787  10.764  16.452  0.1516  0.1456  0.0026
 2458W        W20662   4.144   9.243  16.952  0.0965  0.2302 -0.0012
 2459W        W20663   9.512   9.932   4.238 -0.4318  0.0580  0.0387
 2460W        W20664   1.405   3.498   1.541 -0.3705 -0.0706 -0.1074
 2461W        W20665   7.157   9.828   3.484  0.2447  0.0082  0.0496
 2462W        W20666  13.301   6.499   4.210 -0.1239 -0.2499  0.1575
 2463W        W20667  12.464  12.560  12.417  0.1180  0.1838 -0.0531
 2464W        W20668   4.430   0.946   3.467  0.0706 -0.1854 -0.1665
 2465W        W20669  16.948   2.028   4.409  0.0536  0.1151  0.0948
 2466W        W20670   6.224   4.530  13.554 -0.2211  0.0911  0.2973
 2467W        W20671  15.586   7.921  14.597 -0.0874 -0.0665  0.3659
 2468W        W20672   1.335  13.105  14.958 -0.4380 -0.1675  0.1577
 2469W        W20673   4.669   8.957  11.838  0.1185 -0.1974  0.1002
 2470W        W20674  10.710   9.245   4.195  0.2243 -0.0327  0.2612
 2471W        W20675   9.911  14.525   3.063  0.0099  0.0384 -0.1631
 2472W        W20676   5.194   1.608   4.967 -0.0328 -0.0962  0.3501
 2473W        W20677   1.142   8.925  12.216 -0.0397  0.1580 -0.4628
 2474W        W20678   8.999  12.151   2.907 -0.0301 -0.1030 -0.1141
 2475W        W20679  12.564  10.284  11.968  0.1472  0.4474 -0.0199
 2476W        W20680  12.552   4.657   1.253  0.0634  0.0660  0.1511
 2477W        W20681  10.472   9.667   4.394  0.0049  0.0032  0.0672
 2478W        W20682  13.773  13.225  12.807  0.0796  0.0865  0.0844
 2479W        W20683   1.962  14.563   1.454 -0.0259  0.0472  0.1506
 2480W        W20684  14.047   2.860  16.286 -0.0148  0.0006  0.3038
 2481W        W20685  13.845  17.151  16.939  0.3544 -0.0208 -0.0535
 2482W        W20686  14.559   7.842   0.965 -0.6026 -0.3480  0.1183
 2483W        W20687  12.254  15.213  14.070  0.0649  0.2059 -0.1333
 2484W        W20688  15.669  14.722  14.292  0.0624 -0.0883 -0.2392
 2485W        W20689  10.387  17.310  13.578 -0.0623  0.0123 -0.0169
 2486W        W20690  13.399  14.026   4.694 -0.1561  0.4167 -0.1875
 2487W        W20691   7.057   1.328   6.149  0.1013 -0.0305 -0.1161
 2488W        W20692  15.437  10.134  14.081 -0.1105 -0.3371 -0.0026
 2489W        W20693  12.129   8.182  13.816 -0.3472 -0.3530  0.3586
 2490W        W20694  12.579  15.336  14.625  0.1718  0.0588  0.1459
 2491W        W20695  15.788   3.013   0.212  0.1561  0.0994  0.1152
 2492W        W20696  16.976   0.246   2.032  0.1466 -0.1345 -0.0390
 2493W        W20697   9.157   7.725   3.966 -0.0860 -0.0211 -0.0652
 2494W        W20698   1.738   7.597   2.479 -0.1547  0.0866 -0.2356
 2495W        W20699  12.759  11.926  14.093  0.1594 -0.2246 -0.1523
 2496W        W20700   0.423  12.391   3.838 -0.0747 -0.0627 -0.0640
 2497W        W20701  10.362  16.348   1.332 -0.0598 -0.0997  0.2412
 2498W        W20702   9.478   2.130  12.602 -0.1842  0.1100  0.1275
 2499W        W20703   8.342   3.121  14.526  0.0188  0.3163  0.0900
 2500W        W20704  12.234  16.152   4.759  0.1942 -0.0415  0.0694
 2501W        W20705   6.191  14.086   4.628 -0.0474  0.2810 -0.5539
 2502W        W20706  10.451  14.015  16.277 -0.0352  0.0684  0.1303
 2503W        W20707  16.701   8.095   5.217 -0.1651  0.2918  0.0577
 2504W        W20708  15.410   4.020   2.444 -0.2454  0.0089  0.0924
 2505W        W20709   8.113   1.281  12.068  0.4309 -0.0994  0.2353
 2506W        W20710  17.258  10.270   0.876 -0.1614 -0.4435 -0.0900
 2507W        W20711   9.756   5.158   2.564  0.3464 -0.0561 -0.2822
 2508W        W20712   6.636  15.471   3.395  0.1916  0.0905  0.0045
 2509W        W20713  10.157  11.245   1.559  0.1983  0.0922  0.2633
 2510W        W20714   7.642  10.080   3.797 -0.0576 -0.0480  0.4304
 2511W        W20715   4.956   8.618   1.104 -0.2564 -0.0145  0.0733
 2512W        W20716   1.419   8.173  15.388  0.1037 -0.5134 -0.1018
 2513W        W20717   0.959  15.906   4.431 -0.0588  0.0893  0.3599
 2514W        W20718   7.997   8.360   3.835  0.2970  0.2605 -0.1469
 2515W        W20719   5.721   6.701  13.640  0.0662 -0.1390  0.0906
 2516W        W20720   2.588  14.146  16.424  0.2967  0.3530 -0.0167
 2517W        W20721  13.995  15.042  17.230 -0.2085 -0.1967  0.1278
 2518W        W20722   0.099   0.446  12.418 -0.0237 -0.3251 -0.1349
 2519W        W20723  14.902   1.770   3.324  0.2055  0.0144 -0.3605
 2520W        W20724  12.628   1.409  17.286 -0.0295 -0.2769 -0.0403
 2521W        W20725   1.498  14.952  13.667 -0.2074 -0.1982 -0.1226
 2522W        W20726  17.101  13.092   0.748 -0.3028 -0.4895 -0.1012
 2523W        W20727   3.555  10.558   3.344  0.5537 -0.1170  0.1138
 2524W        W20728   5.720   3.173  15.143 -0.0592 -0.1678  0.1225
 2525W        W20729   2.749   0.218  14.493  0.0049  0.2729 -0.0729
 2526W        W20730   3.152   7.118  15.288  0.0410 -0.1743 -0.1283
 2527W        W20731  17.089  16.808   3.640 -0.0408  0.1020  0.0007
 2528W        W20732   3.847  15.186  15.308  0.0909  0.0176  0.4104
 2529W        W20733   1.741  14.546   0.634  0.4349 -0.2200 -0.1057
 2530W        W20734  12.317   0.735  16.305  0.0837  0.1049 -0.1633
 2531W        W20735  15.352   1.901   0.412  0.2750  0.1233 -0.0348
 2532W        W20736   4.527   4.420  13.016 -0.1123 -0.0546  0.2711
 2533W        W20737   5.874   6.731  12.331  0.1642 -0.3446 -0.0183
 2534W        W20738   6.703   6.729   0.011  0.1141 -0.1372  0.1506
 2535W        W20739   5.829   2.110  17.157 -0.0396 -0.0347 -0.0776
 2536W        W20740   3.296  11.755  12.800  0.2342 -0.0821  0.1052
 2537W        W20741   7.749   8.963  14.269  0.3529 -0.0524 -0.0783
 2538W        W20742  11.202   3.834   0.856  0.1276 -0.4219  0.1188
 2539W        W20743   8.480  13.672   5.294  0.1459  0.2214  0.0619
 2540W        W20744   1.961  15.104   1.865  0.0039 -0.0184  0.0094
 2541W        W20745   6.249  16.343   5.268 -0.0572 -0.0567 -0.1182
 2542W        W20746  14.484   6.752  14.824  0.0698 -0.1144 -0.0116
 2543W        W20747   3.107  10.492   2.661 -0.0206  0.0287  0.0416
 2544W        W20748   9.235   9.569   5.800 -0.1504  0.2320 -0.0736
 2545W        W20749  14.609   7.984   1.610  0.0852  0.2774 -0.1542
 2546W        W20750   2.741   1.588   1.126  0.0021  0.1554  0.0070
 2547W        W20751   2.047  15.790   1.308  0.2054 -0.3111  0.3569
 2548W        W20752  17.062   7.880   0.391  0.0040 -0.0020 -0.0378
 2549W        W20753   7.538   7.588   0.870  0.0919 -0.1992 -0.2860
 2550W        W20754   6.399  13.511   5.637  0.0569  0.3604 -0.3053
 2551W        W20755   8.967   1.320  14.295  0.0252 -0.0695  0.1695
 2552W        W20756   7.216   9.290  12.409 -0.0531  0.1637  0.2612
 2553W        W20757  13.548  10.457   4.055 -0.4818  0.0863 -0.2444
 2554W        W20758   5.806  12.189  12.166 -0.2742  0.1179 -0.1242
 2555W        W20759   8.961  10.480   0.122  0.0372  0.1951 -0.0187
 2556W        W20760  13.189  16.789   3.574  0.2127  0.1723 -0.1365
 2557W        W20761  14.506   1.956   2.737  0.2211 -0.0923 -0.2811
 2558W        W20762   6.474   0.142   3.727  0.0798  0.0320 -0.1442
 2559W        W20763   0.450   7.632   2.442  0.0061  0.0123  0.0704
 2560W        W20764  15.587   0.949   1.147  0.1501  0.0840  0.2497
 2561W        W20765   5.044   4.860   3.137  0.1605 -0.1659  0.1239
 2562W        W20766   7.462  14.926   2.422 -0.1075 -0.0132  0.3131
 2563W        W20767   2.846   2.264  14.024  0.1274  0.1157  0.1841
 2564W        W20768   2.073  10.563  16.343 -0.4409 -0.1513  0.0451
 2565W        W20769  14.989  11.696   5.765  0.1064 -0.0212 -0.1525
 2566W        W20770  14.280   4.364  12.867 -0.0607  0.0722  0.1768
 2567W        W20771   4.700   2.142  14.149  0.2229 -0.3495 -0.1637
 2568W        W20772  16.941  14.742   5.051 -0.2575 -0.0526 -0.0205
 2569W        W20773   1.697  16.241   4.378 -0.3638  0.1380 -0.2845
 2570W        W20774   8.524   6.383  15.808 -0.0125  0.2469  0.0738
 2571W        W20775  14.336   7.401   0.927 -0.1156  0.1314 -0.1152
 2572W        W20776  11.805  16.809   0.740 -0.3557 -0.1403  0.2268
 2573W        W20777  16.937  13.024   4.988  0.1492 -0.1074 -0.0102
 2574W        W20778   6.409   7.888  13.600 -0.0284  0.2365  0.1615
 2575W        W20779   5.790  15.053  12.689 -0.2541 -0.1227 -0.3168
 2576W        W20780  10.753   0.374   3.192 -0.1080 -0.2675 -0.0752
 2577W        W20781   7.005   0.373   4.418  0.0590  0.1854  0.0225
 2578W        W20782  10.130   5.300   3.528  0.0491  0.1184  0.0949
 2579W        W20783   4.961   6.104   2.630  0.2140 -0.0084  0.3565
 2580W        W20784   5.438   8.481  16.928  0.2747 -0.1098  0.1326
 2581W        W20785  15.548   1.524   1.906  0.1374 -0.0979 -0.2195
 2582W        W20786  10.735   8.989   0.796  0.1875 -0.3675 -0.0623
 2583W        W20787  17.254  15.603   2.925 -0.1037  0.0141 -0.2075
 2584W        W20788   3.340   1.553   4.326 -0.1202 -0.4466 -0.1674
 2585W        W20789  10.284  13.002  14.200  0.3183 -0.4292  0.0196
 2586W        W20790  11.936   7.553   3.848 -0.3121  0.0850  0.0280
 2587W        W20791   0.255  16.920  13.999  0.0454 -0.1501 -0.2352
 2588W        W20792  14.168   6.657  13.848  0.0285  0.1364  0.0333
 2589W        W20793   3.835   2.604   1.275  0.2203 -0.1271 -0.1151
 2590W        W20794  10.625  15.954   5.234  0.0276  0.0414  0.1111
 2591W        W20795  12.493  11.962  17.322 -0.0488 -0.1705  0.2656
 2592W        W20796  16.364  16.712  13.669 -0.1822 -0.0277  0.1171
 2593W        W20797  15.675   9.288   0.421  0.3312 -0.0252  0.1926
 2594W        W20798   1.921   5.733  17.179  0.1098  0.0864 -0.1212
 2595W        W20799  16.622   4.500  12.460 -0.0733  0.2122 -0.2661
 2596W        W20800   9.534   1.366   2.676 -0.1576  0.1295  0.0196
 2597W        W20801   0.853   4.635  13.602  0.1232 -0.1426  0.2930
 2598W        W20802  13.082  10.357  12.667 -0.3315  0.1470 -0.0704
 2599W        W20803   0.525   7.039   1.785  0.2948 -0.0380 -0.0216
 2600W        W20804   7.822   9.940  16.982 -0.0951 -0.0945 -0.0685
 2601W        W20805   3.564  15.649  11.407  0.2461 -0.2534  0.1922
 2602W        W20806   6.046   5.575   0.115 -0.3475  0.1702 -0.0224
 2603W        W20807   7.276   0.708  14.764 -0.1564  0.0195 -0.2664
 2604W        W20808   7.186   2.305   1.783  0.0021 -0.0604 -0.0581
 2605W        W20809  12.330   1.135  13.599  0.0436 -0.0715  0.2368
 2606W        W20810   8.240   8.721   4.101  0.0814 -0.1787 -0.1273
 2607W        W20811   9.547  10.444   3.264  0.1142  0.1597 -0.0680
 2608W        W20812   4.491   1.658  16.179  0.3064 -0.3082 -0.0982
 2609W        W20813   5.817   7.883  14.259 -0.1496 -0.0865 -0.1050
 2610W        W20814   7.165  15.946   2.820 -0.1438 -0.1288  0.1710
 2611W        W20815   8.577   3.476   2.135 -0.1769 -0.1323  0.3457
 2612W        W20816   9.547   0.314   3.031 -0.0231 -0.0908 -0.1016
 2613W        W20817   3.678  14.696   1.727  0.0529 -0.1328 -0.3810
 2614W        W20818   2.548   3.603  15.741 -0.0077 -0.2061  0.1003
 2615W        W20819  13.321   7.193   0.577 -0.0368  0.0877  0.2127
 2616W        W20820   1.742   7.848   1.099  0.2417  0.2255 -0.4024
 2617W        W20821  10.963   5.596   3.744  0.0079 -0.0702 -0.1143
 2618W        W20822   7.667   8.264   5.124  0.2890 -0.2673  0.2190
 2619W        W20823  14.313  13.884  13.312 -0.2094  0.1381 -0.1446
 2620W        W20824   4.597  10.383  12.769  0.2340 -0.2073 -0.1196
 2621W        W20825   5.537  14.403  11.886  0.1079  0.2781  0.1237
 2622W        W20826  10.644   0.388  13.274 -0.2237  0.0183  0.0971
 2623W        W20827   7.182   0.434  16.222 -0.2599 -0.2898  0.1070
 2624W        W20828   4.337   2.070  13.539 -0.1575  0.0191  0.2059
 2625W        W20829  10.815   6.761   4.934 -0.0891  0.1876  0.1035
 2626W        W20830  15.685  12.130  16.402  0.0134 -0.1898  0.0429
 2627W        W20831   6.080   8.660   4.383  0.6348  0.0041 -0.0122
 2628W        W20832   1.576   9.157  15.449 -0.0420 -0.3145 -0.0161
 2629W        W20833   9.181   0.313   0.885  0.0594 -0.1257 -0.0416
 2630W        W20834   4.587   7.982  13.742  0.0734  0.0802 -0.1646
 2631W        W20835   5.190   5.834  12.826 -0.2869 -0.1002  0.0735
 2632W        W20836  15.276   0.660  15.978  0.2961 -0.4541  0.2290
 2633W        W20837   6.092   0.225  17.307  0.0305  0.0404  0.0820
 2634W        W20838  15.886   8.741   3.496 -0.1667  0.1146  0.0556
 2635W        W20839  13.998   9.733  13.041  0.5204 -0.0890  0.1349
 2636W        W20840   6.268  17.029   0.466 -0.2546  0.2732 -0.4192
 2637W        W20841  10.477   3.690  16.330  0.1367  0.1439 -0.1657
 2638W        W20842  12.042   9.229   3.605 -0.0082 -0.0360 -0.1942
 2639W        W20843   5.554   0.010   4.063 -0.0948  0.2198 -0.1495
 2640W        W20844  11.901  11.922  14.581 -0.0062  0.2924  0.3164
 2641W        W20845  10.576   7.403  14.189 -0.1305  0.0844 -0.2827
 2642W        W20846  11.494   3.666   2.330  0.0307 -0.1688  0.1715
 2643W        W20847  15.148   1.705  15.969 -0.0826  0.1080  0.0951
 2644W        W20848   9.211   8.184  12.505  0.0687 -0.0100 -0.1256
 2645W        W20849  10.674   7.835   1.192 -0.2776 -0.0843 -0.0437
 2646W        W20850   0.192  13.009  16.984 -0.0916 -0.0062  0.0690
 2647W        W20851   5.163  10.421  16.909  0.0093 -0.0298 -0.0286
 2648W        W20852   2.166   1.715  13.490 -0.0317 -0.1858  0.0558
 2649W        W20853  14.366  15.289  14.711  0.2692  0.0862 -0.0069
 2650W        W20854   9.704  11.759   5.147 -0.1989  0.2648 -0.4004
 2651W        W20855   8.437   8.703  11.247 -0.0716 -0.0710  0.0043
 2652W        W20856  13.109   1.592  15.370 -0.3105 -0.0389 -0.1616
 2653W        W20857  14.206   5.418  15.779 -0.4742  0.0675 -0.0698
 2654W        W20858  13.730  16.029   2.116 -0.3093 -0.0319  0.0947
 2655W        W20859  15.674  10.618   1.473 -0.0408 -0.0717 -0.1086
 2656W        W20860   9.664  16.859  16.866  0.2417 -0.2603  0.0322
 2657W        W20861  13.177   4.192   3.845 -0.1553  0.1371 -0.0227
 2658W        W20862   0.058  14.226   3.879 -0.2630  0.1282 -0.0559
 2659W        W20863   0.621  16.616  16.572 -0.0247  0.1855  0.0332
 2660W        W20864  15.031   5.394  12.546 -0.2557 -0.2262 -0.0845
 2661W        W20865  13.895   8.621   1.795  0.0683 -0.2202 -0.0140
 2662W        W20866  16.946   1.005  15.096  0.0124 -0.1558  0.0455
 2663W        W20867  14.321   4.921   1.514  0.1137 -0.0805  0.2152
 2664W        W20868   8.049  10.849   0.433 -0.2122 -0.0865  0.1209
 2665W        W20869   2.003  12.899   5.314 -0.1615 -0.0036  0.2887
 2666W        W20870   4.527   4.143   4.937  0.2566  0.2923  0.2424
 2667W        W20871   0.536   9.325   4.423 -0.0704  0.0766 -0.1533
 2668W        W20872  12.549   5.256   5.250 -0.2726 -0.0080  0.0791
 2669W        W20873   4.085   1.159   3.155  0.1344 -0.3262  0.0543
 2670W        W20874   5.836  10.642   3.542  0.0047 -0.2832  0.1415
 2671W        W20875   5.374  10.292   2.553 -0.2892 -0.1146 -0.2684
 2672W        W20876   0.160  16.107  13.130 -0.0917 -0.0207 -0.0500
 2673W        W20877   4.169   6.062  13.429 -0.0526  0.1345 -0.0162
 2674W        W20878   3.105   2.223   0.582  0.3726  0.2659 -0.0994
 2675W        W20879  13.533   6.388   3.046 -0.2248 -0.2248 -0.1553
 2676W        W20880   0.777  17.276   2.904 -0.4120  0.1347  0.2266
 2677W        W20881   0.563   9.693   6.088 -0.0901 -0.6594 -0.0785
 2678W        W20882   7.439   3.715  14.831  0.1410  0.0392  0.0786
 2679W        W20883  11.833  16.795  15.007  0.0817  0.1477 -0.1154
 2680W        W20884  13.108   5.493  14.568  0.2236  0.0441 -0.2425
 2681W        W20885   4.027   4.267   5.083 -0.2655  0.0581 -0.0682
 2682W        W20886  13.372  16.279  13.036 -0.2356  0.1543 -0.0764
 2683W        W20887   0.382  11.251  14.793 -0.0835 -0.0067 -0.0704
 2684W        W20888   9.644   5.711   2.346 -0.0566 -0.3237 -0.3807
 2685W        W20889   6.386  14.566  13.732 -0.3851 -0.2245 -0.0410
 2686W        W20890   3.712   4.102  13.165  0.0310  0.0190  0.1879
 2687W        W20891   8.508   1.314  16.777  0.0880  0.1222  0.1692
 2688W        W20892   4.781   4.691   2.747 -0.1435 -0.0673  0.2757
 2689W        W20893  10.555   2.492   3.738  0.1951  0.3109  0.1572
 2690W        W20894  11.671  13.427  16.163 -0.1134  0.0390  0.1864
 2691W        W20895   4.063   8.287  17.478 -0.2324  0.2386  0.0439
 2692W        W20896   0.839  13.020  14.955 -0.1073 -0.1851 -0.0471
 2693W        W20897   8.464  15.773   0.812  0.0023 -0.1179 -0.3642
 2694W        W20898   2.347  12.084   4.050  0.0361 -0.2449  0.1418
 2695W        W20899  10.188  12.622  16.749 -0.0841  0.1159 -0.0812
 2696W        W20900   4.600  15.057   1.506  0.1834  0.0510  0.2223
 2697W        W20901  17.183   5.171  13.847  0.0911  0.1026  0.1125
 2698W        W20902   0.520  13.459  15.001 -0.2210  0.0088 -0.0628
 2699W        W20903   9.480  13.055   0.901  0.0781  0.0710  0.0548
 2700W        W20904  11.657  12.639  12.619  0.2212  0.0350 -0.0230
 2701W        W20905   1.172  11.909  14.338 -0.2849  0.3217  0.3329
 2702W        W20906  15.930  10.947   4.216 -0.2142  0.0446  0.1028
 2703W        W20907  10.108   2.144  16.975 -0.2033 -0.4238  0.1568
 2704W        W20908  17.195   7.452   3.804  0.3639 -0.0620  0.2377
 2705W        W20909  12.636  14.683   0.093 -0.0969  0.2145 -0.0361
 2706W        W20910   9.300   4.007  15.273  0.2516 -0.0276  0.1014
 2707W        W20911  15.188  11.473   3.256  0.0071  0.0802  0.0776
 2708W        W20912   5.236  16.276  16.295  0.1394 -0.3405  0.2861
 2709W        W20913  15.531  16.320   4.269  0.3411 -0.1298 -0.3625
 2710W        W20914   5.108  11.616   3.656 -0.0867 -0.1634  0.0814
 2711W        W20915  11.228   4.413  15.224  0.3287 -0.0703  0.0984
 2712W        W20916   5.017   2.146  17.031  0.2806 -0.0129  0.0297
 2713W        W20917   7.597   5.327  13.365 -0.2723  0.3032 -0.0081
 2714W        W20918  15.265   0.575   4.772  0.3307  0.1240 -0.2550
 2715W        W20919   1.333  10.625  12.873  0.2582 -0.2242 -0.0809
 2716W        W20920  17.272  10.909  15.633 -0.0887  0.0843 -0.1651
 2717W        W20921  16.586   0.971   4.957  0.0252 -0.1095 -0.1822
 2718W        W20922  11.338  10.975   1.970  0.2641  0.0615  0.0004
 2719W        W20923   5.572  12.379   3.562  0.0681 -0.2753 -0.2474
 2720W        W20924  14.175   6.951   0.688 -0.1586  0.1101 -0.1595
 2721W        W20925   6.117   7.755   3.650 -0.1820  0.1890 -0.0717
 2722W        W20926  14.427  11.003  14.998 -0.1270  0.0181 -0.0469
 2723W        W20927   8.974   2.519   0.372  0.1586  0.0117 -0.0247
 2724W        W20928   6.056  12.718  14.158  0.0135  0.1118 -0.3167
 2725W        W20929  12.115   5.297  17.470 -0.0149 -0.0076 -0.0530
 2726W        W20930  16.841   4.700  15.865 -0.0545  0.0871 -0.1956
 2727W        W20931   1.278  12.240   0.956 -0.0809  0.1796  0.0781
 2728W        W20932  11.573   4.414  16.631 -0.3288 -0.3288 -0.0572
 2729W        W20933   5.896   5.787  15.627 -0.1249 -0.0714  0.1650
 2730W        W20934  12.746   1.288   0.848 -0.3696  0.0631  0.1601
 2731W        W20935  16.599   6.864   2.200 -0.1916 -0.1512 -0.1082
 2732W        W20936  15.024  10.023   1.944  0.1209  0.2843  0.1251
 2733W        W20937   5.535   4.003   1.061 -0.0567 -0.0713  0.2943
 2734W        W20938  11.448   0.445  17.463 -0.2141  0.1463 -0.3570
 2735W        W20939  12.656  14.325  15.639 -0.0219 -0.0589 -0.1959
 2736W        W20940   0.391   2.123  13.474  0.0519 -0.0587  0.1869
 2737W        W20941   6.994   6.392  15.403  0.1779 -0.0488 -0.1680
 2738W        W20942   7.777  17.135  15.202 -0.0338 -0.0626  0.3038
 2739W        W20943   7.279   8.400   4.233 -0.0612  0.0487 -0.1614
 2740W        W20944   1.868  14.692  15.978 -0.2454  0.1020 -0.0066
 2741W        W20945  11.980  13.255   1.573 -0.0796  0.3546 -0.0660
 2742W        W20946  12.784  12.071  16.071  0.3083 -0.0797 -0.0315
 2743W        W20947   9.224   2.826   0.718  0.0840  0.0894  0.0663
 2744W        W20948  13.070   9.949   1.203 -0.0496 -0.1330  0.3092
 2745W        W20949  14.997   4.729   1.219  0.0727 -0.5198  0.0982
 2746W        W20950  16.056  11.340   4.540  0.1167 -0.0005  0.2411
 2747W        W20951  11.823   1.651   3.589  0.0792  0.3555  0.0570
 2748W        W20952   0.870   5.060  13.926  0.2470 -0.1739 -0.1736
 2749W        W20953   0.786   8.446  16.542 -0.0519  0.4116 -0.0614
 2750W        W20954  16.342   7.341   3.066 -0.2317  0.3811 -0.1613
 2751W        W20955   4.376   8.831   4.423 -0.0566  0.0149 -0.0648
 2752W        W20956   6.283  11.896  12.315 -0.1513 -0.4246  0.0891
 2753W        W20957  12.004   5.354   2.642 -0.0347  0.1547  0.0960
 2754W        W20958  14.600  13.657  17.287  0.0115 -0.1986  0.0797
 2755W        W20959   1.830   8.550   1.687  0.2285  0.0900  0.2014
 2756W        W20960   6.071  16.094   0.800  0.5207  0.1258 -0.1206
 2757W        W20961  12.620   8.105   2.653 -0.1489  0.1111 -0.1106
 2758W        W20962  12.788   1.016   4.744 -0.1208 -0.0226  0.2514
 2759W        W20963   0.620  16.452   0.416  0.4164 -0.0126  0.0077
 2760W        W20964   9.734  12.969  12.990 -0.0500 -0.0437  0.1104
 2761W        W20965   9.515  12.948  15.744 -0.4356  0.0113  0.0581
 2762W        W20966   9.053   5.414  17.500 -0.0914 -0.0238 -0.3865
 2763W        W20967  10.922   2.945   1.515  0.2089 -0.0249 -0.1815
 2764W        W20968  12.351   0.260  15.525 -0.3323  0.1762 -0.1631
 2765W        W20969  15.865   1.022  16.676  0.2088 -0.1056 -0.1567
 2766W        W20970   1.628  12.864   3.285 -0.0470 -0.2636 -0.4870
 2767W        W20971  10.206  14.832  14.522  0.2581  0.1130  0.2437
 2768W        W20972   4.353   3.662   2.217  0.0290 -0.0406  0.0407
 2769W        W20973   8.470   9.455   5.101 -0.1511  0.0350 -0.0745
 2770W        W20974  10.464   5.353  12.735 -0.1628  0.2149 -0.1350
 2771W        W20975  10.538   8.124   4.035 -0.1870 -0.1601  0.2541
 2772W        W20976  16.083  14.846  13.550  0.1755 -0.0585 -0.1937
 2773W        W20977  11.837   7.945   3.526  0.1629 -0.1192 -0.2343
 2774W        W20978  14.232   0.189   4.295  0.2697 -0.0213 -0.0918
 2775W        W20979   0.790   8.029   0.494 -0.4762 -0.0645 -0.2743
 2776W        W20980   9.277  16.838   1.011 -0.1612 -0.2107  0.4004
 2777W        W20981  14.304  16.985   4.916  0.1193  0.1256 -0.0121
 2778W        W20982   4.522   1.572  13.232 -0.0292 -0.0905 -0.2088
 2779W        W20983  11.719  15.179  16.122 -0.2292  0.0771  0.0190
 2780W        W20984   4.283  13.887   1.073 -0.0001 -0.0025 -0.0344
 2781W        W20985  16.622   3.448  12.230  0.2249  0.0380 -0.0179
 2782W        W20986   8.517  10.781  13.982 -0.3220 -0.2872 -0.2909
 2783W        W20987   1.638   7.979  14.211 -0.0988  0.0118  0.1604
 2784W        W20988   2.011   2.127   5.381  0.2160  0.1592 -0.0297
 2785W        W20989  12.626   2.953   1.692  0.2097  0.1446 -0.0763
 2786W        W20990  12.820   6.381  12.028 -0.3706  0.3220  0.1903
 2787W        W20991  11.807   4.757   3.883 -0.0458 -0.2308 -0.2619
 2788W        W20992  11.399  16.721  15.633 -0.0155  0.0602 -0.1993
 2789W        W20993   1.938  12.244   2.811  0.2806  0.0184 -0.1814
 2790W        W20994  12.112   9.369   2.429  0.2339  0.0039 -0.4661
 2791W        W20995   8.301   4.259  17.429  0.2334  0.1990  0.2757
 2792W        W20996  16.515   8.650   1.810  0.0123  0.1698 -0.0167
 2793W        W20997  12.639  11.677   5.004  0.0876 -0.0570 -0.2247
 2794W        W20998  10.314   2.069   5.291  0.1084 -0.1062  0.5448
 2795W        W20999   8.125  11.742   3.312 -0.1756 -0.1551  0.1524
 2796W        W21000   5.266  15.625   3.542  0.3088 -0.2358 -0.1129
 2797W        W21001  13.833  10.240  13.182 -0.1065  0.2019  0.1483
 2798W        W21002   9.376   0.205   5.241  0.1309 -0.0373 -0.2464
 2799W        W21003   0.542   2.518  13.182  0.0509 -0.2314  0.1107
 2800W        W21004  12.955  16.228  16.341  0.3015 -0.1543 -0.1858
 2801W        W21005   1.204  11.711   3.358 -0.0084 -0.0440 -0.0637
 2802W        W21006   9.479   3.506   3.249 -0.2057  0.0455 -0.2593
 2803W        W21007   0.864  13.461   1.357  0.1235  0.0544  0.3002
 2804W        W21008  17.289   9.887   1.257  0.1074  0.0559  0.0887
 2805W        W21009  12.785   3.257  16.511  0.2779  0.2740  0.0873
 2806W        W21010  14.474  10.324  14.602 -0.2058  0.1228  0.1242
 2807W        W21011   4.008   1.626  15.336  0.0783 -0.3834 -0.0629
 2808W        W21012   6.588  10.853  12.421 -0.1752 -0.0847  0.0979
 2809W        W21013   8.971  11.029  12.360 -0.0106 -0.2625  0.2254
 2810W        W21014  16.969  16.656  14.886 -0.1039 -0.0813 -0.3702
 2811W        W21015   6.718  13.964   0.050 -0.0938 -0.1124  0.0953
 2812W        W21016  16.112   4.664  11.703 -0.1001  0.2039  0.2196
 2813W        W21017  15.000  17.098  17.072  0.1273 -0.2711 -0.0530
 2814W        W21018   6.722  15.943   4.620 -0.1314  0.0119  0.2812
 2815W        W21019  12.664  14.914  17.137  0.0231  0.0067  0.1239
 2816W        W21020  14.958   1.630  11.429 -0.1461 -0.1587  0.1621
 2817W        W21021   9.774   6.586   2.001  0.0508  0.1773  0.2118
 2818W        W21022   8.000  15.396   0.897 -0.1466  0.0357 -0.3145
 2819W        W21023   7.493  13.249   2.133 -0.0277 -0.3536 -0.1605
 2820W        W21024  13.862   9.791   0.354 -0.0224 -0.0402 -0.1326
 2821W        W21025  12.261   2.107   1.712  0.1269  0.1247 -0.1196
 2822W        W21026   5.796  11.681  16.947 -0.1859 -0.2146 -0.0509
 2823W        W21027   3.973   6.530   5.589 -0.0728  0.1997  0.2142
 2824W        W21028   0.910  11.866  16.917  0.0409  0.0598 -0.0397
 2825W        W21029  12.568  10.361  17.296  0.1074 -0.0310 -0.0120
 2826W        W21030   9.507  11.404  14.869  0.0324  0.1685  0.0896
 2827W        W21031   6.354  11.535   2.244  0.0864 -0.0767  0.0357
 2828W        W21032   2.743  14.785  16.853  0.0653  0.4603  0.4390
 2829W        W21033  13.514   2.932  12.132 -0.0577  0.2787  0.0303
 2830W        W21034   4.028   9.350  12.883  0.1084 -0.4702  0.2420
 2831W        W21035   2.777  11.686  13.689 -0.1026  0.1641  0.1842
 2832W        W21036   2.839   7.630  14.763  0.0874  0.1141  0.1643
 2833W        W21037   4.807  15.281   5.190  0.1129 -0.3091 -0.0099
 2834W        W21038   5.706   8.646   4.697  0.2802 -0.3785  0.1149
 2835W        W21039   4.589   6.104  15.408 -0.0350 -0.0194 -0.2304
 2836W        W21040  15.626   6.946   3.708  0.0342 -0.2214  0.0780
 2837W        W21041  11.272   6.004  15.910 -0.1364  0.3094 -0.0914
 2838W        W21042   1.174  14.571   2.026  0.3282 -0.4035  0.1493
 2839W        W21043   3.326   2.726  14.244 -0.0747 -0.1926  0.0309
 2840W        W21044  10.238   9.937  16.316  0.1060 -0.1645  0.1203
 2841W        W21045   4.459  15.902  15.649  0.0458 -0.2667  0.0642
 2842W        W21046   7.529  10.028  14.949  0.0999 -0.1813  0.1639
 2843W        W21047   0.600   1.254   5.257 -0.0164 -0.0398 -0.1439
 2844W        W21048  17.001   8.417  13.781 -0.0974  0.1866  0.1805
 2845W        W21049  15.816   0.423  17.014  0.0794 -0.4238 -0.1000
 2846W        W21050   6.618   9.572  17.172  0.2021 -0.1663  0.0857
 2847W        W21051  12.048  16.278  16.641  0.1459  0.1206  0.0710
 2848W        W21052  10.214  11.129  12.441 -0.0425  0.3566  0.2655
 2849W        W21053   3.986   5.692   3.769 -0.1523  0.0327  0.2188
 2850W        W21054   4.819  17.074  14.355 -0.1063 -0.0606  0.0435
 2851W        W21055   5.826   0.067   4.557  0.1865 -0.1669  0.0377
 2852W        W21056   4.219  13.550  15.088  0.0060  0.0929  0.0920
 2853W        W21057   9.115  10.132  14.086 -0.1575  0.2617  0.0326
 2854W        W21058  13.842   2.784  13.868  0.2102 -0.0435 -0.1510
 2855W        W21059   5.764  11.722   0.927  0.0494  0.0406  0.0260
 2856W        W21060   4.369   1.695   3.555  0.1821  0.0135 -0.1255
 2857W        W21061   3.278   8.724  15.439  0.0507  0.0132 -0.0412
 2858W        W21062   6.413  15.507  14.286 -0.1084  0.0368  0.0938
 2859W        W21063   5.955  14.668   1.539  0.0993  0.0763  0.3644
 2860W        W21064   8.072   7.786   4.590  0.1034 -0.1891  0.1735
 2861W        W21065  12.713   0.513  16.970  0.0269 -0.2373  0.1484
 2862W        W21066  14.592   6.536   0.698 -0.0732  0.1182  0.2452
 2863W        W21067   0.125  15.956  13.883  0.0809  0.0514 -0.4110
 2864W        W21068  13.774  17.068  16.463 -0.1295 -0.1515  0.0207
 2865W        W21069   2.087  11.293  15.109 -0.3732  0.3395  0.1263
 2866W        W21070   3.474   3.038   3.486 -0.0698  0.0050  0.0247
 2867W        W21071  15.137   1.687  14.355 -0.0840  0.1469 -0.2299
 2868W        W21072  12.991  13.206   2.058 -0.1389  0.1768 -0.1582
 2869W        W21073   8.453  11.621  17.413 -0.0653  0.2720 -0.0134
 2870W        W21074  12.068   0.542  15.961 -0.0484 -0.2501  0.0116
 2871W        W21075  15.207  14.685   1.600  0.1549  0.0826 -0.1142
 2872W        W21076  12.558   1.998  15.982 -0.0743  0.2907  0.0110
 2873W        W21077  16.787   3.086  12.538 -0.2662 -0.2511 -0.0172
 2874W        W21078  15.514  12.971   0.345 -0.1104 -0.0684 -0.1565
 2875W        W21079   4.584   6.112   3.970  0.2175 -0.0021  0.2829
 2876W        W21080  13.571   8.227  17.475 -0.0551  0.0389  0.4071
 2877W        W21081  11.106   9.611  12.347 -0.1268  0.1383  0.2169
 2878W        W21082   3.199  12.564  13.478 -0.1103 -0.1480 -0.0950
 2879W        W21083   4.630  14.419  15.934 -0.3439 -0.0347  0.0006
 2880W        W21084  17.069  13.424  14.054 -0.0269 -0.0949 -0.1304
 2881W        W21085  14.597   3.213  14.295  0.0606 -0.1750  0.1790
 2882W        W21086   5.405  10.803  12.313  0.0836  0.1388  0.0141
 2883W        W21087  12.959   5.766  17.000 -0.2144 -0.0159  0.0767
 2884W        W21088   5.664   1.389   2.370 -0.0680  0.1389 -0.0037
 2885W        W21089   2.871   1.359   4.014 -0.1062 -0.1348  0.0277
 2886W        W21090   5.336  14.028  12.583 -0.3110 -0.2003 -0.1300
 2887W        W21091   6.323  13.574  15.662  0.0065  0.1640 -0.3002
 2888W        W21092   4.604   5.643  15.135  0.0576 -0.3722  0.1684
 2889W        W21093  12.590  15.994   1.303  0.0082 -0.2980 -0.4147
 2890W        W21094  15.652   9.601  16.965 -0.0075 -0.3338  0.2308
 2891W        W21095  13.368   1.352   5.394 -0.0084  0.1093 -0.1552
 2892W        W21096   0.231   8.471   4.817  0.1302  0.2505  0.0385
 2893W        W21097   8.081  14.409   4.880  0.1990 -0.0454 -0.2665
 2894W        W21098  14.375  16.065   0.807  0.2292 -0.1616 -0.2002
 2895W        W21099   1.440   6.294  16.613  0.1744  0.0781 -0.1821
 2896W        W21100   0.189   9.026  15.951  0.1356  0.0905 -0.0426
 2897W        W21101   1.079  14.891   0.777 -0.1009 -0.3277 -0.4775
 2898W        W21102  16.621   5.377   0.059  0.0510  0.0384  0.4090
 2899W        W21103  16.995  14.716   1.113  0.0004 -0.0747 -0.4472
 2900W        W21104  12.406   7.858   1.327  0.1075 -0.2199 -0.0785
 2901W        W21105   4.889   6.458   4.175  0.0833 -0.2890 -0.1736
 2902W        W21106  15.513   8.429  15.164 -0.0593 -0.1292  0.2707
 2903W        W21107   9.156   2.847   4.654 -0.1845  0.4313 -0.1578
 2904W        W21108   8.994  17.206   0.783  0.0610  0.1854 -0.0481
 2905W        W21109   0.765   3.438   0.736  0.1016 -0.2673  0.0954
 2906W        W21110   6.368   2.998  11.370 -0.0557  0.2857  0.0514
 2907W        W21111   8.440   5.506  13.593  0.2011  0.2120  0.1502
 2908W        W21112  11.891  12.061  17.183  0.0406  0.4561  0.1451
 2909W        W21113  15.133  13.686  15.596  0.2117  0.0292 -0.4458
 2910W        W21114  13.972   0.922   0.232  0.0990  0.2629 -0.3471
 2911W        W21115   7.138   6.891   0.199 -0.1010  0.2909 -0.1051
 2912W        W21116  17.191   7.948  17.183  0.1459  0.2903 -0.3209
 2913W        W21117  12.140  10.319   5.880 -0.1688  0.2535 -0.0744
 2914W        W21118  11.791   8.319   4.418  0.2906 -0.0018 -0.0900
 2915W        W21119   5.604   3.221  12.812  0.1780 -0.2529 -0.0192
 2916W        W21120   7.778   3.306  14.974 -0.3510 -0.0245  0.0429
 2917W        W21121   1.069  11.889   0.517  0.0859 -0.1488  0.1376
 2918W        W21122   5.879  11.202  14.652 -0.0232 -0.0797  0.0913
 2919W        W21123   0.338   3.510   2.124  0.1340  0.2140  0.1451
 2920W        W21124   8.932  12.652   3.499  0.2630  0.0165  0.0028
 2921W        W21125  15.460   9.876   2.222 -0.1619  0.3343  0.0175
 2922W        W21126   2.774   4.543  16.572  0.0175  0.0360 -0.0228
 2923W        W21127   7.929   6.256  16.291  0.3568 -0.3482 -0.0798
 2924W        W21128   7.733   7.404   4.432  0.1009 -0.1025  0.1337
 2925W        W21129   9.760  15.102  12.800 -0.1223 -0.1144 -0.0450
 2926W        W21130  11.810   3.232   0.939 -0.2717  0.1026  0.0461
 2927W        W21131  15.686   5.308   2.035  0.2552 -0.2615  0.1409
 2928W        W21132  10.778   2.924   2.916 -0.1251 -0.2251  0.1218
 2929W        W21133   4.915  14.681   4.309  0.0611 -0.0898 -0.0886
 2930W        W21134   2.082   4.665  17.151 -0.0713 -0.0490 -0.1469
 2931W        W21135   6.938  14.638  13.064 -0.1578  0.2881  0.4159
 2932W        W21136   5.464  11.761  14.003  0.0880 -0.0682 -0.1586
 2933W        W21137  10.432  11.957  15.604  0.1024  0.0557  0.0065
 2934W        W21138   9.537   5.301  13.718  0.2464 -0.0038  0.2327
 2935W        W21139   1.699   7.870  12.900  0.1902  0.4679  0.2592
 2936W        W21140   5.036   8.216   3.455  0.0808  0.3367  0.0204
 2937W        W21141  15.821   8.025   0.395 -0.3560 -0.1406  0.1410
 2938W        W21142   9.915   8.493  12.984  0.0243  0.0127 -0.0669
 2939W        W21143  16.558   1.511   5.057  0.2071 -0.1647  0.6261
 2940W        W21144   9.577   4.293   2.205  0.1361  0.2919 -0.0383
 2941W        W21145  14.406  15.171   4.397 -0.0484  0.0848 -0.2138
 2942W        W21146   1.352   1.329   3.007 -0.0638  0.0177 -0.1108
 2943W        W21147   8.159  15.593  14.066  0.2893  0.3630  0.1813
 2944W        W21148   3.300  17.273   1.919 -0.0121  0.0646  0.1150
 2945W        W21149   9.510   1.339   6.388 -0.3408  0.1360  0.0917
 2946W        W21150  15.305   2.117  12.383  0.0450  0.0878  0.0416
 2947W        W21151   2.949  10.355  16.375  0.1328  0.0462  0.0226
 2948W        W21152   4.866  15.763   3.206 -0.1403 -0.0055 -0.2551
 2949W        W21153   2.206   2.561  13.225  0.0755 -0.2155 -0.1073
 2950W        W21154   4.137   3.396   5.694 -0.0577  0.2057  0.2097
 2951W        W21155   2.440   8.048  14.122  0.0918 -0.0337  0.1821
 2952W        W21156   4.997   6.833  16.426  0.0609  0.2788 -0.1375
 2953W        W21157  15.923   6.052   2.171 -0.1398  0.1594  0.1373
 2954W        W21158   7.775  12.479  14.822 -0.0845 -0.0357  0.2406
 2955W        W21159  11.428  15.219  17.021 -0.1624 -0.2440  0.1542
 2956W        W21160   4.212   2.212   1.558  0.3584  0.1042 -0.0737
 2957W        W21161  12.591   5.675  14.731  0.0353  0.1124  0.1284
 2958W        W21162  15.986   3.444   3.796  0.0429 -0.0899 -0.0316
 2959W        W21163  11.873  15.349  15.606  0.0828  0.0598  0.2380
 2960W        W21164   6.929  13.508   1.924  0.3769 -0.0458  0.0165
 2961W        W21165   8.518  16.581   0.587  0.2014  0.1261  0.0635
 2962W        W21166  16.413  10.512  16.161  0.0798 -0.0910  0.0206
 2963W        W21167   3.393  11.513   1.957 -0.2250  0.0199  0.0658
 2964W        W21168  16.968  13.342  12.857 -0.2059 -0.2305 -0.3056
 2965W        W21169  11.332   4.703  12.595  0.1897  0.1379  0.2361
 2966W        W21170  10.627   2.718  13.880 -0.1350 -0.0146 -0.2336
 2967W        W21171   4.003   5.200  13.920  0.0416 -0.0031 -0.1669
 2968W        W21172  11.974  17.023   3.023 -0.2457  0.1877 -0.1567
 2969W        W21173   6.058  15.238   4.475  0.1618  0.0014  0.1916
 2970W        W21174  12.027   1.619  14.870  0.3631  0.0231 -0.0214
 2971W        W21175  13.632   1.478   5.772 -0.0688 -0.1813 -0.2704
 2972W        W21176  13.008   1.837  15.855  0.2378  0.0528 -0.1831
 2973W        W21177   5.530   2.582  15.667 -0.1330 -0.1080  0.1581
 2974W        W21178   4.862   6.599   3.273 -0.3179  0.1597  0.1157
 2975W        W21179   0.925  16.500   2.365 -0.0253  0.1097  0.0073
 2976W        W21180  14.679   8.721   5.128  0.5049 -0.0263  0.1361
 2977W        W21181   4.970  12.176   3.835  0.2747  0.1145  0.0795
 2978W        W21182   9.474  14.480  13.502 -0.1381  0.0078 -0.1562
 2979W        W21183  12.081   1.797   0.398 -0.2913 -0.0266  0.1031
 2980W        W21184   0.560   6.992  15.772 -0.2215 -0.0555  0.0397
 2981W        W21185   5.825   9.149   3.150  0.1994 -0.2426  0.1999
 2982W        W21186   0.570  15.152  15.748 -0.0718  0.0860 -0.1270
 2983W        W21187  15.967   1.334   1.176  0.1010 -0.0271 -0.0870
 2984W        W21188  13.725  11.824   0.021  0.2341 -0.1321  0.0429
 2985W        W21189  15.695   1.294   4.654  0.0518 -0.1087  0.3219
 2986W        W21190   9.991  10.239  15.312  0.2386  0.0500  0.1808
 2987W        W21191  12.716  11.850  12.685  0.2518 -0.1930  0.2993
 2988W        W21192   9.087   7.674  13.128 -0.0435 -0.1777  0.0469
 2989W        W21193  10.442   5.521   3.834  0.3875  0.3106  0.1397
 2990W        W21194   9.208   5.850   1.151  0.0450  0.1069  0.2717
 2991W        W21195  10.632   1.149  14.601 -0.1183  0.2594  0.0830
 2992W        W21196  13.356   5.544   0.794  0.0339 -0.0070 -0.1440
 2993W        W21197   2.577  14.185  15.407 -0.1005 -0.0950  0.2752
 2994W        W21198   7.605   8.583  15.295  0.0489 -0.1823  0.0255
 2995W        W21199  14.328   5.003  12.488 -0.0851  0.2276  0.2595
 2996W        W21200   9.929  11.594  15.554  0.1548 -0.3528  0.3196
 2997W        W21201   5.193  16.360   4.975 -0.2385  0.3185  0.1122
 2998W        W21202  14.869   5.593   1.704 -0.0994 -0.0026  0.2235
 2999W        W21203  14.454   0.162  12.694  0.1176 -0.2400 -0.4211
 3000W        W21204   1.794   0.548  12.360  0.1140  0.2653 -0.0729
 3001W        W21205  11.526   2.830  13.757  0.1179 -0.2047  0.1069
 3002W        W21206  13.218   7.689  14.268 -0.0963 -0.1540 -0.0313
 3003W        W21207   8.578   6.834  12.907  0.0052  0.0357 -0.1721
 3004W        W21208   0.549  16.709   1.708 -0.2217 -0.0455 -0.1783
 3005W        W21209  11.503   5.398  13.664  0.1670 -0.0236 -0.2732
 3006W        W21210   5.956   4.558  12.987 -0.0824  0.0910  0.0049
 3007W        W21211   7.255   3.867   6.532 -0.1683  0.1601 -0.1296
 3008W        W21212   8.087  13.870  14.062  0.0156  0.1215 -0.2410
 3009W        W21213  11.946   8.664   1.342 -0.0005 -0.2146 -0.0324
 3010W        W21214  15.799  14.860   0.967 -0.4592 -0.0337  0.0549
 3011W        W21215  16.309  15.576  14.512  0.2928 -0.0374  0.1255
 3012W        W21216  15.196  15.978  15.214  0.0971 -0.1162  0.1219
 3013W        W21217  16.076  13.866   0.804  0.2677  0.0890 -0.4858
 3014W        W21218  14.291  15.392   3.468 -0.1598 -0.1626  0.2202
 3015W        W21219  16.123   5.163   1.841 -0.0525 -0.1278 -0.0044
 3016W        W21220  12.605  16.241  12.010 -0.0855 -0.0026 -0.1239
 3017W        W21221   3.593  17.005  15.890 -0.2316  0.2926  0.1412
 3018W        W21222   4.852   1.284   0.684 -0.2609  0.0840  0.2074
 3019W        W21223   7.834   2.828   3.706 -0.0276  0.0900  0.0335
 3020W        W21224  11.193   9.325  12.752 -0.2461 -0.1228  0.2672
 3021W        W21225  12.726  10.601  15.580 -0.1648 -0.2242  0.0896
 3022W        W21226   4.945   3.508  17.322 -0.2220  0.0616 -0.0559
 3023W        W21227   2.651  13.588  16.283 -0.0251 -0.0682  0.2190
 3024W        W21228   7.033   4.214   4.478 -0.0046 -0.0863 -0.1753
 3025W        W21229  15.291   4.046  12.105  0.0292  0.0847  0.0188
 3026W        W21230   4.131  14.859  16.376 -0.1059  0.1680 -0.0429
 3027W        W21231  16.121   4.498   1.725  0.3111  0.0608  0.0317
 3028W        W21232  16.292  15.588  16.736 -0.0786 -0.2872  0.0346
 3029W        W21233   4.912  10.518  14.135  0.2418 -0.1923  0.2000
 3030W        W21234   5.758   6.387  14.542  0.2220  0.0305  0.0253
 3031W        W21235   8.092  12.136  13.712  0.0316 -0.1242  0.0710
 3032W        W21236   1.516  17.023  13.760  0.2839 -0.0330  0.0947
 3033W        W21237  14.171   9.985  15.474 -0.2199  0.0817  0.0697
 3034W        W21238  15.941   1.195   0.667  0.1643 -0.3281 -0.1408
 3035W        W21239  13.701  14.719   2.599  0.2038 -0.0873 -0.1272
 3036W        W21240  15.081  16.175  17.081  0.4853  0.2953 -0.1869
 3037W        W21241   2.869   4.184   1.717 -0.0018  0.2166 -0.3157
 3038W        W21242   5.652   3.269   1.819  0.0702 -0.0283  0.0967
 3039W        W21243   7.813   7.221  16.487 -0.0491 -0.3241 -0.0213
 3040W        W21244   2.376  12.751   1.912  0.2100  0.0265  0.1678
 3041W        W21245   4.003   1.831   0.798  0.2588 -0.1141  0.0777
 3042W        W21246  15.929  12.255   2.023  0.0787  0.1837 -0.1474
 3043W        W21247  11.986   0.673   4.629 -0.2861  0.3042  0.3690
 3044W        W21248   9.284   4.898  11.168  0.0563 -0.2509 -0.1827
 3045W        W21249   6.100   8.550  13.232  0.1139 -0.0735 -0.1182
 3046W        W21250  16.514   8.660   2.700 -0.0979 -0.0322 -0.0422
 3047W        W21251  16.068  10.836   4.741 -0.0727 -0.0894 -0.1745
 3048W        W21252   0.575   9.888  17.519 -0.1248 -0.1962  0.1949
 3049W        W21253  12.675  11.777  13.185  0.2334 -0.0321  0.0033
 3050W        W21254   4.771   8.557   5.047  0.0677 -0.2031  0.0894
 3051W        W21255   6.413  12.357  12.330 -0.0226  0.2615 -0.3508
 3052W        W21256   3.700  11.530  14.266 -0.1864  0.2895  0.0677
 3053W        W21257   1.803   1.611   0.848 -0.1330  0.0791 -0.0625
 3054W        W21258  14.524  15.013   3.908 -0.1426  0.0712 -0.0899
 3055W        W21259  13.287  17.179  14.590  0.2859  0.1477  0.0986
 3056W        W21260  10.765  14.644   1.126 -0.2419  0.1970  0.1554
 3057W        W21261  16.625  16.750  13.104  0.0465  0.0408 -0.0215
 3058W        W21262  12.108  12.919  14.803 -0.1958  0.1177 -0.1405
 3059W        W21263   4.582   8.129   1.941 -0.0952 -0.3485  0.2683
 3060W        W21264  14.706  16.587  13.316  0.1194  0.0200 -0.0826
 3061W        W21265  13.391  13.075  17.239  0.0525  0.0728 -0.0262
 3062W        W21266   5.885   7.243  12.997  0.1473 -0.2719  0.0231
 3063W        W21267  16.139  14.892  13.037 -0.1410  0.0655  0.1730
 3064W        W21268  14.053  15.756   5.163  0.0692 -0.2116  0.0451
 3065W        W21269   4.754  16.021  13.556 -0.1870  0.1549  0.0128
 3066W        W21270   9.050   7.279   0.472 -0.1526  0.1088  0.0448
 3067W        W21271   4.358   4.784  17.307 -0.2888  0.0136 -0.0275
 3068W        W21272  17.296   9.537  13.576 -0.2148 -0.0845  0.0211
 3069W        W21273  10.678   5.999   3.551 -0.0262 -0.4094  0.0089
 3070W        W21274   1.069   4.092  16.427 -0.2697  0.0082  0.0757
 3071W        W21275   0.687   2.274   2.388 -0.3217 -0.1026 -0.0761
 3072W        W21276   1.509  17.253   0.792 -0.2794  0.2374  0.1019
 3073W        W21277  10.272   2.547   1.993 -0.0577 -0.0950  0.0417
 3074W        W21278   0.020  11.603   0.513  0.0887 -0.2764 -0.1128
 3075W        W21279  12.663  15.900   2.393  0.2151 -0.1148  0.2562
 3076W        W21280  14.029   5.475   5.192 -0.1275 -0.1440  0.0596
 3077W        W21281   3.252  13.853   3.765  0.1269 -0.0821  0.0226
 3078W        W21282   8.721  12.004   4.166  0.0604 -0.2645 -0.2311
 3079W        W21283  16.235  14.435  16.516  0.0324  0.1469 -0.1311
 3080W        W21284   3.206  13.375   5.168 -0.0318  0.0414  0.3570
 3081W        W21285   6.767   0.903   3.661 -0.3361 -0.3387  0.0260
 3082W        W21286  13.468   6.000   0.899 -0.0344  0.0521  0.0823
 3083W        W21287  13.470   0.867  15.935 -0.0197 -0.3081 -0.0052
 3084W        W21288   9.236  10.782   1.135  0.4337  0.0342 -0.2632
 3085W        W21289   5.598  13.539   5.326 -0.4716  0.3913 -0.1023
 3086W        W21290  16.445   5.825  16.440 -0.3521 -0.1735  0.1956
 3087W        W21291   4.137  10.351   2.151  0.1514 -0.0028 -0.2046
 3088W        W21292   7.358  13.013  14.394 -0.2410  0.1428  0.0738
 3089W        W21293  17.176   9.323   4.305 -0.3397 -0.2337  0.2800
 3090W        W21294   6.519   8.821   4.487 -0.2271 -0.0346 -0.0262
 3091W        W21295   5.063   2.350  12.900 -0.0718  0.1532 -0.0943
 3092W        W21296  16.715   3.734   0.623  0.0892  0.1541  0.0518
 3093W        W21297  12.483   0.029  12.650 -0.0729  0.1522 -0.2858
 3094W        W21298  11.103  10.919   1.463  0.0878  0.0092 -0.0933
 3095W        W21299   8.782  12.177   3.404  0.0436 -0.1563  0.1565
 3096W        W21300   5.655   9.437  17.141 -0.1272 -0.1339 -0.1019
 3097W        W21301  16.419   4.534   2.290 -0.4417  0.0557  0.3416
 3098W        W21302   7.740   6.198  13.258 -0.5654  0.3706  0.2356
 3099W        W21303  13.907  15.264   0.188 -0.2943 -0.2001 -0.0827
 3100W        W21304   2.253   0.915   0.800 -0.1576  0.2723  0.2104
 3101W        W21305   5.670   4.835  17.093 -0.2081  0.1642 -0.0981
 3102W        W21306   3.921   2.750  12.498 -0.0347  0.1856  0.0667
 3103W        W21307   2.822  12.363  16.307 -0.1305  0.1592  0.4006
 3104W        W21308  11.654   9.333  14.284 -0.0012 -0.1008  0.0678
 3105W        W21309  11.212  11.928   4.935  0.1163  0.4819 -0.0731
 3106W        W21310   6.364   2.034  15.364 -0.0900 -0.0515  0.0343
 3107W        W21311  12.847   3.792  16.619  0.4171  0.2216 -0.3539
 3108W        W21312   0.551   4.386  11.751 -0.3439  0.2070  0.1385
 3109W        W21313  11.771   1.137   3.210  0.2143 -0.1919  0.0753
 3110W        W21314   2.618   2.942   2.301 -0.2500 -0.1165 -0.3710
 3111W        W21315   5.521  11.423  14.901 -0.1287 -0.0377 -0.0645
 3112W        W21316   9.330   1.561   0.620 -0.0140 -0.2356  0.0804
 3113W        W21317  17.066   8.922   3.997 -0.0306 -0.3670  0.3900
 3114W        W21318   2.837  16.531  13.532  0.1762 -0.4489  0.0340
 3115W        W21319  16.857   8.979   1.040  0.1192 -0.1584  0.0467
 3116W        W21320   9.422  16.352  12.336 -0.2368 -0.1647 -0.3037
 3117W        W21321   9.276  16.703   1.974  0.4480  0.3544  0.5382
 3118W        W21322  12.047   8.647   0.603 -0.0572  0.2223 -0.2354
 3119W        W21323   2.664  10.432   1.854 -0.0580  0.0889  0.1689
 3120W        W21324   5.004  15.229  12.812  0.0274  0.1026  0.0484
 3121W        W21325  13.778   7.093  12.439  0.0501  0.1560  0.4474
 3122W        W21326   2.451   1.378   1.532  0.1071  0.3849  0.1432
 3123W        W21327   6.308   6.169  15.534 -0.0605 -0.1895  0.0311
 3124W        W21328   1.333  12.256  16.956  0.2224  0.0492  0.3688
 3125W        W21329   3.387   2.174  15.107  0.0741 -0.2078  0.0850
 3126W        W21330   3.029   2.391   1.580  0.1941  0.1346  0.2997
 3127W        W21331  11.830   7.357  13.358 -0.2518 -0.4810  0.0852
 3128W        W21332  16.157   0.786  12.472  0.1372 -0.1955 -0.2441
 3129W        W21333  13.627   3.799   1.097 -0.1836 -0.1016 -0.2779
 3130W        W21334  13.622   4.841   3.202 -0.1666 -0.1075 -0.0757
 3131W        W21335  15.418   8.386  13.658  0.0407 -0.1894 -0.3718
 3132W        W21336   1.106  14.931  16.432  0.0103 -0.4266  0.2063
 3133W        W21337   3.961  14.423  17.226  0.0498 -0.0636 -0.2662
 3134W        W21338  15.477  12.900   5.201 -0.0999 -0.0778  0.1911
 3135W        W21339   5.769   9.898  13.220 -0.2563  0.2169 -0.0924
 3136W        W21340   3.042   1.528   1.586  0.1051 -0.2076  0.2324
 3137W        W21341   0.572  16.719  16.061 -0.2504  0.0285 -0.3128
 3138W        W21342   8.050   6.161  15.573 -0.0725 -0.0583  0.0442
 3139W        W21343  17.247  12.839   1.606 -0.0142  0.3500 -0.1581
 3140W        W21344   7.981   3.174  13.818  0.1038  0.0608 -0.0651
 3141W        W21345   2.487   1.320   4.566  0.0949  0.1025  0.4199
 3142W        W21346  15.551  13.584  13.987  0.2953  0.0527 -0.0484
 3143W        W21347  14.894   5.923  12.334 -0.1208  0.1857 -0.0626
 3144W        W21348   2.231  16.145  16.131 -0.1486  0.0045  0.1568
 3145W        W21349   3.702   3.607  15.055 -0.0531 -0.0527 -0.1940
 3146W        W21350   6.943   1.951   0.078 -0.2259 -0.2581 -0.0801
 3147W        W21351   8.494  11.337  15.544 -0.1094 -0.0315 -0.0295
 3148W        W21352  12.631  14.714   2.696  0.0686 -0.2570 -0.1504
 3149W        W21353  12.703   3.440   4.414  0.1587  0.0774  0.2122
 3150W        W21354  10.784   3.164  11.399 -0.3120  0.5288  0.0912
 3151W        W21355   7.792   2.642   5.833  0.3202  0.0044 -0.1680
 3152W        W21356   1.248   4.367  13.273  0.0357  0.2075  0.2182
 3153W        W21357   6.060  15.625  13.278  0.0563 -0.2007  0.1118
 3154W        W21358   8.886   7.074  16.358  0.1391  0.1733  0.0924
 3155W        W21359  16.316   0.361  16.213  0.3781  0.0726  0.1633
 3156W        W21360   8.519  12.827  16.657  0.3912 -0.2840  0.3181
 3157W        W21361   8.653   6.443   3.786 -0.1347 -0.0307  0.4642
 3158W        W21362  13.912  11.547  12.755  0.0341 -0.3052 -0.3088
 3159W        W21363   5.696   9.139  12.064  0.1120  0.1306  0.2238
 3160W        W21364   8.412   0.919   3.282 -0.0301  0.2597 -0.2284
 3161W        W21365   0.714   4.167  12.389  0.2530  0.1099 -0.1167
 3162W        W21366   5.066   4.818  15.522  0.0498  0.1785 -0.1730
 3163W        W21367   6.757  16.333  16.067  0.0674  0.1167 -0.0180
 3164W        W21368   8.961  13.774   1.580  0.0035  0.1549  0.2275
 3165W        W21369   9.638   5.478  12.436 -0.1986  0.3281  0.0893
 3166W        W21370  15.780   3.689  16.097  0.0212  0.1016 -0.3791
 3167W        W21371   0.492   6.372   3.316  0.2853 -0.2130 -0.0494
 3168W        W21372   1.925  12.433   0.123 -0.2332  0.2071 -0.1106
 3169W        W21373  13.390   4.436   3.440 -0.1481 -0.0796 -0.0255
 3170W        W21374  11.724  13.651   1.569  0.0831  0.0497  0.1211
 3171W        W21375   6.863   4.740  12.642 -0.1462 -0.0230  0.2833
 3172W        W21376  16.534  14.010   5.193  0.1323 -0.0071  0.2162
 3173W        W21377  15.334  17.233  13.155  0.0869  0.1358 -0.1261
 3174W        W21378  13.334  11.525   0.101  0.0967  0.1655  0.1777
 3175W        W21379   7.442  16.838  16.599  0.0929 -0.1246 -0.0297
 3176W        W21380   7.516   1.637  16.776 -0.1351  0.0128  0.0096
 3177W        W21381   7.503   9.973  17.467  0.0892 -0.0643 -0.3468
 3178W        W21382   4.690   0.363  12.946 -0.0109 -0.3708 -0.0136
 3179W        W21383   9.326   6.751   1.690  0.0257  0.0276  0.2150
 3180W        W21384   0.541   8.797   0.026  0.1012 -0.4067  0.2061
 3181W        W21385   9.032   1.503  14.752  0.3231 -0.2003  0.1708
 3182W        W21386   0.886   6.743  16.234  0.0386  0.1904 -0.3987
 3183W        W21387   7.421   3.350   0.185  0.0270  0.1907 -0.0348
 3184W        W21388   4.177   8.059  12.767  0.0781 -0.1810 -0.0434
 3185W        W21389   5.787  16.269  16.247 -0.0680 -0.2372  0.0227
 3186W        W21390   8.568   4.753  14.689  0.0910  0.1551 -0.0640
 3187W        W21391  15.866   2.530   2.973 -0.0368  0.4154 -0.1318
 3188W        W21392  15.576   6.251   5.358  0.1635 -0.1387 -0.0408
 3189W        W21393  14.285  13.979   4.219  0.1003 -0.2313 -0.1833
 3190W        W21394  14.731   5.071   0.807  0.3176 -0.1023  0.1420
 3191W        W21395  15.929   8.790  15.739  0.0148 -0.1238 -0.4253
 3192W        W21396   1.065   7.976  12.135 -0.1608  0.0156  0.1421
 3193W        W21397  11.682   0.455   3.426  0.4540  0.0369  0.3255
 3194W        W21398   4.128  11.956  13.648  0.1242 -0.1222 -0.0794
 3195W        W21399   2.931   0.617   0.728 -0.1788  0.1245  0.3683
 3196W        W21400   8.407   3.086  17.207 -0.1730 -0.2555  0.0663
 3197W        W21401  16.187  14.374   0.846 -0.1612 -0.0476  0.2282
 3198W        W21402   0.831   3.920  14.389  0.0420 -0.1112 -0.0488
 3199W        W21403   6.621   0.518   0.601  0.3353 -0.2753  0.0231
 3200W        W21404   0.409   8.095  16.309 -0.0046  0.0655 -0.0627
 3201W        W21405  14.853   1.778   5.223 -0.0719 -0.2752 -0.1723
 3202W        W21406   4.903   5.576  13.178 -0.2317 -0.0906 -0.2897
 3203W        W21407   4.984   6.656   3.754 -0.3434  0.0017  0.1115
 3204W        W21408  14.987   1.778   2.747 -0.3462 -0.1673 -0.0684
 3205W        W21409  15.107   3.986   3.494 -0.0981  0.0149  0.0137
 3206W        W21410   4.941   4.076   1.011 -0.2128  0.0217 -0.1402
 3207W        W21411   6.758   5.705  17.274 -0.0949  0.0351 -0.2127
 3208W        W21412   2.628  15.895   0.650  0.0647  0.1361 -0.0032
 3209W        W21413  10.914  16.002   2.345  0.0736 -0.0103 -0.0358
 3210W        W21414  11.439  16.952  16.232 -0.2089  0.3799 -0.2495
 3211W        W21415  13.150   0.995   4.432  0.5075 -0.1615 -0.0455
 3212W        W21416  12.880  10.561  13.207  0.1676 -0.1003  0.2604
 3213W        W21417  17.343  10.826   0.689 -0.2712  0.0726 -0.1304
 3214W        W21418  11.102  16.723   0.266 -0.2380 -0.1258 -0.0485
 3215W        W21419  10.634   7.644  15.140  0.0878  0.5042  0.0966
 3216W        W21420   7.556  16.139  15.386 -0.1001 -0.0109 -0.1579
 3217W        W21421  17.175  16.450  12.276  0.1809 -0.2879  0.2579
 3218W        W21422   4.744   0.503   2.894  0.2165  0.4551  0.2381
 3219W        W21423   1.723  16.898   1.959  0.1015  0.0022  0.1858
 3220W        W21424  12.125  14.681   2.544  0.3053 -0.1503  0.0009
 3221W        W21425   5.928   4.039   0.312  0.1063  0.3078  0.1846
 3222W        W21426  10.230   4.973   0.332 -0.1049 -0.0954  0.4399
 3223W        W21427   0.635  17.219  16.009  0.1160  0.0791 -0.1623
 3224W        W21428   7.643   3.880   4.395  0.1858 -0.1132 -0.1713
 3225W        W21429   5.909   7.048   3.806 -0.1099  0.2451  0.1731
 3226W        W21430   6.002   9.704  16.782  0.2805 -0.0803  0.0280
 3227W        W21431   5.031   6.122  11.103 -0.0225  0.0338  0.2277
 3228W        W21432   2.456   7.708   2.114 -0.1330  0.0434  0.0304
 3229W        W21433   8.608   7.075  16.779 -0.2608 -0.0898  0.0168
 3230W        W21434  12.265   3.188   0.743 -0.2342  0.0668  0.0569
 3231W        W21435   1.945  13.283  16.159  0.4329 -0.0620  0.0736
 3232W        W21436  15.303  11.348   5.704  0.2388 -0.1495  0.0866
 3233W        W21437   7.886  12.052  17.116  0.1737  0.0026 -0.1629
 3234W        W21438  15.379   5.950  16.385 -0.0226  0.0541 -0.1253
 3235W        W21439  11.582  10.176   0.178  0.0792 -0.0627 -0.1413
 3236W        W21440   8.384   4.912   0.514 -0.2322  0.0753  0.0125
 3237W        W21441  13.336  15.168  13.140  0.0543  0.0992  0.0024
 3238W        W21442   4.189   1.138   4.179 -0.2541 -0.4081 -0.1290
 3239W        W21443  13.048   3.288   1.712 -0.0902 -0.2339  0.0810
 3240W        W21444   2.100   9.976   4.236  0.1186 -0.1648  0.1972
 3241W        W21445  16.616   9.149   3.920  0.0095  0.1187  0.2776
 3242W        W21446   3.758   6.671   4.000 -0.1338  0.0815  0.0762
 3243W        W21447   1.662  13.522   4.848 -0.1275 -0.3187 -0.1511
 3244W        W21448   5.805   1.332   5.226  0.1326 -0.0348  0.0308
 3245W        W21449   8.862   9.473  13.905 -0.0358  0.2920 -0.2436
 3246W        W21450   5.498  13.934   2.131  0.0308 -0.2482 -0.1791
 3247W        W21451   1.946   3.124  15.397  0.2814  0.2129  0.1094
 3248W        W21452   7.624  14.280  15.684 -0.0465  0.0040 -0.1309
 3249W        W21453   0.283  10.469   4.144  0.3057  0.0160 -0.0849
 3250W        W21454   8.826   5.186   0.800 -0.0179  0.0275 -0.0162
 3251W        W21455   9.368   2.197   3.859  0.0885 -0.1593 -0.4790
 3252W        W21456   2.972   5.544   0.336 -0.2763 -0.0174  0.1034
 3253W        W21457   8.901   8.720   4.000 -0.0142  0.0342 -0.1132
 3254W        W21458   5.949   7.241  16.019 -0.0790  0.0150  0.2692
 3255W        W21459   9.351   4.763   5.101  0.1270 -0.0438  0.0956
 3256W        W21460   3.372   9.141  15.094  0.0271 -0.1305 -0.0270
 3257W        W21461  16.021   8.102   3.396  0.0925  0.0054 -0.2328
 3258W        W21462   1.942   5.139  15.518  0.4275  0.0324 -0.1230
 3259W        W21463  10.308  10.490  16.347 -0.0695  0.0148  0.2303
 3260W        W21464   0.705   2.329  12.741  0.1250  0.1240 -0.0530
 3261W        W21465  14.332   0.174  15.109 -0.0068 -0.2946  0.1958
 3262W        W21466  12.380  11.718   3.502 -0.1589 -0.1034  0.2210
 3263W        W21467   9.001   8.008  17.235  0.4380  0.2766  0.3834
 3264W        W21468   7.893  11.651   4.443 -0.1291  0.1980  0.1068
 3265W        W21469   4.986  10.898   5.494 -0.1223 -0.1231 -0.2698
 3266W        W21470  11.865  11.445  14.057  0.0133 -0.1720  0.0268
 3267W        W21471   4.733   3.637  12.341  0.1543  0.0123  0.1340
 3268W        W21472   1.090   2.990  14.034  0.1189 -0.0619  0.1874
 3269W        W21473   1.263  16.462  17.205 -0.2811 -0.3070 -0.1515
 3270W        W21474  14.984  15.257   4.908  0.2301 -0.3274 -0.1231
 3271W        W21475   1.052  12.693   6.740 -0.2910  0.1155 -0.0451
 3272W        W21476   9.970   2.621  15.625  0.0875 -0.1054  0.0094
 3273W        W21477  14.571   5.660   3.552 -0.0969 -0.2408 -0.0009
 3274W        W21478   0.991  16.694   5.725  0.0184  0.1779  0.2058
 3275W        W21479   4.927   8.082   1.072  0.0717 -0.0501 -0.3087
 3276W        W21480   1.848  14.943  14.046 -0.1233 -0.0012 -0.2065
 3277W        W21481  16.828   3.561   3.086  0.0372  0.2527  0.1048
 3278W        W21482  15.428   0.692   1.651 -0.1460 -0.1274  0.0038
 3279W        W21483   6.911  10.000  17.077 -0.2510  0.4280 -0.2658
 3280W        W21484  15.411   3.086  11.345  0.2397  0.0271  0.0453
 3281W        W21485  15.719   6.319  13.915 -0.0076  0.2688  0.2729
 3282W        W21486   7.332  14.724  16.931  0.0156 -0.0007 -0.3749
 3283W        W21487  11.123  10.680  13.060 -0.4475 -0.0383  0.0295
 3284W        W21488  11.459   8.921  16.961 -0.0476 -0.3107 -0.0474
 3285W        W21489   0.827   8.521  14.401 -0.1429  0.0295  0.0746
 3286W        W21490  15.825  11.365  13.100 -0.0801 -0.0725 -0.2031
 3287W        W21491  10.055   0.509   4.468 -0.0771 -0.2149  0.0580
 3288W        W21492   0.203   7.530   5.216 -0.1524  0.1124 -0.1140
 3289W        W21493  13.321   3.134   5.239  0.3627 -0.2705  0.0564
 3290W        W21494   4.905  13.181   6.521 -0.1365  0.0181  0.0563
 3291W        W21495  10.975  17.133  13.902 -0.2563 -0.0534  0.2785
 3292W        W21496  10.979   1.059   5.374  0.0193 -0.0112  0.1903
 3293W        W21497  12.771   8.165  12.467  0.2215  0.1718 -0.1754
 3294W        W21498   8.326  15.399   0.433 -0.0290  0.0574 -0.0189
 3295W        W21499   2.258   3.003   0.564  0.0565  0.2203 -0.0932
 3296W        W21500   9.596   3.630  15.516  0.0377 -0.0316  0.0216
 3297W        W21501   0.431   5.715   4.406 -0.1925  0.2675  0.1377
 3298W        W21502  15.422   5.244   3.347  0.0399  0.1548 -0.0048
 3299W        W21503   4.315   7.694  14.080  0.2846  0.0785 -0.1891
 3300W        W21504   4.588   3.451  16.251  0.2006  0.0625 -0.2302
 3301W        W21505   6.113   2.446  13.298  0.3234  0.0587 -0.3650
 3302W        W21506  17.018   6.734  17.175 -0.0772 -0.0796  0.1670
 3303W        W21507  11.511   3.392  13.829  0.0524  0.1579  0.0857
 3304W        W21508  13.978   9.738  14.794  0.3486  0.1547  0.2406
 3305W        W21509  11.203   2.288   2.057 -0.0423  0.1959  0.0138
 3306W        W21510   7.189   0.105   5.474  0.2595 -0.0761  0.0628
 3307W        W21511   1.194  15.465   4.475 -0.0046  0.1181  0.1406
 3308W        W21512  13.153  15.321   5.675 -0.0222 -0.0687 -0.0412
 3309W        W21513  16.074  15.385  14.041  0.0816  0.3201 -0.3233
 3310W        W21514  10.236  16.704  14.864  0.0844 -0.0291 -0.3590
 3311W        W21515  11.745   7.142   0.095 -0.3264  0.2891 -0.1934
 3312W        W21516  12.461   6.463   5.205 -0.0642 -0.2733  0.0178
 3313W        W21517  11.611   8.604  12.562 -0.0683 -0.1139 -0.0001
 3314W        W21518   5.089   9.635  13.705  0.0128 -0.0111  0.3819
 3315W        W21519  15.821   6.557  15.904 -0.0168  0.1008 -0.1201
 3316W        W21520   1.022   3.703  13.186 -0.0514  0.2029  0.0793
 3317W        W21521   0.226   4.389  17.428 -0.1956  0.0407  0.0741
 3318W        W21522   2.352  10.603  15.709  0.2410 -0.2012  0.1704
 3319W        W21523   1.280   9.202  15.932 -0.0355  0.3588 -0.0753
 3320W        W21524  10.318   5.329  16.801 -0.0688 -0.1240 -0.0749
 3321W        W21525   8.688  14.353   0.957  0.1645 -0.4708 -0.2147
 3322W        W21526  12.466  12.791   3.172 -0.1107  0.2904 -0.0025
 3323W        W21527  10.622   3.873   5.434  0.0562  0.2365  0.0949
 3324W        W21528   0.045  14.438  15.722  0.0260 -0.1659  0.0300
 3325W        W21529   1.596  17.205   0.055  0.0508 -0.1403 -0.3350
 3326W        W21530  14.488  14.681   2.007 -0.0134 -0.1135  0.5028
 3327W        W21531   7.589   7.901   1.627  0.0425  0.1134  0.1123
 3328W        W21532   5.447  15.820   1.897  0.1859 -0.2771  0.1426
 3329W        W21533  16.839   9.510  13.799  0.0332  0.0125 -0.1069
 3330W        W21534   2.658   7.812   2.627  0.1941  0.1636  0.3184
 3331W        W21535   1.414  12.776   0.227  0.0725  0.1204 -0.0152
 3332W        W21536   5.252  14.506   5.551  0.3456 -0.1622  0.0142
 3333W        W21537   2.760   3.436  16.950  0.4353  0.1367  0.0934
 3334W        W21538   8.322   1.043  13.569  0.0694 -0.3495 -0.1760
 3335W        W21539   5.703  10.565  16.438 -0.0714  0.0627 -0.0145
 3336W        W21540  13.034   1.823  17.309 -0.0422  0.0438 -0.3303
 3337W        W21541   6.126   4.672   4.701  0.2383 -0.0574 -0.0180
 3338W        W21542  14.818   6.459   3.852 -0.1231 -0.2947  0.4043
 3339W        W21543  11.823   5.332  14.069  0.0280 -0.1415 -0.0405
 3340W        W21544   6.107   8.208  15.548  0.0155  0.4480 -0.0909
 3341W        W21545  16.677   1.923  14.333 -0.4050  0.2955  0.0124
 3342W        W21546   8.936  17.288  12.567  0.0910  0.0910  0.0835
 3343W        W21547   8.919   9.102   2.730  0.0246 -0.4903  0.0173
 3344W        W21548   2.591   8.817   2.175 -0.0527  0.1065  0.1008
 3345W        W21549   1.476   1.249  14.454 -0.0411  0.0306 -0.1908
 3346W        W21550  10.637   9.467  12.482  0.1574 -0.3093 -0.1859
 3347W        W21551   9.654   8.680   1.594  0.0132 -0.1131  0.1240
 3348W        W21552   5.557   0.999   4.397 -0.0489  0.2964  0.1805
 3349W        W21553   7.230   5.077  17.118 -0.1898 -0.2281  0.3264
 3350W        W21554  16.169   8.540   1.011  0.1310  0.0359  0.2386
 3351W        W21555   2.022   7.835  12.445 -0.0658  0.0028 -0.0713
 3352W        W21556  10.156   1.508   2.535  0.0015 -0.1111  0.2796
 3353W        W21557  16.004  13.213   2.794 -0.1122  0.2606 -0.4160
 3354W        W21558  12.285   7.261  13.514  0.0140  0.0514 -0.0705
 3355W        W21559   6.503  16.510   1.563 -0.1291  0.2338  0.4210
 3356W        W21560   8.122  16.693  15.345  0.0271  0.1210 -0.0556
 3357W        W21561   7.995   8.253  12.775  0.3527  0.0983  0.0606
 3358W        W21562  13.010  16.022   4.150  0.0959 -0.1099 -0.0287
 3359W        W21563   4.439  14.021  14.374  0.2795 -0.0089 -0.0337
 3360W        W21564  15.706   4.753  13.202 -0.0470 -0.5292 -0.0236
 3361W        W21565   0.781  11.017  14.543 -0.2430  0.1520 -0.0466
 3362W        W21566   0.989   9.267   2.257  0.0300  0.1263  0.0871
 3363W        W21567  14.931   4.450  14.783  0.0214 -0.0996  0.1093
 3364W        W21568   4.816   7.357   3.735 -0.0361  0.0494  0.4149
 3365W        W21569  14.359  10.065  13.033 -0.0999 -0.1119  0.0261
 3366W        W21570   1.351   8.631   1.604  0.1234 -0.2389  0.1959
 3367W        W21571   6.286   8.691   0.577  0.2147  0.0272 -0.2163
 3368W        W21572  11.879  10.272  13.193 -0.0143 -0.2772 -0.3428
 3369W        W21573   4.277  13.770   4.232 -0.2898 -0.2570 -0.0465
 3370W        W21574  10.002   4.359   2.927  0.0420  0.0279 -0.0605
 3371W        W21575  11.447  14.746  17.117  0.2318  0.0308 -0.1020
 3372W        W21576   5.994  14.813   2.033  0.0697 -0.2434 -0.3660
 3373W        W21577  15.548  16.766   4.434  0.0681  0.1460 -0.0780
 3374W        W21578  15.927   4.957   0.741 -0.0835  0.1993  0.0528
 3375W        W21579  14.427   3.270  15.032 -0.2353 -0.1008 -0.2094
 3376W        W21580   3.440  14.915  16.711  0.1241  0.1838 -0.2327
 3377W        W21581   3.452  11.694  15.592 -0.2948  0.3784  0.0712
 3378W        W21582   2.461   0.319   4.756 -0.1385  0.1979  0.0661
 3379W        W21583   6.313   1.005  16.192 -0.1274 -0.2887  0.2079
 3380W        W21584   1.307  11.044  13.290 -0.2350  0.1600 -0.0661
 3381W        W21585   6.660   4.145   4.061 -0.1214 -0.0623 -0.3362
 3382W        W21586   4.079  13.661   2.542  0.1388 -0.1273 -0.1576
 3383W        W21587   9.698   1.602   5.115  0.2231  0.1669 -0.1740
 3384W        W21588   1.881  11.826   5.406  0.2205  0.2352  0.0147
 3385W        W21589  13.334  11.107   0.472  0.2159 -0.0708  0.0141
 3386W        W21590  16.132   9.286   4.003 -0.0065  0.0819 -0.0624
 3387W        W21591  11.708   1.778   0.104  0.0570  0.0040 -0.3862
 3388W        W21592  14.648   2.377   4.491 -0.0099 -0.1021  0.0201
 3389W        W21593   6.686  10.469   2.961 -0.1207  0.2867 -0.1837
 3390W        W21594   7.001   8.489  13.783 -0.1282  0.1754  0.0221
 3391W        W21595   0.557   3.108   3.038  0.0758  0.3058 -0.2363
 3392W        W21596  10.108   5.844   0.081  0.3684 -0.3117  0.1717
 3393W        W21597  12.910  12.339  15.306  0.0639  0.0510  0.0294
 3394W        W21598   5.145  13.800   4.699  0.1118  0.0932  0.0384
 3395W        W21599   1.196   1.802   3.023  0.1167  0.0483 -0.0398
 3396W        W21600   2.529   2.417  16.925  0.1106  0.0695  0.0275
 3397W        W21601  15.648  13.965  13.037  0.0176  0.1566 -0.0436
 3398W        W21602   7.809   4.078  16.463  0.3772  0.1733  0.1804
 3399W        W21603   8.479  12.567   3.241  0.1631 -0.1041 -0.2488
 3400W        W21604   1.730  16.709  15.438  0.2524  0.1466  0.0234
 3401W        W21605  16.146  12.920   1.253  0.3581  0.3231  0.0665
 3402W        W21606  15.103   4.304  15.172 -0.1376 -0.1266  0.1012
 3403W        W21607   9.139   3.643  16.578  0.2992  0.2466  0.1351
 3404W        W21608  12.244  17.132   3.802  0.1404 -0.1835  0.0332
 3405W        W21609   6.838   1.438  15.172 -0.0261 -0.2251  0.0308
 3406W        W21610  17.287   1.553   2.338 -0.1320 -0.1695  0.0149
 3407W        W21611  10.421  14.483  13.650  0.3348  0.1205 -0.1844
 3408W        W21612   8.439  14.011  15.388  0.1709 -0.0242 -0.1048
 3409W        W21613  12.653   7.050   2.027  0.1101 -0.1042  0.0579
 3410W        W21614   4.709  14.023  13.174  0.3436 -0.0702 -0.2811
 3411W        W21615  15.516   9.331   2.220  0.1214  0.0503  0.2567
 3412W        W21616  16.310  11.872   2.767  0.0926 -0.2239 -0.0992
 3413W        W21617   6.443   3.402   1.219  0.0557 -0.0538  0.1759
 3414W        W21618   9.118   4.534   2.047 -0.2528  0.0632 -0.1274
 3415W        W21619  16.996   4.686  14.071 -0.0346  0.0351  0.1986
 3416W        W21620  12.253   8.239  14.928  0.3658  0.1722  0.3172
 3417W        W21621   5.649   8.977  16.022 -0.0812  0.0959  0.0866
 3418W        W21622   0.437   2.499   0.205  0.0501 -0.0702 -0.2455
 3419W        W21623   9.019  15.790   1.020 -0.0210  0.2613  0.0489
 3420W        W21624  14.594   7.891   4.729 -0.0192 -0.1461  0.2166
 3421W        W21625   8.814   2.744  14.091 -0.3956  0.1245 -0.0409
 3422W        W21626  13.280  10.606  15.604 -0.0782 -0.1295  0.7173
 3423W        W21627  14.041  13.347   4.158  0.1855  0.1924 -0.0739
 3424W        W21628  16.540   5.648   2.650 -0.0725 -0.0416 -0.1179
 3425W        W21629   8.850  10.763   5.219 -0.0345 -0.0155  0.0167
 3426W        W21630   4.648   4.430   3.640 -0.1849  0.0796 -0.1296
 3427W        W21631   1.506   6.822  16.526  0.1972  0.1325  0.0435
 3428W        W21632   9.147  10.311  13.072  0.4730  0.1158  0.2456
 3429W        W21633   6.145   4.946  12.749  0.2220 -0.2092  0.1125
 3430W        W21634  11.830  13.813   2.419  0.1788 -0.2118 -0.2007
 3431W        W21635   5.201  14.683   2.687 -0.0876  0.2090  0.1478
 3432W        W21636   6.928   7.296  14.516  0.3341  0.0971  0.0782
 3433W        W21637   2.951   3.192  13.589  0.0664 -0.0433  0.0860
 3434W        W21638   0.487   7.641   4.839 -0.1506  0.1548 -0.3532
 3435W        W21639  11.368  11.904   3.525 -0.1140  0.0050 -0.0298
 3436W        W21640  10.692  16.916  13.021  0.0160 -0.0496  0.1586
 3437W        W21641   0.725  16.938  14.271  0.0099  0.2291 -0.0498
 3438W        W21642   0.094   9.446  16.229 -0.1613  0.0654  0.0765
 3439W        W21643   8.269  14.799  15.434  0.0310  0.3359  0.0845
 3440W        W21644   5.150  12.527   5.264 -0.0193 -0.2106 -0.0358
 3441W        W21645  14.165   6.422  12.108  0.0382  0.0052  0.0108
 3442W        W21646  16.276  11.585   5.451 -0.0570  0.2765 -0.1743
 3443W        W21647   8.736   3.144   0.119 -0.1991 -0.1374  0.3206
 3444W        W21648   2.600   6.521  16.849  0.0289 -0.0100 -0.1601
 3445W        W21649   2.821  15.977   0.112 -0.0068  0.0120 -0.2768
 3446W        W21650   8.673  13.830   0.178  0.0843 -0.0357  0.1348
 3447W        W21651  12.282   3.171  16.295 -0.1077 -0.1975  0.2230
 3448W        W21652  11.419  10.039   0.771  0.0401 -0.1264  0.1837
 3449W        W21653   1.223   6.230   2.745  0.0150  0.2404  0.0019
 3450W        W21654  14.364   8.865   1.555  0.0336 -0.2152  0.1276
 3451W        W21655   3.948  14.623   2.283  0.3360  0.0344 -0.3772
 3452W        W21656   6.681  10.389   0.353  0.1881  0.1663 -0.0725
 3453W        W21657   6.419  13.563   5.146 -0.1430 -0.1254  0.0581
 3454W        W21658   2.268  16.765   2.051 -0.2149  0.0596  0.2311
 3455W        W21659   4.384  14.669   4.380  0.3145 -0.2671 -0.3873
 3456W        W21660   3.152   6.253   4.902 -0.1472  0.0257  0.2588
 3457W        W21661   7.316  14.349   1.491  0.1253  0.4816  0.4824
 3458W        W21662  11.366  14.152   3.724  0.0391  0.1123 -0.0819
 3459W        W21663  12.531   4.471   1.711  0.0528 -0.0465 -0.0411
 3460W        W21664   4.969  10.228  16.068  0.0331  0.2006  0.0531
 3461W        W21665   1.004   3.203  16.740 -0.0241 -0.2733  0.0017
 3462W        W21666  15.975   0.477  13.116 -0.1536  0.0137  0.2748
 3463W        W21667   8.967  16.477  11.390 -0.0124  0.0049  0.0077
 3464W        W21668   5.570   6.051   4.910 -0.0402  0.1198 -0.0309
 3465W        W21669   0.302   3.786  14.766  0.1177  0.0675  0.0192
 3466W        W21670  15.136   3.676   0.509  0.0102  0.1296  0.3508
 3467W        W21671  15.270   6.177  15.048  0.1487 -0.0797  0.2742
 3468W        W21672   2.273   9.848  15.132  0.1827 -0.4101  0.0535
 3469W        W21673  13.014   9.903  17.242  0.1083 -0.1003  0.2318
 3470W        W21674   9.485  13.299  12.652  0.3465  0.2069  0.0389
 3471W        W21675  14.467  14.443   2.841  0.5415 -0.0581  0.1076
 3472W        W21676  11.856   3.696   4.204  0.0049 -0.1522 -0.2189
 3473W        W21677   9.511   4.633  12.495 -0.0489 -0.0111 -0.1101
 3474W        W21678   0.114  17.206   1.162  0.2918 -0.2979 -0.1413
 3475W        W21679   9.267  15.239  12.777  0.0288  0.1485  0.0533
 3476W        W21680   9.045  14.761   0.781  0.0157 -0.0926 -0.0989
 3477W        W21681   6.883   9.122   4.928 -0.1812 -0.2035  0.1821
 3478W        W21682  14.330  16.589  17.110  0.4019 -0.1285  0.1531
 3479W        W21683   9.719   9.743  14.757 -0.5235 -0.0306 -0.1906
 3480W        W21684  10.626  14.565  12.766  0.0489 -0.1498  0.1759
 3481W        W21685  13.043  17.340   4.781  0.0736 -0.2808  0.2873
 3482W        W21686   2.132   5.533  15.795 -0.0182  0.1129 -0.2314
 3483W        W21687   8.690   1.202   1.012 -0.1283 -0.1772  0.0756
 3484W        W21688   0.587  13.485  13.553  0.0243 -0.0086 -0.1769
 3485W        W21689   9.545   4.447   2.745 -0.2015  0.2025 -0.0877
 3486W        W21690  13.849   1.844  15.444 -0.1411 -0.2317  0.2716
 3487W        W21691   7.683  14.077  12.106 -0.0514 -0.0353  0.0656
 3488W        W21692  11.979   6.459  14.099  0.0414  0.0741 -0.1484
 3489W        W21693  13.747   7.886  15.920  0.1192  0.0951  0.1566
 3490W        W21694  12.443  16.331   1.587  0.0427 -0.1295 -0.3942
 3491W        W21695  12.744   8.447  15.911  0.0564  0.3030 -0.1319
 3492W        W21696  17.019  16.454   3.171 -0.1859  0.0212 -0.0241
 3493W        W21697  13.892   3.492  11.714  0.2754  0.0345  0.0745
 3494W        W21698   9.211  11.987  11.068  0.0870 -0.3614  0.1280
 3495W        W21699  10.105  15.417  14.559  0.0522  0.0311  0.1134
 3496W        W21700  15.632  15.637  14.004 -0.0174  0.1358  0.1905
 3497W        W21701  14.911   0.875  16.986  0.1753 -0.0499  0.2084
 3498W        W21702  10.868   9.024   5.670  0.0288  0.0265 -0.4887
 3499W        W21703   9.936   1.625  17.173  0.1325  0.0104  0.1249
 3500W        W21704  15.189  11.898  13.064  0.1428  0.2535  0.1846
 3501W        W21705   9.384  13.050  13.918 -0.2126 -0.1364  0.2697
 3502W        W21706  15.327   4.852   0.142  0.0362  0.1046  0.1277
 3503W        W21707   5.635   1.301   1.452 -0.2313 -0.1623  0.1625
 3504W        W21708  14.533   5.005  16.632 -0.0799 -0.0120 -0.1613
 3505W        W21709   4.848   9.150   3.549  0.0547  0.1673  0.0072
 3506W        W21710  13.252   7.842  15.150  0.2024 -0.0126  0.1272
 3507W        W21711   2.964   5.102  13.970 -0.1824 -0.4080 -0.2009
 3508W        W21712  10.400   7.905  14.462  0.1538 -0.1465  0.3679
 3509W        W21713   9.292   9.015   0.524  0.1123 -0.1849 -0.1034
 3510W        W21714   1.172   7.104   0.680 -0.3980 -0.1324  0.3015
 3511W        W21715   5.569  11.855   3.630  0.1826  0.1142 -0.0915
 3512W        W21716  13.567   0.821   5.378 -0.0970  0.1519  0.2236
 3513W        W21717   1.174   2.113   4.019  0.0054 -0.0412 -0.4809
 3514W        W21718   3.477   5.478  17.021 -0.1024 -0.1603 -0.2282
 3515W        W21719  16.553  15.803  15.779  0.0448  0.1580 -0.1419
 3516W        W21720   5.927  17.229  12.829 -0.1584  0.2468 -0.2232
 3517W        W21721   8.600  15.694   2.638 -0.1227  0.2238  0.3417
 3518W        W21722  11.624   6.899  15.572  0.0584  0.0628 -0.1583
 3519W        W21723   5.912   9.214  16.761 -0.0940 -0.2023  0.0633
 3520W        W21724   2.650  16.267  13.112  0.3085  0.1875 -0.0710
 3521W        W21725   4.180   6.861   3.655 -0.1191  0.1387 -0.0604
 3522W        W21726   8.699   4.269   5.183 -0.2083 -0.2568  0.1960
 3523W        W21727   2.280  12.429   4.447 -0.1989 -0.0423  0.0001
 3524W        W21728   2.574   6.781  13.757  0.0794 -0.2543  0.0776
 3525W        W21729   6.631   9.524   1.050  0.0053  0.1473  0.2459
 3526W        W21730   3.310  13.682   0.039 -0.0991  0.0268  0.1188
 3527W        W21731  10.609  10.974   1.550 -0.2720  0.0224 -0.0368
 3528W        W21732  13.920  15.823  14.744  0.0865  0.0732  0.1797
 3529W        W21733   5.344  10.782  17.192  0.2975 -0.1977 -0.0636
 3530W        W21734   9.135   7.260  13.423 -0.0498 -0.3763 -0.0932
 3531W        W21735  10.581   2.272   0.557  0.2019  0.1880 -0.0812
 3532W        W21736   0.873   9.788   4.747  0.0539 -0.0491  0.0757
 3533W        W21737   2.435   5.904  13.510 -0.0489 -0.1026  0.1434
 3534W        W21738   1.608  15.161  16.100  0.1057  0.0503 -0.2567
 3535W        W21739  12.226  16.006  12.590  0.0557 -0.0294  0.0976
 3536W        W21740   9.546   2.584   1.501  0.1289 -0.1685 -0.0543
 3537W        W21741   7.631  13.269  16.542 -0.0987 -0.0313  0.2473
 3538W        W21742  11.316  11.821  16.011  0.1037  0.0844 -0.2055
 3539W        W21743  16.841  14.010  14.844  0.0527 -0.0629 -0.2908
 3540W        W21744   8.963  11.426  17.301  0.2036  0.0101 -0.0714
 3541W        W21745   3.896   4.306  17.093  0.0977  0.0471 -0.0668
 3542W        W21746  13.854  14.172   0.917  0.1660 -0.1016 -0.3812
 3543W        W21747   2.278  11.562   3.236  0.0584  0.0594 -0.3787
 3544W        W21748   0.797   5.713   2.701  0.1720  0.0082 -0.1033
 3545W        W21749  10.081  14.187  13.358 -0.2377 -0.0556 -0.0987
 3546W        W21750  13.282   4.832   3.703 -0.0943  0.0762  0.0242
 3547W        W21751  16.441   2.869   1.596 -0.1395 -0.0997  0.0516
 3548W        W21752  15.437   6.382   1.249  0.0598  0.1320  0.2075
 3549W        W21753  11.764  13.377  14.038 -0.0287  0.0771  0.1999
 3550W        W21754   8.755   7.158  12.160 -0.0875  0.0716  0.0813
 3551W        W21755  13.619  14.443   3.021 -0.0903 -0.4029 -0.0028
 3552W        W21756   0.688   3.211   2.544 -0.1153 -0.1236 -0.0118
 3553W        W21757  12.634   1.752  15.152 -0.0046 -0.0759  0.0171
 3554W        W21758  14.794  12.269  15.665 -0.0257 -0.0063  0.3291
 3555W        W21759   2.039  15.781  15.681 -0.0346  0.0001 -0.0187
 3556W        W21760  15.284  13.786   0.387 -0.0023  0.1636 -0.0437
 3557W        W21761   7.862  12.430  14.234 -0.0386  0.1429  0.2774
 3558W        W21762  12.995  14.547   0.613  0.1673 -0.3348  0.3082
 3559W        W21763  13.764   4.801   0.297  0.1912 -0.0847  0.0354
 3560W        W21764  10.517   0.760   3.392  0.0024  0.0685 -0.2025
 3561W        W21765   1.775   3.035  12.084 -0.0876  0.2881 -0.0963
 3562W        W21766   5.923   6.838  16.915  0.1459  0.0413 -0.2790
 3563W        W21767   9.058  13.136  14.760  0.4137  0.1376  0.2931
 3564W        W21768   6.249  11.814   4.369  0.1739 -0.2426 -0.4768
 3565W        W21769   4.241   4.803  16.699 -0.1156 -0.2287 -0.3131
 3566W        W21770   3.272  13.106  17.363  0.1907 -0.2955  0.1783
 3567W        W21771   7.642   3.245  16.628  0.0036 -0.0849 -0.2098
 3568W        W21772   1.605  14.688  16.429 -0.2572  0.0547  0.0233
 3569W        W21773  12.387  16.494  16.278  0.1262 -0.1154 -0.0673
 3570W        W21774   2.486  14.874  12.637  0.0529 -0.0665 -0.0108
 3571W        W21775   2.813  13.986   2.422  0.0073 -0.0461 -0.0126
 3572W        W21776  12.133   1.064   1.995 -0.0181  0.2231  0.3289
 3573W        W21777  12.943  17.215   2.645  0.0092 -0.1188  0.0953
 3574W        W21778   7.323  10.975  12.758  0.4500  0.0093 -0.0379
 3575W        W21779   1.404   7.126  17.429  0.3239 -0.3949 -0.1149
 3576W        W21780   1.876   2.433  14.316 -0.1273 -0.0016 -0.3393
 3577W        W21781   6.594   4.776  14.598  0.0125 -0.2150  0.4828
 3578W        W21782  10.543   8.130  16.027  0.4155 -0.3099 -0.1099
 3579W        W21783   0.496  14.519  13.534 -0.1149 -0.0895 -0.0664
 3580W        W21784   2.099   0.480  15.219  0.1897  0.0608 -0.1924
 3581W        W21785   6.858   8.464   3.743 -0.2464  0.0461  0.1586
 3582W        W21786   0.383  10.034  16.324 -0.1714 -0.0106 -0.0535
 3583W        W21787  11.938  13.674  15.796  0.2126  0.0231  0.1261
 3584W        W21788  15.936   1.032  13.977  0.2946  0.1923  0.0892
 3585W        W21789   7.992   7.447  14.575  0.0277 -0.0771  0.0067
 3586W        W21790  12.073   4.359  16.350  0.2022 -0.3109  0.2323
 3587W        W21791  14.056  12.795   4.912 -0.0080  0.2633 -0.3070
 3588W        W21792  10.324  16.245  15.031 -0.0826  0.3678 -0.0390
 3589W        W21793  15.609   1.537  15.787  0.3613  0.2540  0.4600
 3590W        W21794  14.877   1.401  16.975 -0.1378  0.0164 -0.3189
 3591W        W21795  15.135  16.878  15.891  0.1054 -0.0719  0.0024
 3592W        W21796  16.509  17.229   2.043  0.1062 -0.1513  0.0139
 3593W        W21797   3.416   0.350   3.879  0.0011  0.0955  0.1948
 3594W        W21798   0.172  11.190  17.524 -0.1671 -0.0817  0.1926
 3595W        W21799  14.080   0.901   1.157  0.1186 -0.2053 -0.2504
 3596W        W21800   5.292   8.788   0.213 -0.1884 -0.0060 -0.1338
 3597W        W21801   9.013   5.427  16.978  0.0177 -0.0957  0.0484
 3598W        W21802   6.069   4.807  12.046 -0.0152 -0.0230 -0.1511
 3599W        W21803  16.005   7.088  15.511 -0.0033  0.2738  0.0562
 3600W        W21804   8.617   4.337   4.591 -0.0211 -0.0535  0.0397
 3601W        W21805  17.010  16.226  16.195 -0.1720  0.1209 -0.0632
 3602W        W21806  14.722  10.041  13.347  0.3104 -0.1315 -0.0634
 3603W        W21807  12.771  13.699   1.999 -0.2149 -0.0592 -0.2010
 3604W        W21808  10.398   2.120   1.521  0.1915 -0.2286 -0.0446
 3605W        W21809   3.356   6.894   3.219  0.0917 -0.0059  0.1113
 3606W        W21810  14.374  11.562  16.443 -0.2048  0.0036  0.0256
 3607W        W21811  11.894   0.436  13.541 -0.1023 -0.3664 -0.0186
 3608W        W21812   9.508  14.108   2.350 -0.0918  0.2296  0.1480
 3609W        W21813   7.224   3.993  13.940  0.0288 -0.0103  0.0461
 3610W        W21814   9.157   8.660   2.497 -0.1939  0.0868  0.0284
 3611W        W21815   7.986   5.676   0.372 -0.0477 -0.2493  0.2220
 3612W        W21816   9.463   9.842  17.402 -0.1105 -0.1869 -0.1189
 3613W        W21817  13.252  11.582  16.465  0.0085  0.0967 -0.1121
 3614W        W21818   2.119  13.584  13.218  0.0761  0.0914 -0.1817
 3615W        W21819  10.578  14.040   0.815  0.0632  0.1386 -0.0661
 3616W        W21820   5.620   2.469  17.472  0.1317 -0.1263 -0.0735
 3617W        W21821   2.269  11.039  14.397  0.1059 -0.0142  0.0067
 3618W        W21822  14.908   7.174  13.523 -0.1621  0.0774  0.2720
 3619W        W21823   5.638   9.815   3.732  0.0507  0.2374 -0.1532
 3620W        W21824  15.627   1.413  17.189  0.0646  0.2222  0.3397
 3621W        W21825  15.340   6.019  12.972 -0.1761 -0.1552  0.3584
 3622W        W21826  12.219   0.118   1.334 -0.2131  0.3127 -0.0832
 3623W        W21827   6.598   1.210   2.226  0.3886  0.2237  0.1647
 3624W        W21828  16.112  12.394  13.437  0.0251  0.0934  0.0912
 3625W        W21829   9.924   8.488  13.864  0.0049  0.0745  0.3574
 3626W        W21830  15.866  10.590   3.095  0.0029  0.1910 -0.0207
 3627W        W21831   5.445   7.151  16.254  0.0481  0.2122 -0.0957
 3628W        W21832   7.537   8.318   3.186  0.0916  0.0972  0.1977
 3629W        W21833   8.342   4.417   4.153  0.0483  0.2700 -0.1626
 3630W        W21834  16.333   8.084   0.719 -0.1263  0.0520  0.2651
 3631W        W21835   3.120   8.081  14.733 -0.3072  0.1139 -0.0027
 3632W        W21836  11.049  10.633   5.250 -0.2554  0.1513  0.2545
 3633W        W21837  10.017  11.444   4.930 -0.1312  0.1703  0.1111
 3634W        W21838  13.872  13.901   2.370 -0.4905  0.0541  0.1831
 3635W        W21839  16.525  14.006  16.612 -0.1754  0.1182  0.0029
 3636W        W21840   2.977   5.058  17.131  0.0047 -0.0024  0.1103
 3637W        W21841   2.677  12.513  17.258 -0.0061  0.0542  0.0881
 3638W        W21842  10.306   9.711   3.429 -0.2214  0.1387  0.1848
 3639W        W21843   5.265   4.156   4.938 -0.3755  0.2037 -0.3042
 3640W        W21844   0.386   4.053   2.134 -0.0059 -0.0009 -0.3189
 3641W        W21845  13.285   9.519   0.966  0.0801 -0.1074 -0.1554
 3642W        W21846   5.517   7.978   2.655  0.1081  0.1153  0.1451
 3643W        W21847  15.209   3.503   3.232  0.0406 -0.1226 -0.0879
 3644W        W21848  11.708   3.522  11.370  0.0993  0.1072 -0.0988
 3645W        W21849   8.982  11.995   4.567  0.0171  0.0226  0.0383
 3646W        W21850  11.071   1.384  16.991 -0.1295 -0.3734 -0.0693
 3647W        W21851   1.842   0.278   2.709  0.0367  0.2481 -0.1444
 3648W        W21852  13.712  11.134   2.508  0.0016 -0.2974  0.2136
 3649W        W21853   1.221   6.107  15.820  0.3100  0.0910  0.0469
 3650W        W21854  10.818   5.641  16.694  0.2757 -0.1392 -0.1803
 3651W        W21855   5.726   4.327  13.412 -0.3333  0.1101  0.0675
 3652W        W21856   7.310  13.925  14.579  0.1856  0.1085 -0.4501
 3653W        W21857   0.181   7.867   0.166 -0.0900  0.1718  0.3092
 3654W        W21858   7.157  14.383  16.620 -0.1136 -0.0591  0.1042
 3655W        W21859  13.942  13.676   5.513 -0.1580 -0.0175  0.0530
 3656W        W21860  13.232  14.514  12.611  0.2205 -0.0300  0.1448
 3657W        W21861  16.818   3.855   5.666 -0.1210 -0.3672  0.0472
 3658W        W21862  12.839  10.984  12.547 -0.0169 -0.0656 -0.2453
 3659W        W21863   6.994  15.441   4.336 -0.0754 -0.0506 -0.3209
 3660W        W21864  17.119   0.187   4.421 -0.1051 -0.0023  0.3438
 3661W        W21865  11.178   7.213  16.333  0.0112 -0.2323 -0.1043
 3662W        W21866   1.669   8.119  14.751  0.0259 -0.0774 -0.1704
 3663W        W21867  12.982  10.839  16.705  0.1333 -0.1823  0.2302
 3664W        W21868  15.024   9.803   3.932  0.2399 -0.0005 -0.0736
 3665W        W21869   1.555  10.745   4.562  0.0133  0.0735  0.0775
 3666W        W21870  13.724   9.185   3.701  0.0491  0.2422 -0.0280
 3667W        W21871   8.850  11.229  12.960  0.1111  0.3600 -0.2019
 3668W        W21872  16.139  15.867   1.119  0.1984 -0.0260 -0.4128
 3669W        W21873   9.737   1.452   3.415 -0.0265 -0.0189 -0.0134
 3670W        W21874   3.864  11.682  17.111 -0.0910 -0.1471 -0.1241
 3671W        W21875   7.944  17.263  15.694  0.1563 -0.0778  0.0320
 3672W        W21876   8.723   4.772   5.775  0.1017 -0.0061  0.2442
 3673W        W21877  15.466   4.649   3.793 -0.3267 -0.0141  0.0199
 3674W        W21878   5.507  10.114  13.866  0.1733  0.1488 -0.1631
 3675W        W21879   0.007  16.065   4.303  0.0883  0.3095 -0.1359
 3676W        W21880  12.036   5.545   4.426  0.2874  0.0068 -0.0403
 3677W        W21881   7.931  15.704   3.177  0.2066 -0.0182 -0.0979
 3678W        W21882   2.608  11.753   2.131 -0.0020  0.0264 -0.0160
 3679W        W21883   7.085   5.343   2.241  0.2258  0.1800 -0.1323
 3680W        W21884   2.785   2.578   4.305  0.1336 -0.2381  0.2833
 3681W        W21885  16.016   2.102   4.258 -0.0760 -0.0535 -0.0536
 3682W        W21886  11.394   3.189   2.108  0.2134 -0.1149  0.0872
 3683W        W21887   1.667   2.409   0.274 -0.3141 -0.2008  0.0111
 3684W        W21888   6.785  15.179   0.771  0.2355  0.0377 -0.1540
 3685W        W21889   7.697   7.241   3.004 -0.2861  0.1224 -0.1079
 3686W        W21890   5.312   4.554  13.521  0.2958 -0.0412  0.0758
 3687W        W21891   8.044  14.848   2.397 -0.1369 -0.0281  0.3878
 3688W        W21892  11.415   2.092   3.766 -0.1292 -0.2885  0.1950
 3689W        W21893   8.557   8.388  17.419  0.0934 -0.0151  0.1135
 3690W        W21894  10.177   5.891  16.687  0.0426  0.1145  0.0839
 3691W        W21895   4.585  10.595   4.185  0.1971 -0.0545 -0.1672
 3692W        W21896  12.453   1.890   3.523 -0.2694  0.0748 -0.2449
 3693W        W21897  11.584   9.330  16.692  0.0031 -0.1192 -0.1794
 3694W        W21898  16.778  15.065   3.602 -0.0150 -0.0668 -0.1692
 3695W        W21899  12.525   6.406  15.840 -0.0087  0.1556 -0.0541
 3696W        W21900   0.832   3.660   5.145 -0.2159 -0.0515  0.1793
 3697W        W21901   1.695   8.691  16.281  0.1417  0.2211 -0.0110
 3698W        W21902  12.984  13.373  15.109  0.4545  0.0317  0.1231
 3699W        W21903  11.645   2.809   4.504 -0.3299 -0.0981  0.3227
 3700W        W21904   8.250   8.357  16.044  0.0319  0.0790 -0.0314
 3701W        W21905  16.299   8.840   4.368 -0.0868  0.1351 -0.1451
 3702W        W21906  10.650   6.826   1.449  0.3520  0.1250 -0.1512
 3703W        W21907   0.415  10.332   1.496 -0.1290 -0.1946  0.2337
 3704W        W21908   3.135   2.056   2.423 -0.1784 -0.0742 -0.0228
 3705W        W21909   2.371   4.223   5.529  0.1897 -0.0112 -0.0676
 3706W        W21910  13.213   3.000   3.376  0.2161 -0.1536 -0.2242
 3707W        W21911  16.979   8.848   0.004 -0.0112 -0.1571  0.1477
 3708W        W21912   4.986   6.352  15.886  0.5269  0.1690 -0.0448
 3709W        W21913   9.410   7.042   1.267 -0.3146  0.1657 -0.3515
 3710W        W21914  14.056   7.690   3.091  0.3336  0.0085 -0.0265
 3711W        W21915  10.945  16.464   3.969  0.1479 -0.2647 -0.1310
 3712W        W21916   0.713   7.444  13.259  0.0814  0.0518  0.0843
 3713W        W21917   8.465   3.891   2.942  0.1044 -0.2028  0.1943
 3714W        W21918  10.120  16.113  12.383 -0.0052 -0.1247  0.2970
 3715W        W21919   7.160   3.636   3.654  0.1890 -0.1157  0.0304
 3716W        W21920   6.368   8.889  13.014  0.0105  0.2255  0.0522
 3717W        W21921   7.626  13.847  16.529 -0.0361  0.1656 -0.0444
 3718W        W21922   3.936   7.673  14.407  0.2252 -0.0066 -0.3685
 3719W        W21923  14.658   1.686   0.901 -0.0172 -0.1086 -0.2095
 3720W        W21924  13.363  11.005  15.902 -0.4354  0.1018  0.3286
 3721W        W21925  16.264   9.105   2.858  0.0411 -0.1425  0.2470
 3722W        W21926  14.722  12.549   4.296  0.1322 -0.3103 -0.0092
 3723W        W21927  16.619  10.361  13.562  0.2231  0.0071 -0.1911
 3724W        W21928   8.673   5.103  13.871 -0.0290  0.0841  0.2750
 3725W        W21929  12.038   5.229  13.628  0.2736  0.0889  0.1329
 3726W        W21930   5.697  12.050   3.095 -0.1253  0.2073  0.0749
 3727W        W21931  10.638   2.098   1.999 -0.2039  0.1178 -0.2449
 3728W        W21932  15.573  13.555   3.117  0.0018 -0.1509 -0.0010
 3729W        W21933  12.358  11.189   3.165  0.3457 -0.0928  0.3467
 3730W        W21934  10.077   2.907   4.653  0.0219  0.1436 -0.0419
 3731W        W21935   8.361  16.996   2.012  0.1394  0.2038  0.2315
 3732W        W21936  16.753   2.350  12.033 -0.0309  0.2896  0.2910
 3733W        W21937  12.862   3.765  17.512 -0.1394  0.0285  0.2253
 3734W        W21938   4.840  16.457  16.547 -0.0388  0.0385 -0.2699
 3735W        W21939   7.784   0.632   2.379  0.1258  0.0916 -0.0327
 3736W        W21940   5.410  14.484   4.219 -0.0031 -0.0315  0.3038
 3737W        W21941   1.565  12.346   2.060 -0.5809  0.1702 -0.0801
 3738W        W21942  15.289   5.466  13.041  0.1243  0.1746 -0.2878
 3739W        W21943   7.098   3.189  17.119 -0.0733  0.0608  0.1855
 3740W        W21944   2.196   4.907   0.048  0.5587 -0.3347 -0.1420
 3741W        W21945   9.759  16.014   3.057 -0.0301  0.1661 -0.1674
 3742W        W21946  14.622   9.166  14.448  0.1732 -0.0185  0.0981
 3743W        W21947  10.133   1.777   0.780 -0.2001  0.0903 -0.1119
 3744W        W21948   0.915   7.034  12.172 -0.1440  0.3089  0.2304
 3745W        W21949   8.692   9.872   5.219 -0.1417 -0.0022  0.0030
 3746W        W21950   1.863  13.683   2.037 -0.0687  0.0165 -0.1271
 3747W        W21951   1.649  16.209  16.533 -0.0658  0.0455  0.0217
 3748W        W21952   2.038  11.976  15.786  0.1570  0.5465 -0.0417
 3749W        W21953   5.388  17.234  12.892  0.0514 -0.0526 -0.0982
 3750W        W21954   5.904  12.020   5.251  0.0365 -0.2205  0.1146
 3751W        W21955   9.048  10.975  14.762  0.0231 -0.3361  0.0204
 3752W        W21956   5.478  13.425   2.711 -0.2747  0.1984 -0.0499
 3753W        W21957  12.263   8.579   3.990 -0.1849 -0.1536 -0.2425
 3754W        W21958  16.988  11.764   4.478  0.1602  0.0277  0.0836
 3755W        W21959  13.140   6.628  16.876  0.0311  0.0230 -0.0902
 3756W        W21960  13.476   2.576   0.347  0.0017  0.2377 -0.0585
 3757W        W21961   8.299  10.732   3.811  0.0386  0.0424  0.0194
 3758W        W21962   5.559   8.230   0.423 -0.0791 -0.0171 -0.2629
 3759W        W21963  11.256  16.314   1.340 -0.0287  0.0355 -0.2489
 3760W        W21964  15.115  15.459  14.116  0.1556  0.1249  0.0541
 3761W        W21965   0.439  16.138   3.580  0.1880 -0.0273 -0.0130
 3762W        W21966   1.722   6.676   2.356 -0.0296 -0.2586  0.3459
 3763W        W21967  17.045   5.830   0.016  0.0911 -0.0317 -0.0122
 3764W        W21968  13.924   6.008  11.922  0.0028 -0.1017 -0.1843
 3765W        W21969  12.140   4.785   1.560 -0.1425  0.1476  0.1622
 3766W        W21970  13.459  10.203  17.288 -0.1631  0.1258 -0.1036
 3767W        W21971   2.174   6.132   3.822  0.2167  0.0239 -0.2515
 3768W        W21972   4.225   3.412  15.069  0.1961 -0.0883 -0.4401
 3769W        W21973  11.174  11.960  14.239 -0.0479  0.2324 -0.2689
 3770W        W21974  10.260  16.927  17.074  0.1165  0.2157 -0.1588
 3771W        W21975   4.075   8.059  13.898 -0.4210 -0.0049  0.0424
 3772W        W21976   6.906   1.396   2.562  0.3375  0.4060  0.2352
 3773W        W21977   6.288   9.451   3.318 -0.1677  0.0749  0.1278
 3774W        W21978   9.822   2.985   0.352 -0.0119  0.1158  0.0539
 3775W        W21979  13.328   3.765  14.924  0.0406  0.0707  0.3183
 3776W        W21980  11.536  15.995   3.911  0.1093  0.2715  0.0614
 3777W        W21981  14.059   5.965   4.531 -0.2307  0.1885 -0.0697
 3778W        W21982   4.608  14.934  14.576  0.1393  0.1493  0.0289
 3779W        W21983   2.267   5.079  13.425 -0.1146  0.0172  0.1215
 3780W        W21984  10.680  16.569   3.010  0.0294  0.0037 -0.1169
 3781W        W21985  14.655  11.349  15.246 -0.0420  0.0926 -0.1668
 3782W        W21986   1.518   7.971  13.659 -0.1809  0.1438  0.0117
 3783W        W21987   7.760  11.576  16.938 -0.1020 -0.0955  0.0036
 3784W        W21988  13.024  13.395  16.768 -0.0043 -0.2496 -0.0056
 3785W        W21989  11.318  10.726  14.693 -0.0804  0.1598  0.2818
 3786W        W21990   5.518   6.969  15.243  0.1244  0.1615  0.1169
 3787W        W21991  11.183   3.930   2.673  0.2867 -0.0274 -0.1778
 3788W        W21992   5.076   9.969   2.861 -0.0467  0.1110 -0.1132
 3789W        W21993  15.546  17.030  16.796  0.2937  0.1329 -0.1375
 3790W        W21994   3.829   5.982  12.626 -0.3266  0.0595 -0.2515
 3791W        W21995  17.186   6.105  12.487 -0.0506  0.0866 -0.1189
 3792W        W21996   3.927   0.070   1.650 -0.0310  0.3288 -0.1124
 3793W        W21997  14.109  12.040   4.947 -0.1753 -0.0838  0.0387
 3794W        W21998   5.746   0.651   3.298  0.2330  0.4873 -0.1222
 3795W        W21999   1.412  13.968   2.452 -0.1034  0.1866  0.0074
 3796W        W22000   4.313   5.837   0.406 -0.0367 -0.1040  0.1373
 3797W        W22001  10.372   8.092   0.203  0.1265  0.0597  0.2811
 3798W        W22002  11.425   4.895   2.790 -0.1103  0.2927  0.2457
 3799W        W22003   7.933   9.223  14.695 -0.4152  0.0035  0.2061
 3800W        W22004  15.999  16.858   1.572 -0.1342 -0.1787  0.0022
 3801W        W22005  13.423   9.275  16.978  0.0309  0.2923  0.1472
 3802W        W22006  15.369  13.867   3.613 -0.2677  0.3066 -0.3570
 3803W        W22007  12.370   6.044   3.764  0.0869 -0.0449 -0.2701
 3804W        W22008  10.505   6.778   3.209 -0.0295  0.1663 -0.2982
 3805W        W22009   5.528   9.016  16.539  0.1051  0.4414 -0.1364
 3806W        W22010  15.215   3.032  12.442  0.1190  0.1370 -0.1929
 3807W        W22011   0.438   4.163   4.554  0.2618  0.0722 -0.0386
 3808W        W22012   1.729   2.636  12.445 -0.4271 -0.0002 -0.0034
 3809W        W22013  10.128   9.028  16.103  0.0871  0.0343  0.0079
 3810W        W22014  15.428   1.023   0.695 -0.0021  0.1287 -0.1212
 3811W        W22015  15.820  15.503   4.671  0.1132 -0.2134  0.0022
 3812W        W22016  10.771   9.990   3.441 -0.0420 -0.2789  0.0653
 3813W        W22017   4.767   1.397  14.070 -0.0089 -0.0764 -0.1629
 3814W        W22018   4.841   2.567  15.459  0.1425 -0.1408  0.0154
 3815W        W22019  11.879  10.026  15.278 -0.0658  0.0501  0.0746
 3816W        W22020   8.828   6.471   1.254 -0.0284 -0.1164 -0.0316
 3817W        W22021   4.838   6.187  17.147 -0.0680 -0.1230  0.0963
 3818W        W22022   2.547   3.972   0.091 -0.0240 -0.0912 -0.4178
 3819W        W22023  11.128  11.398  13.538 -0.0346  0.4192 -0.0030
 3820W        W22024   4.040  15.498  14.315 -0.0342 -0.0187 -0.3505
 3821W        W22025  16.554   6.898   0.457 -0.2633 -0.3386  0.2435
 3822W        W22026   0.216   7.961  12.609 -0.0180 -0.0766 -0.0178
 3823W        W22027  10.781  15.160   4.717  0.2724 -0.1362 -0.2567
 3824W        W22028   2.384   4.766  14.715 -0.2088  0.0970 -0.0099
 3825W        W22029   7.180   2.025  11.399  0.2695  0.3016 -0.0192
 3826W        W22030   0.181  14.196   1.526 -0.0515  0.2761  0.0048
 3827W        W22031  14.523   5.524   2.349  0.0718  0.0514  0.0549
 3828W        W22032   0.950   0.964   5.021  0.1084  0.0303 -0.0053
 3829W        W22033   5.451   9.379   3.398  0.2205  0.0989  0.1505
 3830W        W22034   6.783  10.458   4.163 -0.0470  0.1104 -0.0167
 3831W        W22035  15.723  10.786  13.475  0.2307  0.1640  0.0019
 3832W        W22036   6.597   0.223   4.965  0.0023  0.1657  0.0343
 3833W        W22037  16.739   5.284   0.532 -0.3089  0.1221 -0.1882
 3834W        W22038  12.280  10.278   3.445 -0.2828  0.0685  0.1950
 3835W        W22039  11.158   6.663   3.843 -0.1219  0.1241 -0.0629
 3836W        W22040   3.446   8.482  13.280 -0.1999  0.1428 -0.0946
 3837W        W22041   6.329  14.315   1.758  0.2219 -0.1522 -0.0372
 3838W        W22042  11.815   0.435   2.288  0.2362  0.1090  0.0755
 3839W        W22043   1.533  15.368  14.657 -0.0771  0.3554 -0.0902
 3840W        W22044   4.701  12.073  13.574  0.1836 -0.2440 -0.4758
 3841W        W22045  13.316   1.056   5.916 -0.1739 -0.5222  0.0492
 3842W        W22046  17.273  15.302  16.036  0.1707 -0.1036  0.1830
 3843W        W22047   3.422   9.272   3.993  0.1168 -0.1591  0.1392
 3844W        W22048   3.999  10.700   2.431 -0.2336 -0.3616 -0.0781
 3845W        W22049   8.293   4.843  16.042  0.2586  0.1480  0.1151
 3846W        W22050   8.819  11.636   1.096 -0.1640 -0.2039  0.2423
 3847W        W22051  14.153  10.910  12.836 -0.1462 -0.1573  0.1742
 3848W        W22052   6.193  10.753   4.981 -0.2239 -0.0411 -0.0930
 3849W        W22053  14.742   0.831   5.559 -0.1781  0.0417 -0.1225
 3850W        W22054   3.277   9.062   2.530  0.1910  0.1782 -0.0113
 3851W        W22055  12.108  12.278  15.536  0.0855 -0.1513 -0.0673
 3852W        W22056  13.232  15.222   1.755 -0.1194 -0.1080 -0.1423
 3853W        W22057   6.577   1.023   2.735  0.0439 -0.0296 -0.2716
 3854W        W22058  11.397  10.473  12.330  0.0468  0.1759 -0.2362
 3855W        W22059  14.628   5.958  13.266  0.0309 -0.4396  0.1424
 3856W        W22060   3.129   9.860  12.445  0.2229 -0.0377 -0.3043
 3857W        W22061   4.709   9.791   2.559  0.3245 -0.2166  0.2289
 3858W        W22062   9.763   1.391  12.156  0.1674 -0.0533  0.0345
 3859W        W22063   8.961  16.986  16.449  0.1215  0.1046  0.4542
 3860W        W22064   1.735   2.458   3.371  0.0180 -0.1958 -0.2912
 3861W        W22065  10.837  10.795   1.052  0.0746 -0.0475  0.2026
 3862W        W22066  15.497  10.148  12.837  0.2298 -0.5654 -0.2392
 3863W        W22067   5.391   0.496  13.013  0.0523  0.0861  0.2115
 3864W        W22068   6.200   0.958   3.481 -0.2769  0.1658  0.2378
 3865W        W22069   1.245  14.795  14.621  0.0029 -0.1285 -0.1315
 3866W        W22070   9.696  10.364   0.728  0.1954  0.2799 -0.0661
 3867W        W22071  11.641   3.517  12.991 -0.1671 -0.0312 -0.2900
 3868W        W22072   1.934  12.376   5.356  0.1665  0.0377  0.1729
 3869W        W22073   6.578  16.022  12.504 -0.2724 -0.2796 -0.3688
 3870W        W22074  16.106  10.847  14.561 -0.0597  0.1483 -0.1084
 3871W        W22075   1.264  11.545  16.742  0.1472  0.0464 -0.0765
 3872W        W22076   3.517   7.078  12.171  0.1027 -0.1038  0.1299
 3873W        W22077   2.247  14.934  15.733  0.1061 -0.2043  0.1460
 3874W        W22078   0.790  11.955   0.945  0.0468  0.0300  0.0409
 3875W        W22079   3.126  15.876   2.011  0.2072  0.1766 -0.0745
 3876W        W22080   2.060   4.975  16.777  0.0141  0.1294  0.0053
 3877W        W22081   8.194   1.614  14.157  0.0746  0.0920 -0.0372
 3878W        W22082  16.534   4.081  10.929  0.1045 -0.0113  0.4499
 3879W        W22083  15.067   0.025  15.776  0.1532  0.0014 -0.0080
 3880W        W22084  12.310   4.754   0.765  0.1148  0.1574  0.2069
 3881W        W22085  11.641   9.522  12.497 -0.2095 -0.2997  0.1552
 3882W        W22086  10.223   0.035  16.850  0.0012  0.0172  0.1585
 3883W        W22087   5.073  11.369  14.706  0.0925  0.1311 -0.1022
 3884W        W22088   8.061   5.372   2.511  0.0342 -0.2096 -0.0333
 3885W        W22089  15.047  12.927   6.093  0.2756  0.3025 -0.6936
 3886W        W22090   9.879   1.156  14.333 -0.1850 -0.1251  0.5115
 3887W        W22091  15.544   1.498   0.695  0.1766  0.1319 -0.3191
 3888W        W22092   9.970   2.018  12.844 -0.0257 -0.1837  0.2700
 3889W        W22093  13.543   3.549  16.896 -0.0966 -0.0581 -0.0789
 3890W        W22094   8.597  10.403   1.060  0.2443  0.0643 -0.0423
 3891W        W22095   0.145   1.758  12.276  0.1776 -0.0098 -0.2194
 3892W        W22096   3.420   4.448  11.900 -0.0957 -0.0038 -0.0343
 3893W        W22097  17.328   8.954  16.386 -0.2348 -0.1248  0.1773
 3894W        W22098   7.373  14.698  12.671 -0.1342 -0.3016  0.0418
 3895W        W22099   3.663   5.236   3.839  0.0345  0.2476 -0.1412
 3896W        W22100  17.295  15.107   4.894 -0.0618 -0.4259 -0.0600
 3897W        W22101   7.293   6.870  14.633  0.3953  0.3459  0.0780
 3898W        W22102  15.404   4.030   4.364  0.3018  0.0211 -0.2809
 3899W        W22103  12.089   7.244  16.185  0.0110 -0.0482 -0.0258
 3900W        W22104  10.676  16.525   0.078 -0.1079 -0.1843  0.0499
 3901W        W22105   0.555  14.242  14.752  0.2713  0.0005  0.4564
 3902W        W22106  16.938   4.840  12.402  0.0422  0.0065 -0.0984
 3903W        W22107  10.775   4.514  15.056 -0.8909  0.0081 -0.0127
 3904W        W22108  10.529   2.754  16.751  0.0740 -0.1966  0.1467
 3905W        W22109   9.262   4.124  16.619 -0.1036 -0.0088 -0.1074
 3906W        W22110   1.968   0.194   3.176 -0.1212 -0.2250 -0.3168
 3907W        W22111  12.871   3.030  14.127  0.1258  0.0858 -0.2006
 3908W        W22112   3.097  10.278  13.398  0.1716 -0.0342 -0.1100
 3909W        W22113  12.805  13.361   1.617  0.0968 -0.2686  0.2648
 3910W        W22114   2.162  15.977   5.001  0.0113  0.0581  0.3495
 3911W        W22115  13.944   4.705  14.041 -0.1986 -0.2326  0.2723
 3912W        W22116   4.241   4.730   1.428 -0.1844 -0.1677 -0.2391
 3913W        W22117   3.861  10.596   0.669 -0.1623  0.1230  0.0486
 3914W        W22118   3.187   9.342  17.062 -0.1438 -0.0188 -0.3261
 3915W        W22119   0.354  11.525   0.828  0.1459 -0.0714 -0.0267
 3916W        W22120   8.610  15.140   3.995 -0.2078 -0.3383  0.0260
 3917W        W22121  15.678   6.435   3.530  0.0867  0.0483 -0.2108
 3918W        W22122  13.178   8.693  15.576 -0.0743  0.2209 -0.1901
 3919W        W22123  16.533   9.514  15.988 -0.2547 -0.0102 -0.1755
 3920W        W22124   3.578  11.426  12.588 -0.0960  0.2550  0.0317
 3921W        W22125   3.103  11.794   0.176  0.2079  0.3203  0.0075
 3922W        W22126   7.960   4.674   0.779 -0.1993  0.3361 -0.0007
 3923W        W22127  11.399   9.096   2.105 -0.0683  0.0922  0.1474
 3924W        W22128   7.417   5.535   5.020  0.0411 -0.3102 -0.0138
 3925W        W22129   4.708  12.737   0.009 -0.2734 -0.2369  0.0984
 3926W        W22130   6.254   2.374  12.702  0.1948  0.0114 -0.0430
 3927W        W22131  11.271  16.967   0.889 -0.1922 -0.4084 -0.1518
 3928W        W22132  10.974  11.682  14.629  0.0423 -0.0586  0.1787
 3929W        W22133  13.661  15.716  16.980  0.0838 -0.0478 -0.2530
 3930W        W22134   3.891   5.601   1.548 -0.1984 -0.2882  0.1701
 3931W        W22135   2.284  10.238   0.343 -0.2003  0.3719 -0.0310
 3932W        W22136  14.936   8.846  11.439  0.0629  0.1049  0.1838
 3933W        W22137  12.732  13.376  17.275  0.1206  0.0909 -0.2428
 3934W        W22138   6.359  10.755  13.076  0.3001  0.1649 -0.0615
 3935W        W22139   4.388   4.638   4.998  0.1555 -0.1199  0.2407
 3936W        W22140   9.801   4.981  16.046  0.0736  0.0665  0.2009
 3937W        W22141  10.432  10.424   5.750  0.1139  0.2703 -0.1548
 3938W        W22142  12.793  15.496   1.614  0.1282 -0.1823  0.3700
 3939W        W22143   1.576   7.570  16.513 -0.0676  0.1655 -0.0270
 3940W        W22144  13.729   8.192   1.604  0.2668 -0.0800  0.2369
 3941W        W22145  17.081   4.630   6.156 -0.2080 -0.1215  0.3125
 3942W        W22146  11.597   8.658   0.372  0.2607  0.2458 -0.2842
 3943W        W22147   1.262  12.835   4.139  0.0810 -0.1574 -0.1419
 3944W        W22148  16.628   5.348  15.152  0.0090  0.1302  0.1030
 3945W        W22149   5.645   5.086  14.915 -0.0142 -0.3081 -0.2333
 3946W        W22150   2.607   9.799  13.100  0.0157  0.0282  0.0514
 3947W        W22151   2.955   4.274  17.513  0.0534  0.1209  0.2788
 3948W        W22152   4.049   4.026  14.922 -0.1111 -0.0653 -0.2043
 3949W        W22153  13.257   8.411  16.834 -0.0607 -0.0153 -0.1213
 3950W        W22154  13.807  11.634  15.670 -0.3729 -0.1339 -0.0375
 3951W        W22155   1.777  13.128  16.602  0.0592 -0.4423  0.1712
 3952W        W22156   5.227  16.185  13.359  0.0509 -0.1729  0.0747
 3953W        W22157   3.776   6.455  12.282 -0.1353 -0.0532  0.0166
 3954W        W22158   7.791   5.329   3.010  0.0316 -0.2558 -0.1255
 3955W        W22159   0.208   0.489  15.292  0.0097  0.1495  0.0566
 3956W        W22160  12.597  13.562   4.909 -0.1630 -0.1776  0.2297
 3957W        W22161  12.662  13.976   5.207 -0.0294 -0.0978  0.2828
 3958W        W22162   5.561   4.214   0.578 -0.0302  0.2414 -0.0733
 3959W        W22163   0.181   9.629   0.871 -0.1282 -0.0708  0.1531
 3960W        W22164   4.135   9.217   4.634 -0.3084  0.0180 -0.1209
 3961W        W22165   3.770   0.156   4.722 -0.0614 -0.0338 -0.0742
 3962W        W22166  15.875   3.908   4.677  0.0755 -0.0654  0.2580
 3963W        W22167  17.077   2.576   5.694  0.0510  0.1893 -0.0684
 3964W        W22168   2.066   2.863   3.238  0.0270  0.0579 -0.2209
 3965W        W22169   1.843   9.587  12.410 -0.0145  0.0624 -0.3053
 3966W        W22170  15.759   9.228  15.452 -0.1679  0.1043  0.0207
 3967W        W22171   9.064   1.110   0.628 -0.1206 -0.0215  0.0517
 3968W        W22172   5.013  12.186  13.979 -0.0304  0.0959 -0.1000
 3969W        W22173   4.572  10.132   2.990  0.1874 -0.1360 -0.1312
 3970W        W22174  13.158  13.820   1.626 -0.0931  0.1721 -0.0411
 3971W        W22175  14.204  13.215   4.650 -0.0364  0.1190  0.1240
 3972W        W22176   6.943   4.756   1.016 -0.0661  0.0289 -0.2515
 3973W        W22177  12.885  12.402   0.345  0.0907 -0.2464 -0.0635
 3974W        W22178  12.341   0.071   2.691  0.3474  0.1412  0.1767
 3975W        W22179  11.911   8.056  14.471 -0.3677 -0.2748  0.1721
 3976W        W22180   9.286   4.314   3.153  0.1749 -0.1325  0.2473
 3977W        W22181  14.613  10.586   0.071  0.2985  0.0863  0.1700
 3978W        W22182  16.734  12.805   3.117 -0.0599 -0.2198  0.0015
 3979W        W22183   5.972   4.128   3.741  0.2101  0.0875 -0.0062
 3980W        W22184  17.047   1.801   3.885 -0.1667  0.2666  0.0775
 3981W        W22185   1.576  11.133  12.501 -0.3722 -0.3495  0.1284
 3982W        W22186   7.706   4.179   4.938  0.2260 -0.1780 -0.4341
 3983W        W22187   8.611  13.621  13.214 -0.2599 -0.1345 -0.2890
 3984W        W22188   0.962   1.728   0.201 -0.1668  0.2003  0.2230
 3985W        W22189  14.017   0.995  13.237  0.3437  0.4008  0.3248
 3986W        W22190   1.208  13.545   3.610 -0.0328  0.2078 -0.0628
 3987W        W22191  10.024  14.353  14.460 -0.0539  0.0955 -0.1463
 3988W        W22192   3.291  12.362  16.810  0.0193  0.2562  0.3748
 3989W        W22193  11.696   3.668   0.765 -0.1894  0.2652  0.0622
 3990W        W22194  15.892   8.017  16.919 -0.2895  0.1750 -0.0400
 3991W        W22195   3.096  10.263  15.554  0.0952  0.2796  0.2745
 3992W        W22196   7.203  12.678   0.379 -0.1814 -0.3564  0.2347
 3993W        W22197  15.242  16.654   1.820  0.4154 -0.0972 -0.1271
 3994W        W22198   2.171  14.046  13.015 -0.1352 -0.1332  0.0150
 3995W        W22199   5.076   6.326   0.926 -0.1221 -0.1712  0.0716
 3996W        W22200   4.397   1.237   0.303 -0.1612 -0.1478  0.3732
 3997W        W22201   4.387   4.037   3.274  0.1400 -0.1900 -0.4294
 3998W        W22202   0.356   4.552   4.949  0.1439  0.2372  0.2121
 3999W        W22203   7.625   0.498  17.377 -0.1493  0.1847 -0.0757
 4000W        W22204   9.495  10.236  12.771  0.1069 -0.0494  0.0417
 4001W        W22205  15.403   1.818   5.438  0.0316  0.0372 -0.2368
 4002W        W22206  12.789  16.446   4.232 -0.1723 -0.1237  0.0217
 4003W        W22207   3.303   6.900   4.223  0.0648  0.1264 -0.0227
 4004W        W22208  14.742  13.777  16.763  0.1336 -0.0642 -0.3495
 4005W        W22209   6.837  16.411   0.080 -0.2894 -0.2412 -0.1321
 4006W        W22210  14.184  12.920   5.482 -0.1900 -0.1901 -0.2088
 4007W        W22211   7.209  16.858   5.340 -0.0675  0.1935 -0.1006
 4008W        W22212  10.727   9.687   0.311  0.2335  0.0948  0.1751
 4009W        W22213   1.641   5.090   0.773 -0.2948 -0.0642 -0.1474
 4010W        W22214   5.496   3.847  14.306 -0.2302 -0.0938  0.2159
 4011W        W22215   6.927  12.036   0.268  0.2258 -0.1071 -0.2471
 4012W        W22216   2.817  13.528   2.601  0.3052  0.1557  0.2377
 4013W        W22217   8.592   0.270  15.645 -0.3309 -0.0252 -0.2103
 4014W        W22218  14.212   4.687   0.073  0.1215 -0.1961  0.2255
 4015W        W22219   0.178   7.983   1.821 -0.1900 -0.0560  0.0870
 4016W        W22220  13.536   3.903   1.587 -0.1530  0.0720 -0.0990
 4017W        W22221   9.461   1.853   3.492  0.0434 -0.3058  0.0749
 4018W        W22222  11.920   3.301  14.962 -0.2024 -0.3885  0.1590
 4019W        W22223   6.341  16.952   1.525 -0.2973 -0.0815  0.0897
 4020W        W22224  10.123   9.845   2.451 -0.0957  0.0881  0.0451
 4021W        W22225  10.736   5.137   2.515  0.2391  0.0157 -0.0131
 4022W        W22226   7.567  17.159   2.474  0.1134  0.0652 -0.0093
 4023W        W22227  11.767  16.692  12.481  0.0465 -0.0685  0.0298
 4024W        W22228   1.419   2.683  12.799 -0.1085  0.0126 -0.2735
 4025W        W22229   4.441  12.687   0.436 -0.1636  0.1006 -0.1491
 4026W        W22230  12.415   1.518   1.896  0.1012 -0.2214 -0.2828
 4027W        W22231   9.094  16.345  14.403 -0.0596 -0.2379 -0.1499
 4028W        W22232  14.314  12.293   2.062  0.0499  0.0063  0.0575
 4029W        W22233  16.091  13.583   3.158 -0.0530  0.1337 -0.0127
 4030W        W22234  13.931   3.069   4.474  0.3513  0.0311 -0.3255
 4031W        W22235   3.208   6.501  17.392 -0.1580  0.1175 -0.0648
 4032W        W22236   2.539   0.279  14.968 -0.1608 -0.1140 -0.0138
 4033W        W22237   8.031  15.832  13.562 -0.0156 -0.2196  0.0883
 4034W        W22238   2.958  10.629   1.456  0.2149  0.0781 -0.0065
 4035W        W22239  13.898   0.016  12.879 -0.2023  0.0911 -0.3322
 4036W        W22240   1.515   5.376  15.280 -0.0432 -0.1357  0.1269
 4037W        W22241   7.399  11.833   0.886  0.0213  0.0159  0.0331
 4038W        W22242   3.036  13.495  17.021 -0.2522 -0.0003  0.0240
 4039W        W22243   7.577   1.754  13.707 -0.3322 -0.1794 -0.2984
 4040W        W22244  16.683   4.427   0.867 -0.2830  0.2432  0.2104
 4041W        W22245   8.398   7.173  16.340  0.2733  0.0003 -0.0212
 4042W        W22246   1.703   5.727  14.103 -0.3103  0.0710  0.1286
 4043W        W22247   0.679   1.840  14.216  0.0062 -0.0513  0.1015
 4044W        W22248  17.179   3.050   4.423  0.1251  0.1130 -0.0502
 4045W        W22249   7.794   9.054  13.733 -0.1324  0.1749 -0.0333
 4046W        W22250  14.125  13.115  13.745 -0.3634 -0.0961 -0.0331
 4047W        W22251  12.079   7.933  16.621  0.1748  0.1827 -0.1069
 4048W        W22252  13.349  12.339  13.698 -0.2504 -0.0890 -0.2533
 4049W        W22253   8.305  15.873   2.301 -0.0225 -0.0846  0.1558
 4050W        W22254  16.783  13.268  15.289 -0.3601  0.0793 -0.1105
 4051W        W22255  12.886  16.802  14.047 -0.0528 -0.1202 -0.1985
 4052W        W22256   0.281  13.005   0.018 -0.0498 -0.0057 -0.1309
 4053W        W22257   7.531  16.599   4.894 -0.0167 -0.1579 -0.1388
 4054W        W22258  11.668   7.909  11.266  0.3442 -0.1036 -0.3028
 4055W        W22259   5.292   9.798  17.426  0.0608 -0.1335  0.2527
 4056W        W22260   3.359  10.009   4.238  0.1442 -0.1659  0.1630
 4057W        W22261   1.422   5.515  17.452  0.1922 -0.2061 -0.1082
 4058W        W22262   5.296  12.725  13.028  0.2140  0.0503  0.0481
 4059W        W22263   0.728  13.941   5.917 -0.0464 -0.0330  0.1653
 4060W        W22264  10.650  13.470  15.549 -0.2267  0.2004 -0.3355
 4061W        W22265   4.916  11.108  16.027  0.0358  0.0442  0.2379
 4062W        W22266   6.219  16.711   3.568 -0.1979  0.0810 -0.1133
 4063W        W22267   1.592   5.310  13.228 -0.4052  0.0408 -0.0413
 4064W        W22268  14.999   4.124   5.105  0.0038 -0.0075  0.0846
 4065W        W22269  15.169   8.966   4.134  0.1337 -0.0872 -0.0588
 4066W        W22270   6.755  14.682  16.399  0.4031 -0.2930 -0.0384
 4067W        W22271   4.328  12.167  16.211  0.2766 -0.1288  0.0377
 4068W        W22272   1.675   8.067   2.705  0.0733 -0.1112  0.0135
 4069W        W22273  16.568   0.088  11.768 -0.0406  0.0592 -0.3514
 4070W        W22274  16.241   2.023   3.269 -0.0988 -0.0076 -0.0276
 4071W        W22275  11.557   5.012   3.284  0.0224 -0.1114  0.1708
 4072W        W22276   7.625  10.614  13.564 -0.0302 -0.2160 -0.2939
 4073W        W22277   6.314  11.739   0.866 -0.2333  0.0859 -0.2553
 4074W        W22278   7.138   7.724  14.276  0.0518 -0.0228  0.0832
 4075W        W22279   0.600   2.271   3.325  0.2202  0.2037 -0.2202
 4076W        W22280   2.642  13.662   5.240  0.1059 -0.3080  0.0529
 4077W        W22281   4.487  14.902   5.188  0.1610  0.0226  0.0116
 4078W        W22282   4.110   6.080  15.106 -0.0248  0.2275  0.1541
 4079W        W22283   6.738   2.601  12.652 -0.0398 -0.0418  0.0460
 4080W        W22284   3.727  13.102  14.715  0.0319 -0.0976  0.2735
 4081W        W22285   1.203   1.269   3.894  0.1609 -0.2258 -0.1638
 4082W        W22286   7.059   9.258   0.256  0.0122  0.3766 -0.0856
 4083W        W22287   2.547  17.113  12.869  0.1537  0.0513  0.1974
 4084W        W22288   7.405  15.515  15.299 -0.1634  0.1634  0.0434
 4085W        W22289   6.433  14.889  15.228  0.0586  0.2395  0.0716
 4086W        W22290   3.084  11.591   4.939 -0.0867 -0.0192 -0.0300
 4087W        W22291   1.724  14.990   1.435 -0.0237  0.0432  0.0640
 4088W        W22292  14.251   0.242  15.643 -0.3728  0.1802 -0.1237
 4089W        W22293   1.749  17.296  14.634  0.1248 -0.0441  0.0316
 4090W        W22294   4.023   1.231   0.618 -0.3404  0.0386  0.2819
 4091W        W22295  10.094   9.770  13.222 -0.3171  0.1334  0.1728
 4092W        W22296   1.310  15.123   1.255  0.2051 -0.3066 -0.0925
 4093W        W22297   6.566  14.803   0.206 -0.0846  0.1730  0.0778
 4094W        W22298   2.076   3.882  14.263  0.1492  0.0148  0.2077
 4095W        W22299  12.587  10.578  12.742 -0.4906 -0.3659 -0.1395
 4096W        W22300  12.619  15.141  16.558  0.3956 -0.0962 -0.1501
 4097W        W22301   5.094   0.164   1.647 -0.2001 -0.1339  0.2404
 4098W        W22302   4.377  14.028   1.850 -0.0714  0.0824  0.1636
 4099W        W22303  13.299  13.232  13.083  0.0374  0.3344  0.3529
 4100W        W22304   5.729  12.828   3.739 -0.0537 -0.0633  0.0585
 4101W        W22305   0.940   1.018  14.410  0.2775 -0.0263 -0.1651
 4102W        W22306   0.904   8.546   0.226  0.1688 -0.1395 -0.0546
 4103W        W22307   0.530  17.012  14.728  0.0322  0.0524  0.3383
 4104W        W22308  13.621   2.710  15.328  0.0084  0.0601  0.0738
 4105W        W22309  15.177   1.559   4.010 -0.0550 -0.1738 -0.1281
 4106W        W22310   2.357  15.996  14.619  0.3211 -0.1231  0.2164
 4107W        W22311  14.732  11.526   4.369 -0.1213  0.0129 -0.1384
 4108W        W22312   1.273   9.883  15.212 -0.1711 -0.1591 -0.1760
 4109W        W22313  12.887  14.175   1.304 -0.0315  0.2586 -0.0968
 4110W        W22314   1.762  11.126   0.082 -0.1310 -0.2301  0.0405
 4111W        W22315   3.606  17.168  14.790 -0.0882 -0.0587 -0.0504
 4112W        W22316   4.694  12.312  15.224  0.0790 -0.0029  0.1280
 4113W        W22317  15.072   8.577  15.616  0.1400 -0.1513  0.1865
 4114W        W22318  16.432   2.753  12.264  0.0516 -0.0262 -0.0372
 4115W        W22319   1.850   8.045  11.939  0.2216 -0.0881 -0.1023
 4116W        W22320   0.050   5.666  14.417  0.2177  0.3763 -0.3067
 4117W        W22321   6.876  15.991  13.975  0.1933  0.0365 -0.1581
 4118W        W22322   4.404  16.825   4.812  0.0373 -0.2081 -0.0888
 4119W        W22323   8.627  10.488  17.288  0.0392 -0.0187  0.3457
 4120W        W22324   7.896   3.310  15.474  0.0939 -0.0619  0.0787
 4121W        W22325   6.718  12.064   4.201 -0.1017  0.1946  0.1604
 4122W        W22326  15.465  11.164   3.753 -0.0826 -0.0944 -0.3458
 4123W        W22327   5.164   1.374   1.063  0.1696  0.1246 -0.2662
 4124W        W22328   6.142  15.210   2.493  0.1119 -0.3334 -0.2099
 4125W        W22329   6.455   3.585  12.754  0.0029 -0.0136 -0.1218
 4126W        W22330   6.663   8.990   2.550 -0.0743  0.0867  0.2197
 4127W        W22331   6.108   0.995   2.982  0.4295 -0.0426 -0.0998
 4128W        W22332   8.387  16.181   1.722 -0.1771  0.1064  0.0575
 4129W        W22333   2.479   2.976   5.147  0.0190 -0.1464  0.0049
 4130W        W22334  14.900  17.207   1.363  0.1765 -0.0005  0.1058
 4131W        W22335  13.983   9.559   3.911 -0.1010 -0.1326  0.1124
 4132W        W22336   2.114   3.350  14.275  0.0583  0.6620 -0.0616
 4133W        W22337  16.163  14.168   1.837 -0.3552 -0.1088 -0.1767
 4134W        W22338   1.430   7.776   4.594  0.2875  0.0287 -0.1746
 4135W        W22339   4.176  15.502  15.845  0.0025 -0.1900 -0.1320
 4136W        W22340   4.460  14.986  16.722 -0.0249 -0.1164 -0.1265
 4137W        W22341  10.928  11.836   0.633  0.0490 -0.0973  0.1395
 4138W        W22342  14.479  16.930  15.057  0.0577  0.0707  0.0161
 4139W        W22343   7.550   0.718  15.383  0.1612 -0.2516  0.0060
 4140W        W22344  14.097  10.872  16.002  0.0204 -0.0463  0.2539
 4141W        W22345  14.676   0.500  13.691  0.0628  0.1835  0.2140
 4142W        W22346  11.907  10.406   4.899 -0.2704 -0.2624 -0.0742
 4143W        W22347   4.531   2.017  14.590 -0.1097 -0.0683 -0.2857
 4144W        W22348   5.031   2.053   3.617 -0.0298 -0.2149 -0.1325
 4145W        W22349  11.480  11.597   6.413 -0.3587  0.1961  0.2181
 4146W        W22350   5.519  14.941   1.501  0.0062 -0.1674 -0.0276
 4147W        W22351  10.400   4.086  12.922  0.1963 -0.2024  0.1630
 4148W        W22352   0.366   1.979   0.925  0.1330 -0.0404  0.1384
 4149W        W22353   5.353   7.173  14.722 -0.1573 -0.0044  0.1739
 4150W        W22354   9.019   6.235  13.351  0.0403 -0.0597  0.1603
 4151W        W22355  17.011   8.818   5.149 -0.0536 -0.2520 -0.2209
 4152W        W22356   6.186   4.380   1.078 -0.1482  0.0362 -0.0800
 4153W        W22357   5.826   4.221   1.958  0.2803  0.0811 -0.1109
 4154W        W22358  16.264   9.948   0.114  0.2321 -0.2929 -0.0720
 4155W        W22359  15.345   7.118  14.992 -0.0910 -0.0016  0.1341
 4156W        W22360  10.238  12.412  15.830 -0.0436  0.1989  0.2231
 4157W        W22361   8.698   9.885  13.111  0.1203 -0.3522  0.0945
 4158W        W22362  15.137  13.893   4.752 -0.1672 -0.1430  0.0748
 4159W        W22363  12.804  12.118   3.884  0.0131  0.1049 -0.0282
 4160W        W22364  12.899  12.791  15.565 -0.4022  0.1148 -0.1232
 4161W        W22365  15.554  16.689   1.427  0.2176 -0.4632 -0.1736
 4162W        W22366  10.214  12.505  15.120  0.0474  0.0065 -0.2952
 4163W        W22367  13.996   2.308   0.330 -0.1251 -0.1139  0.4681
 4164W        W22368   8.093   6.561   3.911  0.1605 -0.3214  0.0950
 4165W        W22369   3.799   3.264   3.207 -0.0331 -0.0936 -0.0130
 4166W        W22370  12.912   0.968   1.230 -0.2662  0.3266  0.0012
 4167W        W22371  12.857  11.029   1.449 -0.0903 -0.1149 -0.0504
 4168W        W22372   2.625   5.622  15.904  0.1898 -0.2261  0.1338
 4169W        W22373   7.827  16.438  13.850  0.0988 -0.2422  0.2457
 4170W        W22374  11.448   7.381  17.309 -0.1383 -0.0110  0.1510
 4171W        W22375  13.102   2.717   1.589  0.1074 -0.0591  0.0204
 4172W        W22376   9.597   3.712  16.787 -0.0808  0.3061 -0.2146
 4173W        W22377  13.451   6.119   0.081  0.2175 -0.0152  0.2071
 4174W        W22378   1.639  10.996  14.228 -0.2088 -0.0917  0.3021
 4175W        W22379  15.473  10.777   3.421 -0.2588  0.0074 -0.0832
 4176W        W22380   8.525   2.017   0.645 -0.0143 -0.1225  0.4112
 4177W        W22381   5.676   2.336  13.605  0.1352 -0.0135 -0.0751
 4178W        W22382  11.801  15.359  17.320  0.2715  0.1046 -0.1411
 4179W        W22383  12.960  16.829  16.974  0.3192  0.0864  0.4034
 4180W        W22384   7.046   6.123   5.086 -0.1122  0.2044 -0.0419
 4181W        W22385  16.373  12.545  17.015 -0.0960  0.3648  0.0902
 4182W        W22386  16.441  12.551  15.273 -0.3075  0.2921  0.2542
 4183W        W22387   2.140   8.531  16.016  0.0855 -0.1960 -0.2559
 4184W        W22388   7.897   6.332  14.788  0.0729 -0.0134  0.1070
 4185W        W22389  16.924  14.321   3.013  0.0062  0.0290 -0.1404
 4186W        W22390  12.313   2.994  14.907  0.2395 -0.0398 -0.0294
 4187W        W22391  15.392  14.705   3.090  0.2657 -0.1318  0.2626
 4188W        W22392   4.420  17.288  13.108 -0.2599  0.1093 -0.1429
 4189W        W22393  15.198   3.796  14.785  0.3981  0.0344 -0.0152
 4190W        W22394   3.223   8.720  16.360  0.3113  0.1866  0.1608
 4191W        W22395  16.399   1.187  17.082  0.0475 -0.0406  0.1726
 4192W        W22396  14.051   4.873  15.743  0.0451 -0.1875  0.0268
 4193W        W22397  12.694  16.629   3.585  0.0096 -0.1134 -0.0486
 4194W        W22398   5.113  11.458  14.165  0.3120  0.1026 -0.1119
 4195W        W22399  15.639   7.476  12.333 -0.0521 -0.0660  0.0102
 4196W        W22400   6.101  15.918   4.235  0.1634 -0.1267 -0.1530
 4197W        W22401  16.699  14.829  15.119 -0.1810  0.2475 -0.0449
 4198W        W22402   7.062   6.445   1.149  0.1372 -0.0522 -0.0614
 4199W        W22403   4.965   2.142   0.516  0.1598 -0.1052  0.1602
 4200W        W22404   5.079  12.678   2.392 -0.2390 -0.0270 -0.1394
 4201W        W22405  12.565  13.363  14.762 -0.1371  0.4326  0.0457
 4202W        W22406  13.991  10.573   4.939  0.2749  0.0072 -0.4251
 4203W        W22407   4.715  16.674  12.994 -0.2665 -0.1802  0.0769
 4204W        W22408   3.996  10.387  15.385 -0.2577  0.1460 -0.1611
 4205W        W22409   0.921  15.345  15.324  0.0591 -0.0565 -0.0724
 4206W        W22410  13.657  14.715  14.962 -0.4138  0.2182 -0.0306
 4207W        W22411  14.001  10.431   3.449  0.2823 -0.1629 -0.0274
 4208W        W22412  15.069  17.190   0.544 -0.0533 -0.1212  0.1847
 4209W        W22413   4.107  15.860  16.652  0.1670 -0.1776 -0.0568
 4210W        W22414  11.557   8.014  16.668 -0.2458  0.0491  0.0514
 4211W        W22415   1.338   4.522  15.035 -0.1775 -0.1366 -0.1727
 4212W        W22416  13.477   5.856  14.586 -0.0039 -0.0335  0.1525
 4213W        W22417  11.731  10.222  16.189  0.1286 -0.1496 -0.0699
 4214W        W22418  14.498   7.071  13.003 -0.1681  0.1887  0.0332
 4215W        W22419   9.919  12.200  14.840 -0.0347  0.3502  0.1778
 4216W        W22420  12.367   3.105   3.694 -0.0323  0.1991  0.1349
 4217W        W22421   9.322  14.493   3.683 -0.0664 -0.1737 -0.0077
 4218W        W22422   2.055   0.512   4.546 -0.1025 -0.1030  0.1610
 4219W        W22423   1.941  13.435  17.345 -0.1853 -0.0707  0.0610
 4220W        W22424  15.198   7.992   3.683 -0.1251 -0.1203  0.0032
 4221W        W22425   1.535  11.478  16.300  0.1198  0.1306 -0.4598
 4222W        W22426  16.424   2.046   2.061  0.2023 -0.0044 -0.1538
 4223W        W22427   9.336   3.440   2.736 -0.1665  0.1815 -0.3233
 4224W        W22428   4.903   1.207   4.923  0.0437  0.0012  0.0580
 4225W        W22429   2.693   3.701   1.668  0.1489 -0.2046  0.2282
 4226W        W22430   3.974  16.424  13.084 -0.1586  0.0300  0.1298
 4227W        W22431  17.271  15.750  13.481  0.1454 -0.0934 -0.0602
 4228W        W22432  16.608  14.845  14.632  0.1815 -0.3141 -0.0002
 4229W        W22433  10.350   2.000   2.533 -0.0953  0.0573 -0.4387
 4230W        W22434   2.382  12.027   5.249  0.4385 -0.1464  0.2659
 4231W        W22435   8.109  10.492   3.194  0.0224  0.0854  0.0024
 4232W        W22436  14.324   8.433  16.271 -0.0096 -0.0032  0.2186
 4233W        W22437   9.291   1.296   5.290 -0.1067  0.1569 -0.3523
 4234W        W22438  15.215  16.118   0.659 -0.2327 -0.1232  0.3060
 4235W        W22439  13.168  12.388  15.735 -0.0976 -0.0828 -0.0578
 4236W        W22440  14.115   9.037  15.964  0.0096  0.0227 -0.3357
 4237W        W22441  12.623   1.500   4.755  0.1894  0.3660 -0.1865
 4238W        W22442  10.764  11.303  17.228 -0.0185  0.0164  0.0788
 4239W        W22443   0.807   7.139   4.340  0.2073 -0.1069 -0.0864
 4240W        W22444  13.634   1.595  14.256  0.1994 -0.1735 -0.3648
 4241W        W22445   6.014  12.947   3.369 -0.2643 -0.0184  0.0063
 4242W        W22446  17.336  10.721  17.131  0.0398  0.2820 -0.1817
 4243W        W22447   5.230   4.867   4.325  0.1482  0.2653  0.1404
 4244W        W22448   5.110   4.237  16.864 -0.2535  0.3671  0.1876
 4245W        W22449   3.340   8.733   1.315  0.3036 -0.0326 -0.1966
 4246W        W22450  13.395  11.106  16.760 -0.3558  0.0829  0.2092
 4247W        W22451   9.002   4.928  16.688  0.0053 -0.1993  0.0746
 4248W        W22452   1.546   0.602   4.278  0.0341  0.2405 -0.2815
 4249W        W22453  16.043   1.362  17.461 -0.0549  0.0939  0.1296
 4250W        W22454  12.145   9.528  15.850  0.0674  0.3211  0.2499
 4251W        W22455   5.424   3.608   2.338 -0.0667  0.2200  0.0526
 4252W        W22456  14.436  11.046  14.018  0.4051  0.0244  0.2869
 4253W        W22457  14.878  16.698  13.814  0.0828 -0.1716 -0.0342
 4254W        W22458  10.532   4.612  12.951  0.0928  0.1587 -0.3212
 4255W        W22459   3.493   9.416   0.463 -0.0810  0.0745 -0.2595
 4256W        W22460   2.622   5.276  17.529 -0.3052  0.2391 -0.0623
 4257W        W22461   5.020   2.587  14.841 -0.1309  0.2568 -0.0926
 4258W        W22462  11.976   1.611  13.655  0.0615  0.2730 -0.1796
 4259W        W22463   8.001  12.144   4.580  0.2899  0.0436  0.0943
 4260W        W22464   6.956  12.450  13.132  0.2136  0.2252  0.0410
 4261W        W22465   0.673  10.781   1.421  0.1544 -0.3943  0.2726
 4262W        W22466  12.856  11.455  12.312  0.1511 -0.0561 -0.1365
 4263W        W22467   3.495  10.606  11.869  0.0776 -0.1043  0.0985
 4264W        W22468   4.993   0.722   5.021 -0.2581 -0.0776 -0.0824
 4265W        W22469   5.088  11.574  15.854 -0.2370  0.0903  0.0920
 4266W        W22470   0.154  13.497  17.452 -0.1567 -0.0920  0.0132
 4267W        W22471  14.419  15.625   2.187 -0.0960  0.1029  0.0882
 4268W        W22472  17.030   3.993   3.393 -0.0685  0.1318  0.0414
 4269W        W22473   2.607  17.039   3.857  0.1463 -0.0738 -0.4166
 4270W        W22474   9.513  13.388   0.501  0.1502 -0.1069  0.0635
 4271W        W22475   4.750   1.421   1.939  0.0962  0.1004 -0.2599
 4272W        W22476  13.713  13.739   5.059 -0.1868  0.0317 -0.0377
 4273W        W22477   1.322   0.695   5.620 -0.3082 -0.1590 -0.0583
 4274W        W22478   2.220   9.820   3.440 -0.1049  0.1820 -0.0825
 4275W        W22479   3.691  11.890   2.948  0.0051  0.0286 -0.1884
 4276W        W22480   8.880  10.717   0.670 -0.1940 -0.1882 -0.2234
 4277W        W22481  11.063  15.307  14.637 -0.0473 -0.2668 -0.1246
 4278W        W22482   7.449  15.950  16.397 -0.0232 -0.1173  0.1235
 4279W        W22483   3.437  14.838   0.600 -0.0323  0.0357  0.1194
 4280W        W22484  15.809  15.772   3.638  0.0177  0.0580 -0.1166
 4281W        W22485  15.425   7.497  15.910  0.0691  0.1362  0.0848
 4282W        W22486   5.503   2.021  14.329  0.1332  0.3572  0.1481
 4283W        W22487  10.220   5.870   4.086 -0.1581 -0.1702  0.2190
 4284W        W22488   8.172   1.563  13.582  0.1873 -0.2022  0.1261
 4285W        W22489   0.421  17.173   4.953  0.0045  0.1011 -0.1328
 4286W        W22490   7.513   6.039   4.825 -0.0667 -0.2427 -0.2209
 4287W        W22491  16.752  10.676  15.765 -0.0560 -0.2566 -0.1393
 4288W        W22492  10.536   6.336   5.605  0.0726  0.0832 -0.0382
 4289W        W22493  12.075   2.717   6.393 -0.3620  0.2705 -0.0879
 4290W        W22494   5.341  11.268  13.769  0.0578 -0.1683 -0.0805
 4291W        W22495   6.370  12.703  15.805  0.0266 -0.0649 -0.0814
 4292W        W22496   9.268   8.186  16.367  0.0937 -0.1257  0.0559
 4293W        W22497  13.704  10.003  16.561 -0.0050 -0.0108  0.0325
 4294W        W22498   5.793  13.468  14.230  0.4009 -0.5204 -0.2818
 4295W        W22499  17.115  15.878   1.569  0.0604  0.0855  0.3719
 4296W        W22500   1.338  10.098   1.627  0.0270 -0.0672 -0.2131
 4297W        W22501   6.128  15.363   5.048 -0.0962  0.0532  0.1756
 4298W        W22502   3.152   0.085  14.947  0.0470  0.1357 -0.1299
 4299W        W22503   0.754   6.830   4.788  0.1623 -0.1330  0.1068
 4300W        W22504   4.783   4.975   5.103 -0.2296 -0.2959  0.3124
 4301W        W22505   4.247  14.108   2.777  0.0812  0.2650 -0.0997
 4302W        W22506   2.575  11.810   1.017 -0.0317  0.1704  0.1547
 4303W        W22507  15.540   1.920   4.280  0.2378 -0.0107  0.0415
 4304W        W22508   6.660  10.544  17.392 -0.1471 -0.0630  0.3064
 4305W        W22509   6.648   8.073   2.752  0.1704  0.2995  0.0948
 4306W        W22510   0.556   8.569   1.610 -0.2261 -0.1261 -0.0974
 4307W        W22511   9.788   1.895  16.161  0.1662 -0.1707  0.0853
 4308W        W22512   6.412  12.985   4.310 -0.0894 -0.1061 -0.1564
 4309W        W22513  16.304   6.279  16.229  0.1279  0.3584  0.1416
 4310W        W22514  12.385  14.412  13.696  0.2923 -0.4290  0.3072
 4311W        W22515   1.554  16.711  16.361 -0.0693 -0.3366  0.1668
 4312W        W22516  16.612  16.010  14.329 -0.0728 -0.4799 -0.0821
 4313W        W22517   4.284   5.445   1.830  0.2791  0.1143  0.1369
 4314W        W22518  15.861   6.270  14.406  0.2414 -0.0848 -0.1192
 4315W        W22519  12.747   2.249  17.469 -0.1747 -0.3255 -0.0621
 4316W        W22520   7.929  12.717   3.561 -0.1194  0.0277  0.0751
 4317W        W22521  11.084   5.105   0.629  0.0860  0.2721 -0.0830
 4318W        W22522  14.581  16.727   4.429  0.1000  0.0572 -0.0080
 4319W        W22523   8.891  11.814  14.735 -0.2057 -0.1124 -0.3627
 4320W        W22524   2.199  13.533  13.780  0.1203 -0.2632 -0.2692
 4321W        W22525   7.455   2.164   1.334 -0.3475  0.3073 -0.0787
 4322W        W22526  13.227  14.028  16.116 -0.0317  0.0061 -0.0074
 4323W        W22527   2.934  15.457  16.639 -0.3295 -0.2991  0.3942
 4324W        W22528  12.475   7.424  14.127  0.4117 -0.2131  0.1422
 4325W        W22529  12.623  11.689   2.140 -0.1745 -0.0925  0.0959
 4326W        W22530  16.806   4.322  15.573  0.1173 -0.3137  0.4814
 4327W        W22531  11.494   6.437  16.809  0.0070  0.0498 -0.2542
 4328W        W22532   3.698   3.841  16.785 -0.2712 -0.1238 -0.1184
 4329W        W22533   9.715  13.242   4.983  0.1662 -0.1419 -0.1941
 4330W        W22534  11.299   7.448   5.560  0.3198 -0.2942  0.1407
 4331W        W22535  15.190   3.740   3.911  0.1687  0.0250  0.2019
 4332W        W22536   6.109  10.967   3.216  0.3332 -0.2257  0.0401
 4333W        W22537   5.316  10.310  17.382 -0.1104  0.1885  0.0719
 4334W        W22538   1.090   3.952  17.035 -0.3534 -0.0926  0.0336
 4335W        W22539   1.130   8.436  14.994 -0.2870 -0.2965 -0.0222
 4336W        W22540   3.511  17.189   1.429  0.1306  0.1513 -0.0141
 4337W        W22541   3.839  13.837   1.298 -0.0967  0.0459  0.2730
 4338W        W22542  14.456  11.226  11.220 -0.0090  0.1960 -0.2682
 4339W        W22543   6.225   3.419   3.712 -0.2231 -0.0731 -0.0494
 4340W        W22544   2.786   8.480   1.385  0.0343 -0.1689 -0.1710
 4341W        W22545  15.905  16.472   2.366 -0.1287 -0.1883 -0.0014
 4342W        W22546   5.749   0.871   3.899 -0.1361 -0.4199  0.2496
 4343W        W22547   6.000   3.367  13.554 -0.1418  0.0589 -0.2473
 4344W        W22548   2.167   6.408  16.000 -0.0785  0.2461 -0.2392
 4345W        W22549   2.149   1.734   4.611 -0.3275  0.0933  0.1474
 4346W        W22550   8.446   8.342  14.171 -0.0479 -0.0583 -0.3196
 4347W        W22551  12.867  14.690  16.699  0.1092 -0.1864 -0.3340
 4348W        W22552   9.230  14.457  14.060  0.1198 -0.1776  0.0765
 4349W        W22553   4.974   6.852  15.144 -0.1592  0.4835 -0.0740
 4350W        W22554   7.534  16.224   4.184  0.0094 -0.4882 -0.1838
 4351W        W22555  15.515  10.998  14.197 -0.2741  0.0695 -0.3007
 4352W        W22556  15.393  11.496   5.024  0.4939 -0.1445 -0.2465
 4353W        W22557   5.230   1.354   4.542 -0.2854  0.1234  0.0095
 4354W        W22558   6.548  16.853   4.762 -0.0680  0.1415  0.3601
 4355W        W22559   1.701   6.369   2.741 -0.1991  0.1860  0.1536
 4356W        W22560   0.538   1.120  16.661 -0.0872 -0.3227 -0.2925
 4357W        W22561  11.268  12.278  15.034 -0.2280 -0.0127 -0.1391
 4358W        W22562   7.629   2.793  14.706  0.0693  0.0756  0.3398
 4359W        W22563   0.548   5.509  14.910  0.1069 -0.0892 -0.3432
 4360W        W22564   6.470  15.032  13.954 -0.2279 -0.0302  0.1198
 4361W        W22565  12.886   9.070  16.968  0.0927 -0.1688  0.1197
 4362W        W22566   6.998  12.789  16.260 -0.0921 -0.0856 -0.0364
 4363W        W22567  12.408  15.085   2.342  0.1873  0.5247  0.0240
 4364W        W22568   0.501   9.929   0.528  0.1028  0.1777  0.0019
 4365W        W22569   1.488   4.310   2.635 -0.3774  0.1046 -0.2195
 4366W        W22570   6.303   5.819  13.439  0.0011  0.3718 -0.1128
 4367W        W22571  13.320  12.612   0.526 -0.2229 -0.0686 -0.2876
 4368W        W22572   0.250   2.414  16.711  0.0855  0.2198 -0.0302
 4369W        W22573   2.332   9.352   3.442 -0.3013  0.0088 -0.0009
 4370W        W22574  14.338   0.087   0.379  0.3193  0.1823  0.1152
 4371W        W22575  12.539   8.104  16.479  0.0437  0.0491 -0.1256
 4372W        W22576   8.643   8.719  14.465 -0.4221 -0.0712  0.0539
 4373W        W22577   9.429   3.939   2.832 -0.1839  0.2444 -0.0142
 4374W        W22578   8.520  11.112   5.103  0.2594  0.0174  0.3802
 4375W        W22579   3.577   5.475   3.375 -0.1534  0.1925  0.1781
 4376W        W22580  10.873  10.374   3.713 -0.0098  0.1276 -0.1894
 4377W        W22581   5.768   5.880  14.287  0.3621  0.2038  0.1275
 4378W        W22582   2.996   9.520   1.755 -0.0702  0.3063 -0.0892
 4379W        W22583  13.202   9.200   2.336 -0.0620 -0.1738  0.1670
 4380W        W22584  11.048   3.562  13.844 -0.0742 -0.3157  0.3135
 4381W        W22585   0.896  15.226  17.509 -0.1296 -0.0699 -0.3789
 4382W        W22586  10.195   3.645  16.800  0.1690 -0.1657  0.0958
 4383W        W22587   3.021  13.544  14.880 -0.1061 -0.1468 -0.0272
 4384W        W22588  15.729   9.660  15.761  0.0478  0.4800 -0.0500
 4385W        W22589   5.399  13.479  13.512  0.1825  0.3245 -0.1299
 4386W        W22590   6.356  11.591  13.243  0.0075  0.3227  0.2594
 4387W        W22591  10.113   1.740  14.010 -0.0086  0.1760 -0.0250
 4388W        W22592  14.053   5.029  16.795 -0.1777  0.0099  0.0444
 4389W        W22593  12.602   0.220  16.556  0.1587 -0.0623 -0.0779
 4390W        W22594   6.261  14.772   2.786 -0.2656 -0.1593  0.1392
 4391W        W22595  14.389  11.715   2.920 -0.2075  0.0332 -0.1563
 4392W        W22596   3.325   0.811  16.812  0.1554  0.1225 -0.1019
 4393W        W22597   3.376   7.783   5.038 -0.0422 -0.0371 -0.1994
 4394W        W22598  13.439   3.153   0.292  0.2547 -0.0133 -0.0151
 4395W        W22599   5.247  16.322   1.826  0.0136  0.4052 -0.1187
 4396W        W22600  15.493   0.413   3.246  0.0544  0.1637  0.1625
 4397W        W22601  12.258  13.374  15.592 -0.0455  0.0010 -0.2086
 4398W        W22602  13.248   6.328  14.880 -0.1055  0.0304 -0.3389
 4399W        W22603   6.697   1.735  14.645  0.2815  0.0471 -0.0163
 4400W        W22604   2.396  17.121   3.221  0.1872  0.0209 -0.3655
 4401W        W22605   4.557   5.077  14.516  0.0123 -0.2736 -0.1428
 4402W        W22606  13.460   4.183   0.473 -0.5993  0.0540 -0.0263
 4403W        W22607  13.101   3.411   2.970 -0.0523  0.1241 -0.1964
 4404W        W22608  11.900  14.233   2.686 -0.2343 -0.1896 -0.2054
 4405W        W22609   6.348   3.264   1.746 -0.0859 -0.0431 -0.0733
 4406W        W22610  13.789   5.015  13.600 -0.1245 -0.1201 -0.0544
 4407W        W22611  12.033   1.058  14.878  0.0887  0.2907  0.2004
 4408W        W22612   1.710   2.783  15.727 -0.2993  0.0536 -0.2983
 4409W        W22613  16.825   5.023   3.782  0.1410  0.0013 -0.2161
 4410W        W22614  15.798   4.837  14.231  0.2562 -0.2157 -0.0609
 4411W        W22615  10.376   3.457   1.942 -0.0627  0.0896  0.1627
 4412W        W22616  11.396   2.111   1.622  0.1966  0.0552 -0.1027
 4413W        W22617   8.450   8.131   4.751  0.3551  0.3975  0.0914
 4414W        W22618   0.943   4.822  15.241 -0.1131 -0.3661  0.2751
 4415W        W22619  11.391   1.278  15.753 -0.0616 -0.0336  0.2667
 4416W        W22620   6.358   7.333   3.830 -0.2205  0.1306 -0.1065
 4417W        W22621  16.190   7.055  13.653 -0.4075 -0.1281  0.0087
 4418W        W22622   4.562   8.147   5.493  0.1965 -0.5536 -0.0926
 4419W        W22623   9.808   9.262   4.074 -0.0820  0.3264  0.0830
 4420W        W22624  14.470  11.415  17.289 -0.0119  0.1312  0.2572
 4421W        W22625   6.647   8.267  15.434 -0.1056 -0.1649 -0.3176
 4422W        W22626  12.747   6.929   5.258 -0.2683  0.1196  0.2251
 4423W        W22627   8.695  13.724   2.336 -0.0347  0.0184 -0.1387
 4424W        W22628   9.424  11.365   5.375 -0.3341  0.0701 -0.0047
 4425W        W22629  10.462   9.244   1.764  0.1463 -0.2376  0.0465
 4426W        W22630   5.254   3.670   3.262 -0.1404 -0.0199 -0.0681
 4427W        W22631  13.915   9.833   4.688 -0.2010  0.2004 -0.0603
 4428W        W22632   7.417   6.970  16.778  0.0883  0.0796 -0.0792
 4429W        W22633   5.851   2.270   4.566  0.0612  0.3530 -0.0511
 4430W        W22634  10.681  15.019   6.521 -0.2218 -0.1316 -0.3799
 4431W        W22635   0.444  10.445  17.228 -0.3976 -0.1151  0.0012
 4432W        W22636  15.633   3.444  12.394  0.4248  0.1700  0.0533
 4433W        W22637  11.832   0.608   5.129 -0.0794  0.0491  0.3862
 4434W        W22638  12.544  13.356   0.808  0.1938 -0.1593  0.2140
 4435W        W22639   8.505  13.701   1.739  0.1652  0.1360  0.1868
 4436W        W22640   3.465  13.065   4.847 -0.0759  0.3106  0.0366
 4437W        W22641   4.571  16.878  16.158  0.1861  0.1740  0.0319
 4438W        W22642  16.663  13.561  14.218  0.0781 -0.0205 -0.0484
 4439W        W22643  10.057  15.475  15.351  0.0933  0.0639 -0.0805
 4440W        W22644  13.072   4.610   1.306 -0.0520  0.0262 -0.1256
 4441W        W22645  10.844   9.598   3.738 -0.1211 -0.0738  0.1109
 4442W        W22646   4.334  15.845  16.191  0.0880  0.2392  0.1220
 4443W        W22647   1.489  15.113   4.664 -0.0336  0.1873  0.1012
 4444W        W22648  14.627   8.678  13.181 -0.0267 -0.1272  0.1707
 4445W        W22649   3.191   0.494  12.589 -0.1451  0.2606 -0.3444
 4446W        W22650   4.719   1.537   5.252 -0.0155 -0.2071  0.1219
 4447W        W22651  13.551  15.992  12.083  0.0657  0.3422  0.4240
 4448W        W22652   0.761  11.237   3.822  0.2636  0.1920 -0.0871
 4449W        W22653   1.642   8.368   0.787 -0.1532  0.1232 -0.0821
 4450W        W22654   6.640  14.991   1.285 -0.1192 -0.0578 -0.1206
 4451W        W22655   7.496   4.297   6.418  0.2000  0.0887  0.1326
 4452W        W22656   5.553   3.772   1.869 -0.0832  0.3731 -0.1846
 4453W        W22657   8.019   3.461   2.820  0.0168 -0.2573  0.4239
 4454W        W22658  17.231   1.451  14.804  0.0669  0.3130 -0.1160
 4455W        W22659   0.162   9.200   5.177 -0.1382 -0.2334  0.0198
 4456W        W22660  13.524  14.841   3.423  0.0995 -0.0108  0.2257
 4457W        W22661  16.680   2.300  16.954  0.1165  0.0975 -0.3069
 4458W        W22662   6.805   3.604  13.630  0.1259  0.0918  0.0216
 4459W        W22663  16.207  15.792  12.953 -0.2916 -0.1553 -0.0709
 4460W        W22664   0.366   0.525  14.819 -0.0489  0.1973 -0.2246
 4461W        W22665  11.347  13.429   1.894 -0.1169 -0.2113 -0.2778
 4462W        W22666   4.946   5.022  12.347  0.1400 -0.2884  0.2240
 4463W        W22667  13.900  16.495  13.245  0.2600 -0.0667  0.4326
 4464W        W22668   3.253  14.461   2.977 -0.0349 -0.0734 -0.0543
 4465W        W22669   4.508   1.560   4.801  0.1230 -0.1486 -0.2703
 4466W        W22670   1.688  10.354   2.145 -0.3098 -0.2480 -0.0625
 4467W        W22671  13.194   9.707   3.095 -0.1313  0.4933 -0.0109
 4468W        W22672   5.260  14.878  13.383 -0.2438  0.1820 -0.2915
 4469W        W22673  16.602  15.998  13.778 -0.3146 -0.1348 -0.0177
 4470W        W22674  10.408   6.061  12.246 -0.0628  0.1678 -0.1682
 4471W        W22675   9.821   3.584   2.801 -0.0733 -0.0789 -0.2363
 4472W        W22676  14.795   5.797  15.028  0.0134  0.1188  0.2685
 4473W        W22677   1.130   2.935   0.623 -0.0553 -0.0650 -0.0674
 4474W        W22678   1.539  11.145  13.764  0.3316  0.0870 -0.2286
 4475W        W22679   4.956   8.827   2.827 -0.2584 -0.0577  0.0404
 4476W        W22680  11.942   0.869   2.564  0.3031 -0.0085 -0.1913
 4477W        W22681   1.392  11.546   3.804  0.0519 -0.1241 -0.0669
 4478W        W22682  12.317  17.259   1.745 -0.0739 -0.4975 -0.0024
 4479W        W22683  10.325  14.780  15.002 -0.0427  0.2426 -0.0920
 4480W        W22684   3.241  15.980   2.630 -0.2054  0.0766  0.1354
 4481W        W22685   1.049  14.662  17.473 -0.0108 -0.1025  0.3168
 4482W        W22686  10.080   0.819   5.287  0.0401 -0.0003 -0.3007
 4483W        W22687  12.752   6.829  17.280 -0.1887  0.2926 -0.0803
 4484W        W22688  10.587  10.523  15.088 -0.3131  0.0759  0.1391
 4485W        W22689   0.668  15.220  13.204  0.2735  0.2919 -0.0834
 4486W        W22690   1.387   3.037   2.249  0.2421  0.0263 -0.3667
 4487W        W22691  14.076   2.349   3.647 -0.0880 -0.0046 -0.0448
 4488W        W22692  10.905   8.810  13.874 -0.1602  0.1293  0.0539
 4489W        W22693   6.179  13.729   2.403 -0.2726 -0.1259 -0.0424
 4490W        W22694   4.665  12.543   0.876 -0.1624  0.1613  0.3411
 4491W        W22695  15.156   8.483   0.626  0.0708 -0.2464 -0.2603
 4492W        W22696   3.161   8.219   5.111  0.1755  0.0980 -0.1615
 4493W        W22697   3.475  11.145  15.136  0.0864  0.4191 -0.1511
 4494W        W22698   3.086   5.080   0.248  0.0111  0.2036  0.0230
 4495W        W22699   0.295   4.455   2.687  0.1980 -0.0876  0.1144
 4496W        W22700  12.966   4.492   4.769 -0.1608 -0.0340  0.0797
 4497W        W22701   7.234   9.154   3.550 -0.3306  0.1961 -0.0419
 4498W        W22702  16.389   8.226  16.836 -0.1378 -0.0474  0.1195
 4499W        W22703  17.009  11.607  13.539  0.0090 -0.2428 -0.0889
 4500W        W22704   4.608  12.066   1.233  0.1758  0.1480  0.2614
 4501W        W22705   2.333  11.239   2.352  0.0500 -0.0066 -0.0026
 4502W        W22706  16.237   3.703   2.921  0.1503  0.0440  0.2212
 4503W        W22707   5.981  12.313   2.158 -0.1024 -0.1318 -0.1243
 4504W        W22708  12.496  12.168   5.315 -0.1165 -0.2161 -0.2879
 4505W        W22709  12.347   5.631  12.087  0.0771 -0.0365 -0.1135
 4506W        W22710   9.783  14.134   5.317  0.2177 -0.2894  0.1771
 4507W        W22711   4.049   3.049   3.580 -0.1896  0.2310  0.0913
 4508W        W22712   2.396  16.938  13.899  0.0901  0.3722  0.0349
 4509W        W22713  12.733  11.933   0.771 -0.0439  0.1832  0.0335
 4510W        W22714   6.960  15.512  15.719 -0.0744 -0.0832  0.0673
 4511W        W22715   7.310   7.276  16.417 -0.0309  0.0147 -0.1210
 4512W        W22716  16.227   4.218  12.571 -0.3406 -0.1619  0.0122
 4513W        W22717  15.707   6.568  16.856  0.0301 -0.1434 -0.0571
 4514W        W22718  16.561  14.708   5.444 -0.2583 -0.0191  0.0612
 4515W        W22719   0.573   1.163  11.879  0.0676 -0.1534 -0.0479
 4516W        W22720  14.364  17.262  13.106  0.2879 -0.0775  0.1095
 4517W        W22721   3.564  13.830   2.829 -0.2656 -0.2269  0.0866
 4518W        W22722   6.315  14.749  16.696 -0.1706  0.0743 -0.1016
 4519W        W22723  15.623  14.181  13.908 -0.1919 -0.1473 -0.1963
 4520W        W22724   8.577  14.101  13.327 -0.3167  0.2294  0.2255
 4521W        W22725  11.922   6.146   0.219  0.0790 -0.2957  0.1772
 4522W        W22726   5.063   3.081   0.036  0.1284 -0.2061  0.2154
 4523W        W22727  11.395  10.620  16.295 -0.0654 -0.0046 -0.0178
 4524W        W22728   7.648  16.365   0.975  0.0267  0.0959 -0.0231
 4525W        W22729   4.932  15.683   0.601 -0.2964  0.0156  0.0468
 4526W        W22730  17.229  13.210  16.617  0.0586  0.1514 -0.0551
 4527W        W22731   5.547   7.746  12.903 -0.0192 -0.1758 -0.0043
 4528W        W22732   5.067   3.342   0.433  0.0031 -0.3906 -0.0979
 4529W        W22733   2.399   7.941   3.619  0.0241 -0.1111  0.2265
 4530W        W22734  11.200   8.515   2.097  0.1928  0.1936 -0.2612
 4531W        W22735   2.245   1.809   1.151 -0.1576  0.0987 -0.1187
 4532W        W22736   6.055  12.141  17.003 -0.0709  0.0295  0.0726
 4533W        W22737  12.019   4.204  12.893 -0.1022 -0.1858  0.3613
 4534W        W22738   5.677   5.708   0.648 -0.1148 -0.2891  0.2782
 4535W        W22739   0.254  14.546  15.170 -0.4687  0.1094  0.0671
 4536W        W22740   8.506   9.897  14.991  0.0789 -0.2028  0.1633
 4537W        W22741  12.347  14.666  16.797 -0.3735 -0.1522 -0.1757
 4538W        W22742   7.230   8.050  16.256 -0.2413  0.1797 -0.0976
 4539W        W22743  15.518  15.670  12.822 -0.1582 -0.0416  0.1184
 4540W        W22744   5.975  15.688   1.766 -0.2799 -0.2534 -0.0386
 4541W        W22745  12.932  12.936   1.233 -0.2697  0.2349 -0.1848
 4542W        W22746   9.961  10.094  12.473  0.0550  0.1718  0.1148
 4543W        W22747   0.579  12.726   4.694 -0.4078 -0.1726 -0.1602
 4544W        W22748  14.754  10.306  16.688  0.2387  0.4452  0.1249
 4545W        W22749   7.485   6.866  14.093  0.1486 -0.0032  0.1456
 4546W        W22750   9.148   5.182  12.422  0.2045 -0.0988 -0.1692
 4547W        W22751  14.691  16.882   0.501  0.0783 -0.0105  0.1508
 4548W        W22752  11.425   3.972  12.924  0.1053  0.1699  0.0389
 4549W        W22753  14.005   6.015  14.409  0.2720  0.2014 -0.0509
 4550W        W22754  11.356  14.222  13.699 -0.0503 -0.0854 -0.1444
 4551W        W22755  16.002  11.696   1.846 -0.0261 -0.1613  0.0505
 4552W        W22756  11.838   9.800  13.282 -0.5378 -0.1456  0.0311
 4553W        W22757  16.000   2.629  12.467 -0.0562  0.0639  0.1670
 4554W        W22758  17.258   1.094  12.193  0.2280 -0.3290  0.0796
 4555W        W22759  13.202   4.479  15.905  0.0710 -0.0411 -0.0833
 4556W        W22760  10.447  12.614  14.496  0.0688 -0.0814 -0.1515
 4557W        W22761   7.729   7.968   3.519  0.0463  0.1936  0.4023
 4558W        W22762   9.687  12.246   4.452  0.0329  0.0938 -0.3244
 4559W        W22763  14.021   0.482   3.906  0.1636 -0.1455 -0.1700
 4560W        W22764   1.901   3.572  15.176  0.2197 -0.0981 -0.0216
 4561W        W22765   2.283  11.127   4.061 -0.1786 -0.1819 -0.0562
 4562W        W22766  16.195   1.745   2.355 -0.4054  0.2763 -0.1797
 4563W        W22767   9.761   8.846   4.903 -0.1579 -0.0932 -0.0694
 4564W        W22768  11.867   5.836   2.601 -0.1235 -0.0845 -0.0456
 4565W        W22769  14.608   5.398  12.913  0.0891  0.0912 -0.2929
 4566W        W22770   9.323  15.440   0.615  0.2033 -0.0964 -0.3011
 4567W        W22771  17.196  10.179   5.455 -0.0434  0.0925 -0.1215
 4568W        W22772   2.940   9.371  13.405  0.4184 -0.1396  0.1141
 4569W        W22773  15.188  14.111   1.254  0.0825 -0.0124 -0.1964
 4570W        W22774  12.369   5.272   0.703  0.0402  0.0666  0.0867
 4571W        W22775   4.001  16.011  15.828 -0.0619 -0.1626 -0.1531
 4572W        W22776  12.756  16.389   2.211 -0.0765 -0.1867 -0.1609
 4573W        W22777   4.324   4.097  15.692 -0.0943 -0.1860  0.3529
 4574W        W22778   1.069  10.916   0.448 -0.1310 -0.0227  0.1661
 4575W        W22779   7.994   8.325   3.315 -0.0644  0.0162  0.1450
 4576W        W22780  15.199   6.526   2.821  0.1405 -0.1502 -0.2401
 4577W        W22781  16.604   6.893  13.425  0.0145  0.3311  0.2267
 4578W        W22782  12.837  15.629  15.209 -0.2016  0.1763  0.1251
 4579W        W22783   4.479  12.643  14.834 -0.1813 -0.2153 -0.3283
 4580W        W22784  16.819   3.592   1.210  0.0187  0.0756 -0.2693
 4581W        W22785  10.780  13.524   1.019  0.1956 -0.2700 -0.1047
 4582W        W22786   9.427   1.426  14.166 -0.1498  0.1953  0.0650
 4583W        W22787   2.662   1.209   0.785 -0.2560  0.0258 -0.0000
 4584W        W22788  10.316   6.799   3.717  0.0025  0.2092 -0.1365
 4585W        W22789  12.639  12.918   1.866 -0.1210 -0.1164  0.1778
 4586W        W22790   7.598  12.546   4.231 -0.1770  0.0736  0.3914
 4587W        W22791   2.230   5.998  15.693  0.2268 -0.1236  0.0558
 4588W        W22792  10.644   4.736   3.328  0.0296 -0.2714  0.0193
 4589W        W22793  14.996   8.178  16.423 -0.0897  0.0331 -0.3485
 4590W        W22794  11.709   0.050   1.307  0.0294 -0.1319 -0.4349
 4591W        W22795   8.831   2.193  12.275 -0.2537  0.1606 -0.0229
 4592W        W22796   5.938  10.172  15.539 -0.2814  0.1594  0.2693
 4593W        W22797   5.454  13.239   3.676  0.0401 -0.1060  0.0148
 4594W        W22798   5.472   4.355  16.266  0.0007 -0.2958 -0.3171
 4595W        W22799  16.900  15.403  17.246 -0.1555 -0.0838  0.1110
 4596W        W22800  12.886   6.948   4.007 -0.0678  0.1677  0.2021
 4597W        W22801  12.142   3.146  16.778  0.0826  0.0910 -0.0635
 4598W        W22802   0.105   1.541   3.644  0.1047 -0.1751 -0.2246
 4599W        W22803   1.341   3.669  16.654  0.2606  0.1305 -0.2753
 4600W        W22804  11.787  15.812   6.018  0.0029  0.1041  0.1421
 4601W        W22805  12.843  15.163  15.501 -0.0545  0.1908 -0.1781
 4602W        W22806   4.364   7.287   3.851  0.1597  0.1234  0.1268
 4603W        W22807   7.222  11.199  14.552 -0.0709 -0.1675 -0.0485
 4604W        W22808   9.051  11.745  16.320  0.0857 -0.4395  0.0379
 4605W        W22809  17.120   3.649  16.785  0.0424 -0.3052  0.1278
 4606W        W22810  12.544   9.210  14.902  0.1071 -0.0766 -0.0178
 4607W        W22811   5.419   4.186  13.839 -0.1751  0.1827  0.0038
 4608W        W22812  15.197   2.350   5.376 -0.2939  0.3114 -0.0721
 4609W        W22813   5.895  10.461  13.860 -0.0787 -0.2837 -0.1726
 4610W        W22814   1.831   5.056   1.264 -0.0145 -0.0153  0.2081
 4611W        W22815  15.787   3.289  17.321  0.0861 -0.3594  0.0345
 4612W        W22816   7.018   8.662   1.536 -0.1090  0.2900  0.2546
 4613W        W22817   9.446  15.466  14.318  0.1512  0.2201  0.2334
 4614W        W22818  15.188   5.193  17.340 -0.2996 -0.0419  0.1991
 4615W        W22819   2.269  16.980   5.040 -0.2483  0.1380  0.0040
 4616W        W22820  16.601   7.487   5.474  0.0639 -0.1547  0.2340
 4617W        W22821   5.519  13.633   4.030  0.0504 -0.1449 -0.0133
 4618W        W22822  16.859   5.033  14.563 -0.1673  0.1584  0.2995
 4619W        W22823   1.363   3.494  13.834 -0.1300  0.0873 -0.0665
 4620W        W22824   4.224  10.958  14.545  0.0060  0.2385 -0.0108
 4621W        W22825   7.389   0.562   2.863  0.0687 -0.1085 -0.1877
 4622W        W22826   8.402   1.249  15.345 -0.1215  0.0283 -0.0563
 4623W        W22827   0.359  15.628   0.642  0.0628 -0.0172  0.1213
 4624W        W22828   0.501  16.078  15.560 -0.1534  0.2083  0.1424
 4625W        W22829  11.209   1.284   0.110  0.0676 -0.0350 -0.0284
 4626W        W22830   7.860  13.815  14.514 -0.2741 -0.1338 -0.2433
 4627W        W22831  11.990   0.670  13.002  0.0592 -0.1545  0.0091
 4628W        W22832  15.840   0.049  13.369 -0.2846  0.3246  0.2210
 4629W        W22833   0.997  15.256  14.803  0.0465 -0.0006  0.3760
 4630W        W22834   2.067   7.899  14.457  0.1302 -0.2677 -0.0110
 4631W        W22835   3.859   4.963   0.817 -0.1676 -0.1537  0.0471
 4632W        W22836   0.570   0.675   4.236 -0.0640  0.2542 -0.1320
 4633W        W22837  11.828   5.677  15.753 -0.2598 -0.0763 -0.0064
 4634W        W22838  14.951   5.607  16.384 -0.0925 -0.1539  0.2676
 4635W        W22839   3.904  13.827   1.866  0.2006  0.0339 -0.0420
 4636W        W22840  15.835  14.331   3.110  0.2099 -0.0133  0.1111
 4637W        W22841   7.355   3.279   5.134 -0.2215  0.1718  0.0585
 4638W        W22842  13.371   0.350   0.583  0.1623 -0.2840  0.3334
 4639W        W22843  13.974   0.492   1.700 -0.0578 -0.2565  0.1418
 4640W        W22844   6.412   2.886   1.416  0.1413  0.3299  0.0252
 4641W        W22845  15.250  12.465  14.832 -0.2015  0.0335 -0.2365
 4642W        W22846  11.880   3.864  14.284  0.1024  0.0036  0.3164
 4643W        W22847   9.464   7.320   5.275  0.1437 -0.2669 -0.2062
 4644W        W22848   2.182  15.977  17.356 -0.0938 -0.1002 -0.0267
 4645W        W22849   1.074   2.118   2.604 -0.2677  0.1132 -0.3355
 4646W        W22850   6.857   4.654   2.655  0.0719 -0.1395  0.2352
 4647W        W22851  16.444   9.929   4.977 -0.1163  0.1658  0.0054
 4648W        W22852   8.666   3.819   3.382 -0.3473  0.2836  0.0939
 4649W        W22853   8.247   8.243  13.737 -0.2315  0.0962 -0.3544
 4650W        W22854  11.949   8.513   5.211  0.0971  0.1639  0.1473
 4651W        W22855   6.852  16.225   2.124  0.0580  0.4485  0.1274
 4652W        W22856  12.975  10.770   1.038  0.2578 -0.1219 -0.1402
 4653W        W22857   7.639  13.055  13.275 -0.2305  0.0165  0.2715
 4654W        W22858   9.869  12.119  13.015 -0.1301 -0.0801  0.0729
 4655W        W22859   7.202   8.457   5.219 -0.1946 -0.1556  0.1687
 4656W        W22860  12.211  15.231   5.286 -0.0213 -0.2568  0.2745
 4657W        W22861  17.088  11.168  16.078 -0.1014 -0.0608 -0.1363
 4658W        W22862   8.424   2.917   3.928  0.0023 -0.0485 -0.0397
 4659W        W22863   4.785   7.721  16.903  0.0486  0.1846  0.0092
 4660W        W22864  12.998  16.523   4.851  0.1232 -0.1267  0.0979
 4661W        W22865  10.368   8.950  12.538  0.2391 -0.2156 -0.0769
 4662W        W22866  14.459   9.102   0.557 -0.0182 -0.1145  0.0824
 4663W        W22867  10.642  11.988   3.129 -0.1392 -0.1245 -0.0444
 4664W        W22868  12.054   3.847  16.305 -0.0140  0.0023 -0.0572
 4665W        W22869   3.301   9.768  13.410  0.3964 -0.1408  0.0287
 4666W        W22870   9.967   1.248   1.398  0.0741 -0.0311 -0.0264
 4667W        W22871   6.930   7.061   3.610  0.0054  0.2537 -0.0758
 4668W        W22872   5.369  13.111   5.243 -0.0911 -0.1806 -0.0221
 4669W        W22873  15.259  14.989   5.319 -0.0900 -0.1543  0.0697
 4670W        W22874   4.571   2.556  14.590  0.1572  0.0607 -0.1996
 4671W        W22875   4.873   2.453   4.992  0.0267  0.1932 -0.2492
 4672W        W22876   9.327   1.859   2.436  0.0824 -0.3287  0.2697
 4673W        W22877  12.515  17.020  16.225 -0.2868 -0.0566 -0.2340
 4674W        W22878  11.767  11.689  12.920 -0.0150 -0.2045 -0.0155
 4675W        W22879  15.224   8.766   5.213  0.2334 -0.2370 -0.0315
 4676W        W22880   9.853  17.148  17.272  0.0084 -0.0277 -0.1598
 4677W        W22881  17.005   1.226   1.861 -0.2359  0.0983  0.1240
 4678W        W22882  11.136   4.874   5.031  0.0094 -0.0389  0.0763
 4679W        W22883   8.063  11.274   5.266  0.0076  0.0678  0.1168
 4680W        W22884   8.725  12.592   2.672 -0.0179 -0.1002  0.0896
 4681W        W22885   5.912   0.206  16.824 -0.1944 -0.2499  0.1709
 4682W        W22886  16.050  15.770  13.659 -0.0417 -0.2083  0.0835
 4683W        W22887   1.927   4.704  16.308 -0.2899 -0.1796  0.4665
 4684W        W22888  13.174  12.070   1.705  0.1242 -0.0975  0.0865
 4685W        W22889   5.314  14.749   5.957 -0.3221  0.0590  0.1110
 4686W        W22890  12.973   0.535   4.595 -0.0776  0.1006  0.0514
 4687W        W22891  12.538   3.596   3.743  0.1248  0.2724  0.0377
 4688W        W22892   5.414   7.807   5.194  0.1540  0.2895  0.1207
 4689W        W22893   0.193   7.522   4.329  0.0595 -0.1491  0.0994
 4690W        W22894   6.364  10.697  13.587  0.0704 -0.2379 -0.1058
 4691W        W22895   0.846   7.966   2.212  0.0144 -0.0604 -0.0506
 4692W        W22896   3.505  10.320  11.458  0.0748 -0.0968  0.0250
 4693W        W22897   2.643   6.300   0.712  0.0618  0.2054  0.1187
 4694W        W22898  15.141  11.729   4.149  0.2386 -0.0937  0.0793
 4695W        W22899  10.982   9.725   4.272 -0.1460 -0.0265 -0.0165
 4696W        W22900   2.614   8.146  16.121 -0.1607  0.0899 -0.1337
 4697W        W22901  15.083   8.798   2.809 -0.1033  0.1445  0.0286
 4698W        W22902   7.888  14.258  14.305 -0.0218  0.2683  0.0821
 4699W        W22903   0.860   6.338  12.753 -0.1154  0.0733 -0.2675
 4700W        W22904  11.986   6.235  13.616 -0.0323 -0.2072 -0.1527
 4701W        W22905   9.066   2.884   3.838 -0.1322  0.1669 -0.1020
 4702W        W22906   6.306   1.950  16.331 -0.0273  0.5617 -0.0885
 4703W        W22907   3.972  11.516  12.179 -0.1121 -0.0336 -0.1489
 4704W        W22908  10.489  12.419   2.361 -0.0968 -0.0899 -0.0117
 4705W        W22909   3.676   3.869  12.207 -0.0789 -0.2552 -0.0357
 4706W        W22910   6.283  17.284  12.245 -0.0284 -0.1002  0.3291
 4707W        W22911   8.178   8.385   2.847  0.1334 -0.2736  0.1369
 4708W        W22912   8.110   2.801  13.148 -0.1256  0.2165 -0.1148
 4709W        W22913   4.586   1.946   0.139 -0.1495 -0.1660  0.4255
 4710W        W22914   2.701   0.612  16.595 -0.2013 -0.0480 -0.2829
 4711W        W22915  14.184   3.363  14.626 -0.3109  0.0350  0.4722
 4712W        W22916  10.986  12.308   2.264 -0.2736  0.0928  0.0053
 4713W        W22917   4.376   2.544   2.767  0.3984 -0.0837  0.1698
 4714W        W22918   3.360  14.115   4.909  0.2094  0.0442  0.2112
 4715W        W22919   3.005   5.019  14.837  0.0450 -0.0121 -0.0981
 4716W        W22920  13.908   5.745  16.203  0.1787  0.0645 -0.1725
 4717W        W22921  17.262   0.462  16.346  0.3661 -0.2091 -0.0183
 4718W        W22922  16.115   6.202  17.513  0.1722 -0.1740 -0.1208
 4719W        W22923   9.860   0.622  15.064  0.2432 -0.0967 -0.3200
 4720W        W22924   8.678  15.400  12.566  0.3360 -0.0712 -0.1546
 4721W        W22925   2.143  13.934  15.555 -0.0965  0.1317 -0.0728
 4722W        W22926   8.950   6.010   3.956 -0.0083  0.1979 -0.0522
 4723W        W22927  14.968  17.007   2.031 -0.2941  0.0306  0.1693
 4724W        W22928   3.126  16.510  17.378 -0.4375  0.1194 -0.0904
 4725W        W22929   2.768   3.818   0.575 -0.0846 -0.1154 -0.1073
 4726W        W22930   7.771  13.727  15.960 -0.0432  0.4268 -0.2109
 4727W        W22931  12.547   5.326  15.740  0.2258  0.0554 -0.0285
 4728W        W22932   5.930   7.037   2.938 -0.0341  0.1547 -0.1965
 4729W        W22933  16.212   1.145  15.818 -0.0372  0.0413  0.1854
 4730W        W22934  10.914  13.562   5.456 -0.0646 -0.1145  0.0658
 4731W        W22935   9.936   4.613   2.443 -0.2887  0.0763 -0.2877
 4732W        W22936  15.487  14.399   2.689 -0.0737  0.0311 -0.0256
 4733W        W22937  13.348  10.823  14.396  0.1523  0.1742 -0.0555
 4734W        W22938  12.241   6.857   2.319 -0.0633  0.1588 -0.1793
 4735W        W22939   5.899   6.520   1.169  0.0679 -0.0488 -0.1178
 4736W        W22940   9.976   4.899   0.809 -0.0126  0.0350  0.2622
 4737W        W22941   6.854  13.399   0.904  0.0280 -0.0351 -0.3316
 4738W        W22942   5.593  15.441  12.259 -0.0233  0.2876 -0.0074
 4739W        W22943   7.930  14.647   5.297  0.0180 -0.0052 -0.0430
 4740W        W22944  15.406   2.949  15.365  0.0252 -0.2564  0.1472
 4741W        W22945   1.710  16.190  17.123 -0.2619  0.2352  0.0351
 4742W        W22946   7.442  12.703   5.560 -0.0709 -0.1409  0.1261
 4743W        W22947  14.767   0.868  15.713 -0.0703 -0.0450 -0.2940
 4744W        W22948   1.893  11.339   2.182 -0.4149  0.1089  0.1731
 4745W        W22949  10.512  17.212  15.622 -0.0135 -0.3359  0.2507
 4746W        W22950   2.629  12.781  16.410 -0.0931 -0.0693  0.1669
 4747W        W22951   8.759   3.831   5.930  0.0453  0.0625 -0.1522
 4748W        W22952   7.865  15.378  12.527 -0.1894  0.1187  0.1429
 4749W        W22953   4.787  14.681  12.765 -0.2406  0.1643 -0.0891
 4750W        W22954   6.146   4.961   2.656  0.3717 -0.1457 -0.2028
 4751W        W22955   4.714  13.521   1.886  0.2015  0.0048  0.0552
 4752W        W22956   6.925  11.493  17.500  0.0498 -0.0722  0.0625
 4753W        W22957  16.835  16.237   4.480 -0.0645  0.1036 -0.1322
 4754W        W22958   2.628  10.891  13.996 -0.2747 -0.4007  0.0097
 4755W        W22959   1.202   1.050  14.926  0.1213 -0.1797 -0.1978
 4756W        W22960  14.239   3.305   3.075 -0.2356 -0.0942  0.0246
 4757W        W22961   4.991   3.304   2.247  0.2090  0.1199  0.1468
 4758W        W22962  14.157  15.705  12.803 -0.1169  0.1001  0.5275
 4759W        W22963  16.310  10.799   3.935 -0.0968 -0.0339 -0.1729
 4760W        W22964   3.833  14.685  12.574  0.2215 -0.2531 -0.0012
 4761W        W22965  15.353   2.190  16.077 -0.2678  0.3094  0.0442
 4762W        W22966   4.669  12.915  16.756 -0.0205 -0.0514 -0.4019
 4763W        W22967   3.940  12.511  12.659 -0.2704 -0.1763 -0.0701
 4764W        W22968   0.706   9.500  14.416  0.1012  0.1599 -0.0268
 4765W        W22969   8.734   8.452   1.610  0.0241 -0.2707 -0.0987
 4766W        W22970  12.656   3.304  15.711  0.1120 -0.4014  0.0862
 4767W        W22971   5.342  16.566   0.355 -0.0098 -0.0296  0.1040
 4768W        W22972   7.181   0.910  16.545  0.0372  0.3568  0.1554
 4769W        W22973   0.834   6.280  17.522 -0.1562  0.0343  0.1444
 4770W        W22974   9.281  14.956  16.008 -0.2025  0.0102 -0.1367
 4771W        W22975   7.957  16.887  13.025  0.0566  0.0922 -0.0557
 4772W        W22976   2.228  12.011   1.273 -0.2164 -0.0691  0.3366
 4773W        W22977  11.776   5.315   5.803 -0.1285  0.3664 -0.1502
 4774W        W22978   5.084  13.072   3.391 -0.0121  0.0096 -0.2969
 4775W        W22979   3.913   8.863  12.677 -0.1080  0.2431  0.4046
 4776W        W22980   1.277   8.546   3.411  0.2005 -0.0295 -0.4652
 4777W        W22981  12.222   8.269   0.368 -0.0389 -0.0861 -0.3498
 4778W        W22982   6.696  14.015   3.451 -0.0749 -0.2419 -0.2788
 4779W        W22983  15.957   5.193   2.408  0.0132 -0.1137 -0.0226
 4780W        W22984  14.896  12.295   0.438 -0.1420  0.1511 -0.2328
 4781W        W22985  12.018   8.440   3.498 -0.0973  0.1819  0.1227
 4782W        W22986  13.600   6.114  15.204  0.0312  0.1351  0.1534
 4783W        W22987  13.778   1.302  14.664  0.0407  0.2455  0.0671
 4784W        W22988   8.057   5.878  14.662  0.0365  0.0858  0.3024
 4785W        W22989   0.730   4.507  13.134 -0.0622 -0.1645 -0.0015
 4786W        W22990   2.000   8.439  15.534 -0.1629  0.2150  0.3256
 4787W        W22991   0.174  11.726   4.649 -0.0075 -0.0722 -0.0456
 4788W        W22992  11.900  13.062   3.641  0.0264 -0.0335 -0.3196
 4789W        W22993   4.867   4.514   4.884  0.0568  0.2808  0.1902
 4790W        W22994   4.047   0.909  12.416  0.0064 -0.0026  0.1689
 4791W        W22995  14.338   7.183  14.523  0.1560  0.0866  0.3990
 4792W        W22996  13.487  16.375   0.069 -0.1412 -0.0388  0.3633
 4793W        W22997   1.708   1.859  13.704  0.1769  0.2503 -0.0781
 4794W        W22998  14.515   3.943   1.166  0.1716  0.0927  0.1932
 4795W        W22999   1.571   3.285   0.833 -0.0469  0.0679 -0.0908
 4796W        W23000   2.995  13.714  14.357 -0.0969  0.1658  0.3135
 4797W        W23001   2.606   0.734  12.695  0.0014 -0.2475  0.3909
 4798W        W23002   0.779  13.535   4.695 -0.1473 -0.1023  0.2549
 4799W        W23003   4.371  14.125   4.624 -0.0062  0.2498  0.0906
 4800W        W23004   4.165  16.614  12.032  0.0704 -0.1157  0.0416
 4801W        W23005  12.732  11.430  14.017 -0.0961  0.2434 -0.1032
 4802W        W23006   5.614   7.575  15.864 -0.0727 -0.2146 -0.1794
 4803W        W23007  10.607   2.282  16.947 -0.2914 -0.0369  0.1918
 4804W        W23008   3.696   8.122  14.772  0.1739  0.2506  0.0029
 4805W        W23009  12.438   8.283   3.090 -0.1015 -0.0926 -0.1031
 4806W        W23010   3.976   9.445   3.769  0.0630  0.1015  0.1397
 4807W        W23011  16.147  11.182   1.017 -0.2704 -0.0023 -0.0311
 4808W        W23012  15.080  14.007   2.406 -0.0160  0.0654  0.0874
 4809W        W23013   4.160  12.243  14.407  0.0398 -0.1503  0.1131
 4810W        W23014   2.338  12.472   4.946  0.1221  0.0911 -0.0318
 4811W        W23015   7.443   6.914   2.758 -0.0823  0.0748 -0.0954
 4812W        W23016  14.161   0.129  12.306  0.1419  0.1438 -0.1409
 4813W        W23017  10.695   6.502   3.671 -0.0132  0.0123 -0.0306
 4814W        W23018  16.730   4.802  13.661  0.0405  0.0641 -0.2832
 4815W        W23019   9.476   9.665   1.657 -0.0943 -0.0284  0.0618
 4816W        W23020   7.711   7.549  13.405 -0.1057  0.1335  0.2411
 4817W        W23021  10.356   2.018   4.013  0.0503  0.1644 -0.4116
 4818W        W23022   6.008   9.117   4.581  0.1714 -0.3932  0.1584
 4819W        W23023  15.796   8.056   1.493  0.1253 -0.0780  0.1692
 4820W        W23024   3.507   5.772   3.836 -0.1410  0.2102 -0.0634
 4821W        W23025   5.871   7.051   5.187 -0.0099 -0.0780 -0.1127
 4822W        W23026  14.661   0.799   3.480  0.1739  0.0581 -0.2796
 4823W        W23027   7.063   4.811   4.394 -0.1450 -0.0139 -0.0305
 4824W        W23028   4.878  12.900   0.663 -0.1828  0.2522  0.0874
 4825W        W23029  16.697   1.268  16.059  0.1201 -0.0451  0.1327
 4826W        W23030  14.450  11.157   1.011 -0.2179  0.1628  0.0670
 4827W        W23031   2.088   0.869  15.991 -0.0287  0.0106  0.0586
 4828W        W23032   3.576   6.172  15.104  0.2595 -0.0632  0.0718
 4829W        W23033   5.411   9.395   2.271  0.2349  0.1030  0.1953
 4830W        W23034   6.370   1.462   1.881 -0.2308 -0.0275 -0.0815
 4831W        W23035  15.407   0.973  16.943 -0.0602 -0.1302 -0.0900
 4832W        W23036  14.494  10.723   5.298  0.1508  0.2787 -0.0574
 4833W        W23037   0.040   4.919   2.549  0.1084  0.2628 -0.0740
 4834W        W23038  15.263   0.035   4.898  0.0665  0.1002 -0.0012
 4835W        W23039  14.938  12.932  13.678 -0.0378  0.3250 -0.1403
 4836W        W23040  14.268   5.469   1.926 -0.1086 -0.3344 -0.0852
 4837W        W23041   0.029   4.899   4.794  0.0035 -0.1636 -0.0341
 4838W        W23042  15.055  14.949   3.402 -0.0156  0.2862 -0.1860
 4839W        W23043  11.330  12.391   3.388  0.2424  0.1072 -0.0177
 4840W        W23044  12.803   4.229   1.271  0.2430 -0.0717 -0.1149
 4841W        W23045   3.489  13.360  12.870  0.0428  0.2153  0.0100
 4842W        W23046   6.087  13.460  15.131 -0.0586 -0.0693 -0.0795
 4843W        W23047  16.394  15.451   2.343 -0.0260 -0.1180 -0.0454
 4844W        W23048   3.883  15.029   0.421 -0.0866 -0.0611  0.0942
 4845W        W23049   7.858   6.186   0.599 -0.0718 -0.0199  0.0306
 4846W        W23050   4.814   3.137  17.053  0.1155  0.1428 -0.0514
 4847W        W23051  10.070   6.566   5.452 -0.1026  0.1669  0.2190
 4848W        W23052   3.129  10.890  14.040 -0.0186  0.0961 -0.0543
 4849W        W23053  16.283  10.093   3.025  0.0863  0.1772 -0.6290
 4850W        W23054   2.507   5.834   0.036  0.0668 -0.2675  0.0097
 4851W        W23055  12.707   8.371   1.352 -0.1204 -0.0887  0.1810
 4852W        W23056  13.683  11.006  16.276 -0.0258 -0.1947  0.0374
 4853W        W23057   5.343   6.166   4.470 -0.1829  0.1981 -0.4848
 4854W        W23058   6.265   1.007   0.863 -0.2296  0.0756 -0.0862
 4855W        W23059   0.312  10.370  16.668  0.0147  0.1641  0.2123
 4856W        W23060  15.932   3.071  11.615 -0.5186  0.2487  0.0823
 4857W        W23061  16.652   6.894  13.980 -0.0255 -0.0063  0.2706
 4858W        W23062  12.163  13.791   1.835  0.1601 -0.0368 -0.0629
 4859W        W23063  11.732   4.339   5.673  0.0106 -0.0252  0.2970
 4860W        W23064   9.039   7.868  16.737  0.0220 -0.4199  0.4097
 4861W        W23065   4.989   9.634  14.410  0.2817  0.0709 -0.0979
 4862W        W23066   6.425   4.892   2.271  0.2158 -0.1520  0.2161
 4863W        W23067   7.420   4.222   5.665  0.1507 -0.0645 -0.1091
 4864W        W23068   5.774   8.647  15.700  0.3975  0.2272  0.1152
 4865W        W23069   7.884   3.881  15.420 -0.2255 -0.1627 -0.2273
 4866W        W23070  13.866   6.779   4.977 -0.1304  0.0176  0.1604
 4867W        W23071  12.236  11.231   5.390  0.2966  0.1364  0.1600
 4868W        W23072  10.664   0.314   4.499 -0.1181  0.0562  0.1865
 4869W        W23073   9.518   6.770  14.783 -0.2172  0.1383  0.1603
 4870W        W23074   0.598  11.856   4.970 -0.3532  0.0415 -0.2281
 4871W        W23075   6.690   0.633  15.429  0.0571 -0.0855  0.1157
 4872W        W23076  12.380  13.433  16.078  0.1422  0.0276  0.1596
 4873W        W23077  17.298   5.642  13.340  0.0119  0.1001  0.0576
 4874W        W23078  10.466   9.457  13.040 -0.0852  0.1079 -0.0666
 4875W        W23079   7.653  16.606  15.176 -0.2030 -0.1514  0.1370
 4876W        W23080   2.456  12.327  12.665  0.2438 -0.1281 -0.1160
 4877W        W23081   0.911   3.617  16.428 -0.1328  0.0859 -0.0215
 4878W        W23082  14.668  10.585  14.929  0.2311 -0.1412 -0.0427
 4879W        W23083   9.071   9.017   3.583 -0.0568  0.3603  0.0037
 4880W        W23084  16.512  10.575   4.757 -0.0870 -0.2831 -0.0008
 4881W        W23085  14.433   1.224  15.795 -0.0430  0.2588 -0.3454
 4882W        W23086   8.393   7.187  15.003  0.0639 -0.1263  0.2384
 4883W        W23087   3.529   4.798   1.378 -0.3101 -0.0282 -0.1276
 4884W        W23088   0.471   8.303   0.186 -0.0652 -0.1776  0.2832
 4885W        W23089   6.436   4.395  16.209 -0.0511  0.0436 -0.1456
 4886W        W23090  10.592  12.592   4.208 -0.0584  0.0261  0.1302
 4887W        W23091  15.152  12.111  16.863 -0.0217 -0.0599  0.0753
 4888W        W23092  14.058   1.469  12.955 -0.0135  0.0891 -0.1280
 4889W        W23093   9.017  16.331   3.365 -0.1962 -0.0471  0.3770
 4890W        W23094   8.797  12.448  14.177  0.5074  0.1808  0.3215
 4891W        W23095   8.043   8.140   5.467 -0.4269  0.1757 -0.0595
 4892W        W23096   8.442  10.725   4.291 -0.2823  0.1164 -0.0715
 4893W        W23097  15.257   3.057  14.226 -0.2102  0.2189  0.0238
 4894W        W23098  11.536  16.388  17.494  0.2703  0.1578  0.1023
 4895W        W23099   1.125  16.149  12.900  0.1876  0.0570  0.1869
 4896W        W23100  11.054  16.517   2.232  0.1199  0.3207  0.0400
 4897W        W23101  12.530  12.207  13.409 -0.1453 -0.0308 -0.0552
 4898W        W23102  13.343   2.987   1.971  0.0551  0.1498 -0.0988
 4899W        W23103  13.178  11.878  12.501 -0.0200 -0.0264  0.2336
 4900W        W23104  15.433   3.607  17.141 -0.3477 -0.0554  0.2986
 4901W        W23105   0.009   5.644  13.870 -0.0339  0.1045  0.2171
 4902W        W23106   7.890   9.110   2.995 -0.4067  0.1586 -0.0489
 4903W        W23107  11.490   8.709   4.191 -0.2176 -0.1097  0.1069
 4904W        W23108   8.988  13.107  11.566 -0.1691  0.3925 -0.0279
 4905W        W23109  15.214  17.053   1.032 -0.2432  0.1109  0.2772
 4906W        W23110   0.857  12.886   2.819 -0.2978 -0.1475  0.0769
 4907W        W23111   5.977   2.885   0.149  0.0321 -0.3684  0.1822
 4908W        W23112   9.376   8.291   4.142  0.2892 -0.1449 -0.0043
 4909W        W23113  12.372   0.235  14.145 -0.0046 -0.0426  0.0327
 4910W        W23114  16.348   2.388   5.277 -0.0586 -0.0915 -0.3571
 4911W        W23115  15.539   2.076  15.120  0.0709 -0.0823  0.1058
 4912W        W23116   9.556  16.730   4.734 -0.0787 -0.0862  0.1963
 4913W        W23117   7.291  12.324   2.319 -0.2741  0.2741 -0.0724
 4914W        W23118   2.028  16.861  14.631 -0.2775  0.0731 -0.1460
 4915W        W23119   8.777   7.469   1.773  0.0953  0.1348  0.0085
 4916W        W23120  11.993   1.216  17.153  0.0439 -0.0992 -0.0003
 4917W        W23121   2.280  10.238   3.726 -0.1468  0.2901 -0.0470
 4918W        W23122  16.931   2.792  16.781  0.4292  0.4207 -0.2780
 4919W        W23123  16.462  12.022   5.306  0.0291  0.2534  0.0629
 4920W        W23124  13.115   1.377  11.974 -0.2680 -0.2280 -0.1493
 4921W        W23125   5.344   6.642   0.459 -0.2127  0.4052  0.1064
 4922W        W23126   3.027   1.937  14.803 -0.1384 -0.1549  0.1629
 4923W        W23127  13.471   1.728  11.144 -0.1174  0.1023 -0.0926
 4924W        W23128   3.039  14.159   1.498  0.0122 -0.1590 -0.2329
 4925W        W23129   8.962   9.687   4.423 -0.3015 -0.1749  0.1161
 4926W        W23130   4.639   3.494  15.705 -0.0687 -0.2530  0.1517
 4927W        W23131   1.766  11.717  15.426  0.0631  0.0810 -0.1186
 4928W        W23132   8.478   9.912  17.240  0.0661  0.0885 -0.1074
 4929W        W23133  13.625   2.951   0.691 -0.4146 -0.4989  0.2180
 4930W        W23134  11.787   1.215  12.877  0.1426  0.3768 -0.1336
 4931W        W23135   7.633   7.705  12.007  0.1163  0.2034 -0.2214
 4932W        W23136   8.316  13.421  14.124  0.1717  0.4471 -0.2036
 4933W        W23137   6.522   8.113   3.627 -0.2227  0.5329  0.0540
 4934W        W23138  17.305   7.123   5.009 -0.3068 -0.1948  0.0682
 4935W        W23139   6.328  13.922  16.739 -0.4005  0.2514 -0.1307
 4936W        W23140  15.279   7.975  15.030 -0.2380  0.1701 -0.2715
 4937W        W23141   5.426  10.602   1.332  0.1057  0.2135  0.0898
 4938W        W23142   5.043   2.625   0.289  0.1003 -0.3293  0.0760
 4939W        W23143  13.873  15.805  15.764 -0.0991  0.1526 -0.1708
 4940W        W23144   9.667  15.876   0.348 -0.1541 -0.0906  0.4162
 4941W        W23145  13.645   4.817   0.838 -0.2125  0.1711  0.0713
 4942W        W23146   2.733   2.070   0.920  0.2173  0.1200 -0.0232
 4943W        W23147  14.832   4.067   3.054 -0.0568  0.0163 -0.1597
 4944W        W23148   0.226   2.500  16.155 -0.2533  0.0633 -0.1862
 4945W        W23149   1.855  17.029   4.835 -0.0673  0.2014 -0.2947
 4946W        W23150  12.715   8.564  15.144  0.2414 -0.1238  0.0841
 4947W        W23151  15.905   5.738  16.295  0.2141  0.3458  0.1628
 4948W        W23152   9.109  12.720  15.814  0.0341 -0.1955 -0.2852
 4949W        W23153   2.569   4.698  12.441 -0.0192 -0.0363 -0.2729
 4950W        W23154   9.042   4.534   2.782 -0.0829  0.2238  0.5028
 4951W        W23155  12.639  17.194  15.607  0.0929  0.2715 -0.0811
 4952W        W23156   8.937   1.878  16.440  0.0917 -0.1428 -0.1321
 4953W        W23157  10.911   9.729  12.901  0.0296 -0.1988 -0.1293
 4954W        W23158   4.561   2.939  17.452 -0.1365  0.1700 -0.6794
 4955W        W23159  10.621   5.151  12.148 -0.1613  0.0483  0.4773
 4956W        W23160  10.552   1.666   2.202  0.1252 -0.1323  0.1060
 4957W        W23161   8.940   3.522   3.076  0.0020 -0.2233  0.0653
 4958W        W23162   7.095   6.833   4.759  0.2876 -0.1342 -0.1218
 4959W        W23163   9.359  12.295  12.058  0.0890  0.1138 -0.0163
 4960W        W23164   9.612  14.114  14.230 -0.3159  0.2642  0.1925
 4961W        W23165   8.613  15.524   1.229 -0.2853  0.0339 -0.0494
 4962W        W23166  14.501  10.190   2.762  0.1152 -0.1702 -0.1732
 4963W        W23167   7.029  14.388  16.118  0.0659  0.3053 -0.0305
 4964W        W23168   5.909  13.352   3.972 -0.0032 -0.2531 -0.1942
 4965W        W23169   6.490   6.211   2.341 -0.0362  0.0197  0.0706
 4966W        W23170  14.312  14.382  13.408  0.3310  0.3791  0.2655
 4967W        W23171  13.975   2.395  14.750 -0.1844  0.1277 -0.0783
 4968W        W23172   3.772   7.759  16.922  0.0638  0.1507  0.0983
 4969W        W23173  11.049  14.437  13.156 -0.1237 -0.3070 -0.0780
 4970W        W23174   8.398   2.584  15.284  0.0401  0.3394 -0.0761
 4971W        W23175  12.458   6.578   2.002 -0.0896  0.0701 -0.1705
 4972W        W23176   2.609  10.484   2.414 -0.4085 -0.1841  0.1035
 4973W        W23177  13.594  11.637   3.509 -0.0311  0.1736 -0.0017
 4974W        W23178   6.844   4.440   0.253 -0.0498  0.0273 -0.1694
 4975W        W23179   5.765   9.610   0.671  0.1321 -0.0267  0.0691
 4976W        W23180  14.883   9.096  15.382 -0.0570  0.3156 -0.1166
 4977W        W23181   1.011   7.592  14.752  0.0455  0.2494  0.2498
 4978W        W23182   4.030  11.920   5.716 -0.0257  0.1122 -0.2857
 4979W        W23183   5.734   5.054   0.933  0.2354  0.1351  0.0986
 4980W        W23184  13.986   7.049  14.230  0.1640 -0.0784 -0.2889
 4981W        W23185   2.579   3.166  14.456 -0.3533  0.3369 -0.0461
 4982W        W23186   1.952   8.051  11.233 -0.0344  0.1245 -0.1936
 4983W        W23187   2.845   6.929  15.829 -0.0010 -0.1812 -0.1734
 4984W        W23188  13.452   3.606   2.342 -0.1818  0.3026 -0.2559
 4985W        W23189   7.936   0.306  17.059  0.2753 -0.2817 -0.0927
 4986W        W23190  14.381   9.324   1.668  0.1546 -0.1444  0.1544
 4987W        W23191   9.967  11.750  14.565  0.1325 -0.2451 -0.2367
 4988W        W23192  16.459  10.956   5.901 -0.0640 -0.1021  0.0527
 4989W        W23193   0.239   2.104  12.663  0.0009  0.0692 -0.2050
 4990W        W23194  10.944   4.417   2.698  0.0079  0.0721 -0.0274
 4991W        W23195   6.393  14.013   1.334  0.1239  0.1275 -0.0779
 4992W        W23196   9.990   8.269   4.918  0.1411 -0.2083  0.1867
 4993W        W23197  13.144   9.710   5.208 -0.1926 -0.2528 -0.1104
 4994W        W23198   7.776   5.997  12.669  0.0214  0.2836 -0.0684
 4995W        W23199   4.835  13.009  15.754 -0.1300 -0.0778 -0.0777
 4996W        W23200   0.806   6.064   4.546 -0.3167  0.0601  0.2174
 4997W        W23201   1.256   0.339   2.159  0.3059  0.2264  0.0071
 4998W        W23202  12.247   9.759   2.117 -0.0107 -0.0051  0.0811
 4999W        W23203  16.064  10.420   1.722  0.1054 -0.1611 -0.1151
 5000W        W23204  16.338  12.704  14.682  0.4503  0.0224 -0.0370
 5001W        W23205  13.571   4.384  11.904  0.0341 -0.2170 -0.0676
 5002W        W23206   0.279   3.581  17.018  0.3006  0.1754  0.1010
 5003W        W23207   6.332  12.696   4.709 -0.1933  0.0872  0.0049
 5004W        W23208  17.313  14.321  16.188 -0.1301  0.0335 -0.3404
 5005W        W23209   9.143   0.898   3.574  0.1859 -0.3651  0.0148
 5006W        W23210  10.690  13.371   3.023 -0.2558  0.1227  0.4394
 5007W        W23211   7.597  14.633   1.069  0.2006 -0.0974 -0.0487
 5008W        W23212   4.879  10.020   0.161  0.2897  0.4291 -0.5004
 5009W        W23213   8.816   6.787   2.544  0.2669  0.1028 -0.2210
 5010W        W23214   9.281  11.067   1.949 -0.2048  0.1122  0.2207
 5011W        W23215  13.806   4.602  16.059 -0.1707 -0.1979 -0.2530
 5012W        W23216   8.690  13.255   4.581  0.1542  0.0170  0.0636
 5013W        W23217   7.019  10.686   0.128  0.2449  0.1932  0.0760
 5014W        W23218  15.169   8.147  15.948  0.1726 -0.1020  0.2332
 5015W        W23219   1.392   3.930   0.516 -0.2190  0.0594  0.0840
 5016W        W23220  15.338   6.029   0.494  0.0504  0.0614 -0.0280
 5017W        W23221  10.114   3.909   3.663  0.0335  0.2224 -0.1719
 5018W        W23222  11.451   1.243   5.281  0.0434  0.2140  0.2675
 5019W        W23223   9.387  12.051   4.807  0.0485 -0.2693 -0.0591
 5020W        W23224   7.259  14.392   2.733 -0.2169  0.1055 -0.3714
 5021W        W23225   4.185   3.735  15.998 -0.0476 -0.1471  0.1534
 5022W        W23226  11.513   9.958   2.939  0.0832  0.1336  0.0674
 5023W        W23227  10.915   8.829   2.920 -0.0802 -0.0243 -0.0076
 5024W        W23228  10.872  15.164   0.179 -0.0034 -0.0382  0.1191
 5025W        W23229   8.630  17.324   1.671  0.1597  0.0201  0.1725
 5026W        W23230  10.497  11.493  16.391  0.3426  0.1043  0.0100
 5027W        W23231   1.279   7.899  16.792  0.1578  0.1263 -0.3851
 5028W        W23232  12.480  15.077   1.148 -0.1530  0.1263 -0.0638
 5029W        W23233  13.232   1.303  14.517  0.0392 -0.3004 -0.3074
 5030W        W23234   2.636   9.948  15.427 -0.2025  0.1584  0.0602
 5031W        W23235   7.713  11.434   4.009  0.0269 -0.1607 -0.0323
 5032W        W23236   7.325  10.124  16.382 -0.0113 -0.1771 -0.0866
 5033W        W23237  11.826  16.133  15.470 -0.0284 -0.1362 -0.4087
 5034W        W23238   1.663  15.376  17.099 -0.0312 -0.1334  0.0552
 5035W        W23239   8.100  13.052   0.438 -0.1287  0.0600  0.1260
 5036W        W23240   4.076  10.422  16.610  0.2027  0.0768 -0.3687
 5037W        W23241  14.846   2.636   4.094 -0.0751  0.2892 -0.1165
 5038W        W23242   4.634   8.018   4.360 -0.3032 -0.0569  0.2431
 5039W        W23243   0.975   0.200   2.543 -0.1859 -0.1032  0.0473
 5040W        W23244  16.209   8.099  14.502  0.2316  0.2773  0.0388
 5041W        W23245  10.690   3.019   5.169  0.1798 -0.0703 -0.0292
 5042W        W23246   3.174   1.814  15.599  0.0165  0.2403 -0.1609
 5043W        W23247  11.080   5.736   2.295 -0.1368  0.3160 -0.1226
 5044W        W23248   7.348  15.425   0.477 -0.1410 -0.0305  0.1071
 5045W        W23249  14.868   3.018  13.888  0.0581  0.2572 -0.1894
 5046W        W23250   2.911   3.038  14.074  0.2216 -0.0265 -0.1464
 5047W        W23251  12.644   1.140  12.311  0.0536  0.2288 -0.1672
 5048W        W23252  13.975  11.756   5.378  0.0996 -0.1307 -0.1662
 5049W        W23253  17.034   9.841  12.681  0.2113  0.0310 -0.0178
 5050W        W23254   5.473   4.902   1.837  0.1717 -0.3739 -0.4242
 5051W        W23255   1.616   5.706  15.655  0.0409 -0.0789  0.1381
 5052W        W23256   9.426   5.726   5.129  0.0684  0.0075 -0.0433
 5053W        W23257  13.482   2.039  12.871 -0.1168  0.0292  0.1061
 5054W        W23258  11.988   6.522  11.633 -0.0080 -0.1232 -0.0855
 5055W        W23259   3.410   7.425  12.526  0.0912 -0.0384 -0.4377
 5056W        W23260   1.051   9.204  13.648 -0.0029 -0.0635  0.0646
 5057W        W23261  16.064   9.188  14.541  0.2659 -0.1845 -0.3295
 5058W        W23262   8.092   7.776  12.868 -0.0116  0.0037  0.1287
 5059W        W23263   9.641  10.514   2.747  0.0016  0.1805  0.0573
 5060W        W23264  10.927  16.900  12.409 -0.3853  0.3275 -0.0148
 5061W        W23265   2.116  12.790  16.376  0.1015 -0.0849 -0.1721
 5062W        W23266   4.128   9.265   1.751 -0.1881  0.0677 -0.0025
 5063W        W23267   7.316   1.200   4.350 -0.3643 -0.1057  0.0475
 5064W        W23268  14.619   7.986  13.633 -0.0965  0.1376  0.1548
 5065W        W23269  11.109  15.057  13.218 -0.0656  0.1421 -0.3810
 5066W        W23270  13.542   1.273  12.343  0.3641  0.0699  0.1933
 5067W        W23271   2.319  14.018   3.456  0.1560  0.0112 -0.2314
 5068W        W23272  13.327  11.590   5.089 -0.1717 -0.3021  0.0933
 5069W        W23273   7.738  13.915   2.493 -0.0994 -0.0142  0.1229
 5070W        W23274  11.241   4.314   3.653 -0.3851 -0.0789  0.0433
 5071W        W23275   1.087  12.595  14.950  0.1191  0.1476 -0.0882
 5072W        W23276   3.996  14.485  13.608  0.0760 -0.1779 -0.0274
 5073W        W23277   4.084   2.192   0.187  0.1015 -0.2154 -0.0398
 5074W        W23278  13.112   0.724   2.161  0.3559 -0.4309  0.2389
 5075W        W23279   2.803  11.245   2.096  0.0747 -0.2300  0.0385
 5076W        W23280   3.346   2.180   5.067 -0.0693  0.2197  0.0628
 5077W        W23281  13.122   2.042  13.269 -0.1857  0.2023 -0.1823
 5078W        W23282   4.020  16.166  13.753 -0.0453 -0.0635 -0.1333
 5079W        W23283  11.318  13.088  16.073  0.1038 -0.1498  0.1171
 5080W        W23284   8.517  15.798   3.189 -0.0378  0.1873 -0.1915
 5081W        W23285   4.576   6.358   2.222  0.2581  0.2985 -0.1607
 5082W        W23286   3.987   8.787   4.155  0.4185 -0.0609 -0.0677
 5083W        W23287   8.504   7.518   5.806 -0.1572 -0.0604 -0.0049
 5084W        W23288   9.822   6.808   3.970 -0.2786 -0.1065  0.1460
 5085W        W23289   3.303   1.681   2.076 -0.0904 -0.4564 -0.2818
 5086W        W23290  11.995  11.280   1.050  0.1648  0.0760  0.0477
 5087W        W23291   7.663  12.796   1.196 -0.0522  0.1221 -0.3386
 5088W        W23292   1.646   2.725  13.235 -0.1939 -0.1797 -0.0231
 5089W        W23293   7.642   8.751   5.312 -0.2278 -0.3826 -0.0571
 5090W        W23294  17.324   0.761  13.106  0.2268  0.0823 -0.5339
 5091W        W23295   8.618  16.664  15.257  0.0401 -0.0387  0.2197
 5092W        W23296   2.139   5.291  17.193 -0.1437 -0.3072  0.0334
 5093W        W23297  15.984   5.873  17.161 -0.0292  0.0332  0.0104
 5094W        W23298  15.462  11.272  12.448 -0.1133  0.0426  0.0595
 5095W        W23299   4.832  15.715  17.157  0.0803  0.1323 -0.0905
 5096W        W23300   9.554   9.017   3.396 -0.0885  0.0698 -0.0711
 5097W        W23301   9.952   2.366   4.740  0.0754  0.3623  0.1065
 5098W        W23302  11.597   5.922  13.398 -0.2788  0.2693  0.1734
 5099W        W23303  14.923   0.615   3.080  0.0484 -0.0508  0.0347
 5100W        W23304   4.060   0.363   4.199 -0.0041 -0.2958  0.0687
 5101W        W23305  10.438   6.286   5.099  0.0049 -0.1770  0.2205
 5102W        W23306  17.186   4.104   2.192  0.2477  0.2507 -0.0090
 5103W        W23307  11.391  17.117   1.644  0.1405 -0.1847 -0.0884
 5104W        W23308   8.147   5.758   4.313 -0.1314  0.1607 -0.1933
 5105W        W23309  10.663  10.088  13.769 -0.1072 -0.1292  0.0359
 5106W        W23310  14.793  10.245   4.083 -0.4313 -0.1657  0.1046
 5107W        W23311   7.654   3.730   3.916 -0.0471  0.0496  0.0571
 5108W        W23312  13.698  13.277  15.498  0.0608  0.0274 -0.0812
 5109W        W23313  14.372   7.391   3.900 -0.0115  0.0151  0.0882
 5110W        W23314   5.738   4.818  13.447  0.1265  0.1023  0.0413
 5111W        W23315  16.404  11.108  13.950  0.1196  0.1496  0.1052
 5112W        W23316   7.045   7.765  16.589  0.0392  0.0502  0.3624
 5113W        W23317  10.143   7.500  15.236  0.0074  0.1284 -0.0445
 5114W        W23318   7.901   2.414  14.401  0.0230  0.2461 -0.2964
 5115W        W23319   9.455  11.728  13.656 -0.0370 -0.0507  0.1038
 5116W        W23320   4.518  13.717   2.313  0.0051 -0.2198 -0.0267
 5117W        W23321  12.301   4.051   5.814  0.0550  0.0344 -0.0262
 5118W        W23322  14.900   2.148  14.525  0.0515  0.1432 -0.0395
 5119W        W23323   6.597   5.113   3.563  0.2333 -0.1314 -0.1743
 5120W        W23324  11.013   9.433   2.186 -0.0495  0.2304  0.3089
 5121W        W23325  17.319  14.161   4.874  0.1224 -0.0039 -0.0779
 5122W        W23326  10.826  14.741   0.529  0.0318 -0.2422  0.0818
 5123W        W23327  11.860   8.218   1.635  0.0771 -0.0961 -0.0320
 5124W        W23328   4.361  16.757  13.381  0.0600 -0.0171 -0.1837
 5125W        W23329  13.965   2.749  12.467  0.0712 -0.3110  0.0089
 5126W        W23330   8.336   2.645  15.995  0.0176  0.1092 -0.0449
 5127W        W23331   2.580  13.049  13.796  0.1304 -0.0171 -0.0081
 5128W        W23332  10.866   7.765  15.877  0.0276 -0.3132  0.1158
 5129W        W23333   8.869   8.103   2.505  0.0642 -0.1076  0.3822
 5130W        W23334  10.278   3.766   3.177  0.3555  0.3936  0.1145
 5131W        W23335   0.632   3.637   4.585 -0.0794 -0.1183 -0.1096
 5132W        W23336   2.602   0.922   0.409  0.0605  0.1395 -0.0648
 5133W        W23337  12.524   7.677  16.670  0.1616  0.0776 -0.0668
 5134W        W23338  11.662   4.992  12.382  0.2610  0.1636  0.0248
 5135W        W23339   4.430  13.137  15.273  0.2213 -0.1230  0.3017
 5136W        W23340  13.378  17.247  12.168  0.3299 -0.0199  0.0155
 5137W        W23341  12.280   9.835  15.471  0.1133  0.0863 -0.0280
 5138W        W23342  14.250   9.578   4.363 -0.0275  0.3393  0.2178
 5139W        W23343  16.085   5.542  14.372 -0.2640  0.0988 -0.0888
 5140W        W23344  10.020   6.255  17.104 -0.2918  0.0387 -0.2653
 5141W        W23345   7.175  16.931  14.035 -0.1266  0.0367  0.0784
 5142W        W23346  10.610   2.005   3.559 -0.2559  0.0993  0.4500
 5143W        W23347   0.624   6.307  13.642  0.0591  0.0405  0.0867
 5144W        W23348   3.918   6.076   4.040  0.0913 -0.0226  0.1430
 5145W        W23349  12.919   6.237  16.114 -0.3642 -0.1647 -0.0484
 5146W        W23350  11.102   0.389  12.647 -0.0793  0.2925 -0.0341
 5147W        W23351   6.871  16.670   3.103 -0.0444  0.2531 -0.3175
 5148W        W23352  15.427   6.377   4.559  0.2544  0.2513  0.2903
 5149W        W23353   1.644  11.947  16.616  0.2805 -0.1943  0.1942
 5150W        W23354   9.699   9.083  13.484  0.0751 -0.1064 -0.0067
 5151W        W23355  16.711  16.183  12.192 -0.3793  0.1342  0.1304
 5152W        W23356   3.950  11.778  12.787 -0.2792  0.1294  0.3271
 5153W        W23357  11.025   4.856  15.419 -0.2437  0.0725  0.0937
 5154W        W23358  10.295   1.864  13.152 -0.2290 -0.2129 -0.0616
 5155W        W23359   8.767   0.543   2.415 -0.1360 -0.1827  0.3109
 5156W        W23360   9.010   8.353   5.284 -0.2325 -0.1909 -0.2580
 5157W        W23361  12.640  17.235   1.118 -0.1112 -0.1225 -0.1255
 5158W        W23362  15.173   5.260  14.721 -0.1677 -0.0537 -0.0574
 5159W        W23363   8.175  16.916   4.484  0.1263 -0.1751  0.0846
 5160W        W23364   6.460  10.788   1.062  0.2907  0.0551 -0.1835
 5161W        W23365  11.139  15.154   6.334  0.0937 -0.0537  0.1431
 5162W        W23366  16.989  17.031   0.677  0.0540  0.0565 -0.2680
 5163W        W23367   4.726   3.878  16.560 -0.0318 -0.0631 -0.2700
 5164W        W23368  14.921   9.994  14.819  0.0345 -0.1071  0.1762
 5165W        W23369  11.049  11.723   2.306  0.2110  0.1772  0.1280
 5166W        W23370   3.037   0.968   2.201 -0.0288 -0.1921  0.0733
 5167W        W23371   8.007  14.757  14.533 -0.0323 -0.3469  0.3695
 5168W        W23372  10.046   0.218   4.074 -0.1421 -0.2962  0.1316
 5169W        W23373   0.668  11.363  12.878  0.0870 -0.0997  0.2474
 5170W        W23374   5.350   2.948  16.286  0.1127 -0.2041  0.1496
 5171W        W23375   1.167  12.219   0.143 -0.4286  0.0123 -0.0973
 5172W        W23376  14.546   2.435   3.484  0.2095  0.0069  0.2330
 5173W        W23377  13.147   3.890   5.742 -0.1015 -0.0780  0.2254
 5174W        W23378   0.692  11.759   2.150 -0.0247  0.0726 -0.0837
 5175W        W23379  13.652   5.306  15.969  0.1627 -0.0977 -0.0770
 5176W        W23380  12.669   5.957   4.690 -0.1779 -0.0317 -0.1362
 5177W        W23381   8.366  16.434   4.462  0.0063 -0.1105 -0.0602
 5178W        W23382  15.259  16.323   4.778  0.1110  0.2911  0.0506
 5179W        W23383   1.968   0.110  12.600 -0.0203 -0.0367  0.1347
 5180W        W23384  15.567   5.950   3.615 -0.0609  0.0789 -0.0140
 5181W        W23385  14.280  14.518  16.719  0.1261  0.0889  0.3255
 5182W        W23386  14.196   6.281  17.333  0.0132 -0.4576 -0.2855
 5183W        W23387   2.242  13.230   1.800 -0.0983 -0.1791 -0.2443
 5184W        W23388   4.810  17.081  13.361  0.1804  0.0462 -0.1174
 5185W        W23389  10.903   8.866  15.704 -0.1390 -0.0552 -0.1643
 5186W        W23390   9.638  11.541   0.782 -0.2540  0.1534 -0.0203
 5187W        W23391  10.227  14.903   3.921  0.1107 -0.3591  0.0528
 5188W        W23392  14.037   0.027  17.512  0.0927 -0.2324  0.1894
 5189W        W23393  11.224   1.746  17.465 -0.2026 -0.2615  0.2925
 5190W        W23394  15.609   4.105  16.998  0.1456  0.0354  0.0667
 5191W        W23395  12.559   5.038   5.714  0.1778  0.1120  0.0073
 5192W        W23396   5.968   7.079  13.469 -0.0492 -0.0571  0.0132
 5193W        W23397   7.610  10.877   1.795  0.2244 -0.1386  0.1417
 5194W        W23398  14.224  10.912  17.233  0.3045  0.1680 -0.0237
 5195W        W23399  13.127   4.389  12.179  0.2273 -0.0703 -0.0832
 5196W        W23400  14.025  15.496   3.054 -0.3241  0.0910  0.0008
 5197W        W23401   5.906   0.218  15.790  0.0581  0.0619 -0.0306
 5198W        W23402   5.569  16.262  13.709 -0.2456  0.0047 -0.1706
 5199W        W23403  11.425   1.950  15.309  0.0980 -0.0441  0.1600
 5200W        W23404   8.851  16.354  13.040  0.1792 -0.0046  0.1233
 5201W        W23405   0.203  14.756  13.123 -0.1709  0.2160 -0.1748
 5202W        W23406   2.493  12.797   5.281  0.1040  0.0793  0.0441
 5203W        W23407  15.787   6.280  16.341 -0.0229 -0.0589  0.3525
 5204W        W23408   2.868  14.541  16.455 -0.3069  0.0987  0.0049
 5205W        W23409   5.987   8.388   0.295  0.0740  0.2182 -0.0649
 5206W        W23410  12.004   3.572  13.740  0.0114  0.1601  0.0511
 5207W        W23411  15.387   0.149  14.869  0.2040  0.0526  0.2036
 5208W        W23412  11.401   0.226   0.327  0.3039  0.0963 -0.2224
 5209W        W23413   6.372  14.343  16.345  0.2503 -0.2153  0.1866
 5210W        W23414  12.681   8.676  17.188  0.1563  0.2621  0.2398
 5211W        W23415  11.607   6.432   5.375 -0.1549 -0.4254  0.1111
 5212W        W23416   2.473  13.912  13.529 -0.0055  0.1589 -0.2851
 5213W        W23417   7.435   5.921   1.774 -0.2736 -0.1097 -0.0989
 5214W        W23418  14.963   3.675   1.635  0.0970  0.4717 -0.1293
 5215W        W23419  10.689  10.657   2.407  0.0092  0.3736 -0.1233
 5216W        W23420  14.613   6.827   1.074 -0.2263 -0.0322 -0.0441
 5217W        W23421   2.640  13.083   2.284  0.0319 -0.1055 -0.0697
 5218W        W23422   8.667   9.306  17.148  0.0343  0.1649  0.3204
 5219W        W23423   9.938   0.065  12.043  0.2583  0.2570 -0.0029
 5220W        W23424  10.136  10.356   5.049  0.0555 -0.1922 -0.1489
 5221W        W23425  17.117  13.329   3.633  0.3094 -0.0255 -0.0350
 5222W        W23426   6.230   4.986  13.269 -0.0437 -0.0902 -0.1237
 5223W        W23427  16.830   6.833  15.117  0.3012 -0.0656  0.0719
 5224W        W23428  12.428   4.592   6.120  0.0870 -0.0438  0.0877
 5225W        W23429   2.091   6.484   1.640 -0.0213 -0.1348  0.0115
 5226W        W23430   6.346   3.719   3.095  0.0306 -0.0544  0.1357
 5227W        W23431  16.248  16.884  12.287 -0.1000 -0.0569 -0.1363
 5228W        W23432   7.879  10.621  14.677  0.3206 -0.0027  0.2578
 5229W        W23433  12.261  15.220  15.889 -0.1580  0.0758 -0.1380
 5230W        W23434  16.392  11.855   2.152  0.2904  0.2156  0.1492
 5231W        W23435  10.277  16.464  13.930 -0.0833  0.0276  0.1380
 5232W        W23436   6.170   8.060   0.640  0.1340  0.2120  0.1167
 5233W        W23437   8.403  12.988   2.907 -0.2943  0.0005  0.0116
 5234W        W23438   0.901  14.152  12.720  0.0856  0.0293 -0.0400
 5235W        W23439  15.985   2.537   0.346  0.0403 -0.0127  0.1189
 5236W        W23440  15.772   2.444   3.925  0.4658 -0.0526 -0.4608
 5237W        W23441  10.126   2.937  13.637 -0.0430 -0.0317 -0.3221
 5238W        W23442  16.643   4.833   0.369 -0.1528 -0.0889  0.2649
 5239W        W23443   5.118   9.872  12.776 -0.0871 -0.2270  0.0533
 5240W        W23444  16.891   3.785   3.958 -0.1170 -0.3011  0.1765
 5241W        W23445   7.451  10.010   2.717  0.0135  0.2247 -0.0444
 5242W        W23446  13.432   5.443  13.798 -0.0171  0.4338 -0.1914
 5243W        W23447   0.711   2.540  16.002  0.1492  0.0502 -0.3492
 5244W        W23448  10.258  15.805   5.578  0.3220  0.4100  0.0835
 5245W        W23449   2.108   3.662  13.374 -0.1641  0.2255 -0.1401
 5246W        W23450  16.214   8.449   2.351 -0.0502 -0.0213 -0.0023
 5247W        W23451  12.799  16.500   5.411  0.0163  0.1239  0.0785
 5248W        W23452   4.260   5.123   5.318  0.4478 -0.1863  0.0253
 5249W        W23453  10.433  10.716   5.373  0.1818  0.1122  0.0830
 5250W        W23454   0.476   6.963  17.125 -0.0028  0.0955  0.0728
 5251W        W23455   5.008   5.685   1.224 -0.0660 -0.0114  0.0085
 5252W        W23456  16.926  11.350   1.306  0.0897 -0.0284 -0.0017
 5253W        W23457  15.784  11.913  14.805  0.5075 -0.2022  0.1352
 5254W        W23458  15.573   4.929   2.768  0.0948 -0.0910 -0.2373
 5255W        W23459  12.255   0.889   5.065 -0.1663 -0.1888  0.1313
 5256W        W23460   7.988   6.761   1.328  0.3467  0.0524 -0.0155
 5257W        W23461   2.046  13.595  15.148 -0.0031  0.0788 -0.2133
 5258W        W23462   1.644  13.889  15.465 -0.1779  0.1182  0.2735
 5259W        W23463  10.441  11.512   3.115 -0.1727  0.0034 -0.1916
 5260W        W23464   7.049  10.407  13.024  0.0178  0.0679 -0.0388
 5261W        W23465   8.402  15.716  13.216  0.1163 -0.0196  0.4137
 5262W        W23466   1.480  16.783   3.139 -0.1092  0.0409  0.1137
 5263W        W23467   8.578   9.569   3.181 -0.0225  0.0409  0.0850
 5264W        W23468   9.686   7.150  11.964  0.0911 -0.0846  0.0765
 5265W        W23469   2.390   8.525   4.288 -0.3826 -0.0332 -0.1915
 5266W        W23470   0.059   7.801   2.275  0.2614  0.2726 -0.2238
 5267W        W23471  12.972   2.282  12.052  0.1521 -0.1024 -0.0432
 5268W        W23472   1.833   0.286  13.056  0.0439  0.2432  0.0021
 5269W        W23473   2.933  17.335  12.567 -0.1973  0.1525 -0.1281
 5270W        W23474  10.300  10.654  12.940 -0.0258 -0.2602 -0.0398
 5271W        W23475  13.524  12.829  12.864 -0.0317  0.1784 -0.1163
 5272W        W23476   4.818  10.456  17.282  0.1082 -0.2415 -0.1249
 5273W        W23477   8.787   5.782   5.180 -0.0510 -0.0256 -0.0740
 5274W        W23478  13.104   6.690   1.502 -0.0658  0.1433 -0.0462
 5275W        W23479  11.182  12.216   1.140 -0.2369 -0.0026  0.0440
 5276W        W23480  14.335   7.981  15.829 -0.0111 -0.0585  0.2812
 5277W        W23481   0.081   0.443  14.412  0.0375 -0.0789 -0.0703
 5278W        W23482  10.474   2.612  12.984  0.0001  0.0790 -0.4014
 5279W        W23483  14.576   9.370  13.775  0.1758  0.2828  0.0363
 5280W        W23484   3.846   5.667  15.198 -0.2377 -0.5420  0.1581
 5281W        W23485   6.342  13.232  13.181 -0.0843  0.0251 -0.1030
 5282W        W23486  16.350   2.167   3.895  0.1090 -0.5241  0.1735
 5283W        W23487  15.082  14.665  17.458  0.0756  0.1269  0.0292
 5284W        W23488  10.451   1.949  15.044  0.1389  0.0945  0.0947
 5285W        W23489  14.333   5.865   5.427 -0.0024 -0.1675  0.2918
 5286W        W23490  12.969  14.110  14.385 -0.0787  0.2685  0.0228
 5287W        W23491   0.655  16.281  12.499  0.0410 -0.0499 -0.2918
 5288W        W23492  15.395  16.834  16.323 -0.0119  0.2853 -0.2114
 5289W        W23493  13.121   6.808  15.233 -0.0744  0.2132 -0.1370
 5290W        W23494   2.633   0.909  17.419  0.1010 -0.0280  0.2459
 5291W        W23495   1.340  14.095  13.061  0.3727 -0.1382 -0.2438
 5292W        W23496  16.355   3.980   4.800  0.1971  0.2849 -0.0471
 5293W        W23497   2.206   3.009   1.412  0.0294  0.0059  0.0883
 5294W        W23498  10.029  10.688  15.950 -0.3092 -0.0196 -0.0848
 5295W        W23499  17.077  11.490  15.612  0.2976  0.0552  0.2019
 5296W        W23500   5.746   7.988  16.246 -0.0429  0.3679 -0.2214
 5297W        W23501   5.768   2.014   1.655 -0.1043  0.0267  0.2956
 5298W        W23502  16.022  12.317  13.950  0.1322  0.1421  0.3351
 5299W        W23503   4.321  16.512   0.544 -0.1477  0.0634 -0.1886
 5300W        W23504   3.200   0.568   1.943 -0.1609 -0.2576  0.3214
 5301W        W23505   2.282  16.361  12.332  0.0668 -0.2017 -0.0767
 5302W        W23506   3.421   6.297  14.170 -0.0355 -0.1556 -0.0096
 5303W        W23507   1.227   2.416   0.638 -0.2479  0.1342 -0.0950
 5304W        W23508   6.866  11.645   2.189  0.0169  0.2333 -0.1168
 5305W        W23509   1.596  11.805  17.064  0.1440 -0.0136  0.1740
 5306W        W23510  12.342   6.044   2.688  0.0311 -0.0100 -0.0263
 5307W        W23511  14.315  15.217   0.732 -0.0761 -0.2221 -0.0650
 5308W        W23512   7.617   6.628  16.456 -0.0817  0.4035  0.1975
 5309W        W23513   0.289  17.204   1.948 -0.0213  0.0736  0.2968
 5310W        W23514   4.865   2.998  14.470  0.0632  0.2563  0.0812
 5311W        W23515  14.443  15.507   5.260  0.1859  0.0945 -0.1620
 5312W        W23516   0.833  11.057  16.722 -0.1659 -0.0521 -0.0395
 5313W        W23517   3.665  13.323  15.676 -0.1227  0.3679 -0.0914
 5314W        W23518  10.566   2.804   0.760 -0.0578 -0.1703  0.2410
 5315W        W23519   5.272  16.345   4.233  0.4048  0.1835  0.0965
 5316W        W23520   7.470   7.789   2.447 -0.0025 -0.0765  0.1920
 5317W        W23521   9.896   7.268  13.855  0.1300  0.0804  0.1360
 5318W        W23522   3.082  10.768   2.106  0.0675  0.0919 -0.1311
 5319W        W23523  10.398  10.600   3.398  0.0050  0.2109  0.0552
 5320W        W23524   8.111  10.728   5.112  0.0840  0.0051 -0.2067
 5321W        W23525   4.847  15.826  14.769 -0.1832  0.0364  0.1347
 5322W        W23526  16.146   9.051  15.188 -0.0031 -0.3002 -0.2337
 5323W        W23527  12.469   5.057  12.699  0.0167  0.0482 -0.5184
 5324W        W23528  10.039  14.764  15.814  0.1215  0.1878 -0.0945
 5325W        W23529   7.442  12.693  14.030 -0.1349  0.1293  0.0582
 5326W        W23530  12.748   4.284  12.635 -0.0702 -0.3452 -0.1660
 5327W        W23531   9.614   9.454  12.154 -0.1120  0.1922  0.1053
 5328W        W23532  15.885   0.980   2.429 -0.1408  0.3926  0.0273
 5329W        W23533   7.584  13.101  13.831 -0.0301 -0.1398 -0.0026
 5330W        W23534  12.373   2.587   0.127 -0.0176 -0.2515 -0.0496
 5331W        W23535  16.202   2.951  17.291 -0.2123 -0.0327 -0.0855
 5332W        W23536  10.095  11.909   3.188 -0.0806  0.2621 -0.0176
 5333W        W23537   1.722  10.155   5.027 -0.0882  0.0419  0.1873
 5334W        W23538   4.890  12.361   2.675 -0.2032 -0.1758 -0.1506
 5335W        W23539  12.385   1.311   0.472 -0.1865  0.0080 -0.0000
 5336W        W23540  12.560   5.208   0.201 -0.1072 -0.1491  0.1040
 5337W        W23541  12.227  12.542  17.183 -0.0367  0.4744  0.0010
 5338W        W23542   2.582   1.214  12.434  0.0509 -0.0393  0.2860
 5339W        W23543   5.718  12.466  15.048  0.0448 -0.2501  0.0514
 5340W        W23544  16.109   7.433   2.614 -0.0203  0.0537 -0.1372
 5341W        W23545   0.540   9.459   4.961  0.2275  0.2684  0.1458
 5342W        W23546   4.008  10.638   1.713 -0.2489 -0.0560  0.0919
 5343W        W23547   2.361   9.210   2.357  0.0548  0.0047 -0.1043
 5344W        W23548   3.219  14.622   5.016  0.1678  0.2057  0.0642
 5345W        W23549   1.618  10.516  13.981 -0.1789  0.3085 -0.1794
 5346W        W23550   9.746  13.495   0.977  0.0178  0.0748  0.0016
 5347W        W23551   3.658   6.122  13.400 -0.1063 -0.1230  0.1205
 5348W        W23552   4.506   5.239   1.454 -0.0289 -0.0130 -0.0567
 5349W        W23553   8.844   9.152   1.327 -0.2842 -0.3679  0.0844
 5350W        W23554  14.556   8.938   2.951 -0.1187  0.0112  0.0024
 5351W        W23555  14.090   6.572   0.314 -0.0185  0.3442 -0.0364
 5352W        W23556  12.035   5.301   1.486  0.3108 -0.0822 -0.0396
 5353W        W23557  17.235   7.522   1.834 -0.2368  0.1646 -0.1474
 5354W        W23558  15.261   2.226   1.255  0.3643  0.2356 -0.0104
 5355W        W23559   4.135   7.427   4.859  0.0660  0.1601  0.5271
 5356W        W23560   8.571   6.242   5.124 -0.2727 -0.0605 -0.0357
 5357W        W23561  12.300  15.445  12.371 -0.1907  0.1819  0.2799
 5358W        W23562  16.297   4.999  17.444 -0.3426 -0.2453 -0.3798
 5359W        W23563   8.316   4.445  14.321 -0.0241  0.0074 -0.0656
 5360W        W23564  16.127  12.655  16.190 -0.2378  0.3118 -0.1563
 5361W        W23565   1.403  12.542  12.536  0.0136 -0.2316 -0.1604
 5362W        W23566   2.250   8.907  17.061  0.2211  0.0654  0.0932
 5363W        W23567  12.719   4.314   2.802 -0.1967 -0.0205  0.1634
 5364W        W23568   8.482   3.872   3.850 -0.1263 -0.0953  0.1525
 5365W        W23569  10.052  13.719  17.518 -0.0356 -0.0546  0.1025
 5366W        W23570  10.074  12.861  15.614  0.3486 -0.1326 -0.1493
 5367W        W23571   6.502  16.377  13.663 -0.1847  0.0217  0.0021
 5368W        W23572  13.551   5.343   4.401  0.0504 -0.1998  0.0005
 5369W        W23573  13.997   6.651  13.363 -0.0291 -0.0822  0.3264
 5370W        W23574   2.235   1.097   2.879  0.2230  0.3111 -0.0095
 5371W        W23575   9.733  15.398  16.652  0.2158 -0.0368  0.1198
 5372W        W23576   7.931  13.131   0.914 -0.0349  0.0795  0.0068
 5373W        W23577  13.976   0.134  16.047 -0.2330  0.0490 -0.1482
 5374W        W23578  14.253   2.411   2.767 -0.2007  0.0945 -0.0401
 5375W        W23579   3.956  15.523  16.984  0.1261 -0.2096 -0.1079
 5376W        W23580  12.380   5.594   1.779  0.0584  0.0340 -0.2100
 5377W        W23581  13.366  15.300  12.296  0.2733  0.1762 -0.1719
 5378W        W23582   0.845   8.224  17.406  0.1034  0.0079 -0.1760
 5379W        W23583  13.645   6.846   0.682  0.0447  0.2471 -0.2637
 5380W        W23584   8.549   5.735   1.871 -0.0092  0.0087  0.1614
 5381W        W23585   2.040   5.842  16.260  0.1345 -0.1816  0.1479
 5382W        W23586  11.507  11.343  16.129  0.0720  0.0043  0.1078
 5383W        W23587  15.719   6.820  13.795  0.1757 -0.0882  0.3184
 5384W        W23588   0.678   9.620   2.034  0.1801 -0.1489 -0.3031
 5385W        W23589   2.636  12.004  16.966 -0.3352 -0.2863 -0.0610
 5386W        W23590   0.480   9.101  16.370 -0.1379 -0.0939  0.1314
 5387W        W23591   5.673  16.945  14.492  0.0469  0.0852  0.2554
 5388W        W23592   6.235  14.820   5.806 -0.2887  0.0131 -0.1439
 5389W        W23593   4.765  15.648  12.903 -0.0820 -0.0443 -0.2466
 5390W        W23594   8.622   9.997   1.436 -0.1685  0.0529 -0.1015
 5391W        W23595   7.830  10.249  15.661  0.3234 -0.2104 -0.2238
 5392W        W23596   1.630   1.203   1.884  0.1741 -0.1370 -0.1426
 5393W        W23597  14.778  15.314  13.361  0.1435 -0.1674  0.0363
 5394W        W23598   9.858   6.406  16.097 -0.0413 -0.1665  0.1208
 5395W        W23599   5.780  10.180   3.382  0.0888 -0.1328 -0.2022
 5396W        W23600   0.300   2.855   4.897  0.1638  0.2756 -0.1490
 5397W        W23601   8.255   1.395  12.891 -0.2404 -0.0709 -0.1142
 5398W        W23602   8.178  11.250  17.181 -0.0978  0.1384 -0.0401
 5399W        W23603  11.369   1.479   1.023  0.2685 -0.0515 -0.1195
 5400W        W23604   2.125  10.119  13.051 -0.0728 -0.1784 -0.3812
 5401W        W23605   9.266   3.503  14.213  0.1813  0.2330 -0.0873
 5402W        W23606   5.810  17.140   5.069  0.2945  0.1432 -0.3230
 5403W        W23607   1.415  15.583  15.932  0.0280 -0.1333  0.0102
 5404W        W23608   8.866   6.133   4.752  0.1929  0.0982  0.5586
 5405W        W23609   6.560  10.281  12.805  0.1450 -0.1380  0.1557
 5406W        W23610  15.522  13.147  13.189  0.1183  0.1053 -0.1784
 5407W        W23611  10.763   1.858  12.055 -0.1892  0.1214  0.2182
 5408W        W23612   4.533   9.348  13.144  0.0594  0.2056  0.0591
 5409W        W23613   0.751  14.674   1.713 -0.0959 -0.0800  0.1090
 5410W        W23614  10.269   8.388  16.422  0.4321 -0.0353 -0.2232
 5411W        W23615   7.902   5.296   4.344  0.0084 -0.3545 -0.1282
 5412W        W23616   3.958   2.224   2.932  0.0956  0.1331  0.0580
 5413W        W23617   4.962   7.870  17.333 -0.2601 -0.3056 -0.1363
 5414W        W23618   8.792   5.195   3.892  0.0286  0.2979 -0.3288
 5415W        W23619   6.898  16.090  12.140 -0.0495 -0.2685  0.1257
 5416W        W23620  10.712   9.644  15.310  0.2977 -0.3093  0.0863
 5417W        W23621  10.112   8.459  12.439 -0.0693  0.1526 -0.3556
 5418W        W23622   4.633  16.414   4.830 -0.1950  0.1578  0.1551
 5419W        W23623  10.116   7.948   3.923 -0.3360 -0.1067  0.1235
 5420W        W23624   0.384  11.439   5.572 -0.1137 -0.0080  0.0633
 5421W        W23625  15.527   4.764   3.306 -0.2963 -0.1480 -0.0109
 5422W        W23626  11.476  12.837  15.415  0.1138  0.1281 -0.2248
 5423W        W23627  12.036  12.596   3.467  0.1590 -0.2213 -0.0818
 5424W        W23628   5.294   3.507  15.347 -0.3564 -0.2009 -0.0403
 5425W        W23629   6.265   3.810   4.108  0.1117 -0.3023  0.0951
 5426W        W23630  10.173   3.660  15.181 -0.4119  0.2830  0.0378
 5427W        W23631  14.884  15.103  16.319  0.0997 -0.0252  0.0544
 5428W        W23632  14.304  16.455  13.616 -0.0443 -0.1893 -0.1758
 5429W        W23633   1.467   6.983  15.413 -0.1936  0.0185  0.4053
 5430W        W23634   1.725  14.101   4.721  0.0391  0.1597 -0.0237
 5431W        W23635  10.506  12.834  15.408  0.0621 -0.0950  0.1231
 5432W        W23636  12.416  11.514   0.772 -0.1982  0.2682 -0.1275
 5433W        W23637   0.728   9.511  13.853 -0.0497 -0.0238 -0.0334
 5434W        W23638   5.597  15.804   0.863 -0.4395 -0.1224  0.0702
 5435W        W23639  10.876  12.876   2.481 -0.0832  0.0815  0.0461
 5436W        W23640   5.746   9.030   0.017 -0.1524 -0.0315 -0.1748
 5437W        W23641  12.499   1.457  12.668 -0.0032 -0.1542  0.1149
 5438W        W23642  13.979  10.715   1.590  0.4324  0.1459 -0.3514
 5439W        W23643  11.122   2.571   3.075 -0.1638 -0.0506  0.0942
 5440W        W23644  15.134  14.393  13.172 -0.3161  0.2123  0.1473
 5441W        W23645   4.429  11.362  14.265 -0.1486 -0.1344  0.1356
 5442W        W23646  12.960   2.777  14.960 -0.3282 -0.0090 -0.1625
 5443W        W23647  10.343   2.469  14.361  0.2948  0.2529  0.1754
 5444W        W23648   4.896  11.628   1.051  0.1697  0.1608 -0.1865
 5445W        W23649  16.627   0.414   1.295 -0.0193 -0.1739  0.0353
 5446W        W23650  16.901   7.185   1.374  0.0352  0.0329  0.1218
 5447W        W23651   1.765   7.593   4.988 -0.0699 -0.2818 -0.0925
 5448W        W23652   6.125  17.211  13.332 -0.0556 -0.1610 -0.1286
 5449W        W23653  12.160   7.924  17.525 -0.1917  0.0656  0.0969
 5450W        W23654   3.189   4.714  12.771  0.0234 -0.0259 -0.1812
 5451W        W23655   5.148   2.394  16.541  0.1442 -0.0469 -0.2194
 5452W        W23656  13.759   2.845  14.712 -0.0497 -0.5015  0.0539
 5453W        W23657  11.872  15.580   0.698  0.1827  0.1190 -0.0201
 5454W        W23658  11.202   4.351   5.072  0.0506 -0.1358 -0.0575
 5455W        W23659   9.698   5.193   0.539  0.1937  0.1413 -0.0212
 5456W        W23660  13.933   4.864   3.597  0.0361 -0.1999 -0.0502
 5457W        W23661  15.797   6.648   1.078  0.1445 -0.0423  0.1881
 5458W        W23662  12.451   0.182   0.186 -0.2475 -0.0249  0.0496
 5459W        W23663   8.090  11.134   1.083 -0.2018  0.0881  0.5826
 5460W        W23664  15.223  10.583   1.921  0.1620 -0.2154  0.0709
 5461W        W23665   4.039  16.479  12.559  0.3288 -0.0603  0.1173
 5462W        W23666   3.638   2.140   2.129 -0.2792  0.0088 -0.0086
 5463W        W23667   7.717   8.699   2.791  0.2172 -0.0888  0.2076
 5464W        W23668   9.348   9.539   0.351 -0.0042  0.3522  0.1325
 5465W        W23669   3.378   4.550   3.838  0.0992  0.3944 -0.1453
 5466W        W23670   0.677  15.454   1.496 -0.2846 -0.1023 -0.1158
 5467W        W23671   7.317  15.134  14.353 -0.1879 -0.0307  0.2238
 5468W        W23672   6.802  13.021   3.971  0.1441 -0.0209  0.0405
 5469W        W23673  15.704   7.828  13.326  0.1055  0.3464  0.2752
 5470W        W23674  11.718   9.965   1.791  0.4320 -0.0325  0.1413
 5471W        W23675   4.309   5.093   2.479  0.2344 -0.1061  0.1491
 5472W        W23676  13.842  17.068  13.298  0.0657 -0.5051 -0.0858
 5473W        W23677  13.171   3.485  12.899  0.0330  0.1520 -0.0849
 5474W        W23678   9.562   8.472  13.419  0.1540 -0.0560 -0.1408
 5475W        W23679   8.517  17.000  13.742  0.1881 -0.0001 -0.0174
 5476W        W23680   2.038   3.848   4.185 -0.1045  0.1387  0.1408
 5477W        W23681   0.789  17.064  16.467  0.3371 -0.1271  0.0678
 5478W        W23682  16.457  15.772   1.734  0.1129  0.1242 -0.0842
 5479W        W23683  14.971   7.728  15.749 -0.1153  0.0611  0.0321
 5480W        W23684   4.888   3.638   4.196  0.2485 -0.1545 -0.2242
 5481W        W23685   4.740  12.972   1.122 -0.0792  0.2228  0.0053
 5482W        W23686  15.604   0.085  17.440 -0.3010  0.0085 -0.0585
 5483W        W23687  15.698   8.661   1.684 -0.0653  0.1899 -0.1926
 5484W        W23688  12.263  15.205   3.772  0.0743 -0.2122  0.1415
 5485W        W23689   8.620   4.369  12.599 -0.1643 -0.0470 -0.1183
 5486W        W23690   7.904  15.706   0.441  0.0662 -0.0705 -0.0839
 5487W        W23691   9.892   1.276   3.856  0.3315  0.0442 -0.3366
 5488W        W23692  13.504  10.983   4.006  0.0340 -0.1195  0.0537
 5489W        W23693   1.130   2.593  15.526 -0.0216  0.0918  0.0134
 5490W        W23694   8.338  14.181   5.280 -0.0537 -0.2346  0.2089
 5491W        W23695  15.008  14.741   3.924 -0.2301 -0.1401  0.1827
 5492W        W23696  13.978  16.052   1.659  0.2464 -0.3317  0.2244
 5493W        W23697  16.248  14.205   0.366  0.0800 -0.1078 -0.2464
 5494W        W23698   9.264   0.813  17.345  0.0811  0.2726  0.1666
 5495W        W23699   1.842   3.412   3.434 -0.1923 -0.3002  0.1489
 5496W        W23700  13.741   3.960   4.160  0.0799  0.1782  0.2293
 5497W        W23701   2.648   7.372   2.530  0.1590  0.2065 -0.2396
 5498W        W23702   2.157  13.626  12.735  0.1463  0.2120  0.2142
 5499W        W23703   8.518   1.045  16.139 -0.2168  0.0843  0.0323
 5500W        W23704   1.467  14.582   3.983  0.2749  0.0906 -0.4889
 5501W        W23705  11.899   6.113  15.232 -0.0848  0.2524  0.0906
 5502W        W23706  14.069   8.490   1.318  0.0777 -0.2408  0.5754
 5503W        W23707   3.332   5.381  16.542 -0.0199  0.2317 -0.1243
 5504W        W23708   6.922   2.266   0.497 -0.0488  0.1311 -0.0456
 5505W        W23709  14.079   0.029   0.834  0.0414  0.0388  0.0993
 5506W        W23710  15.450  11.767  15.521 -0.3311 -0.1892 -0.2667
 5507W        W23711  14.025   8.818  13.589  0.2995 -0.0534 -0.2077
 5508W        W23712   2.303   3.835   1.039 -0.1527 -0.3437  0.0848
 5509W        W23713   9.711   1.581  15.594 -0.2547  0.3566  0.3459
 5510W        W23714  12.768   0.986   5.961  0.0165 -0.0980  0.1810
 5511W        W23715   6.818  13.958   2.236  0.0788 -0.1439 -0.4154
 5512W        W23716   7.004  11.981  14.503  0.2629  0.3684  0.0541
 5513W        W23717   2.724   9.039   2.717 -0.1701  0.2391  0.0997
 5514W        W23718   3.880   4.462   1.615 -0.0931  0.0309  0.0386
 5515W        W23719   7.089  12.768   5.164 -0.2357 -0.0657 -0.1012
 5516W        W23720  15.168   2.637  17.489 -0.2117 -0.0562  0.2140
 5517W        W23721  13.682   1.429  13.745 -0.2115  0.3005 -0.2157
 5518W        W23722   6.916   9.462  16.198  0.2638  0.2809 -0.3604
 5519W        W23723   7.320   6.482   5.067  0.0526 -0.1279 -0.1220
 5520W        W23724  14.973   0.735  12.235 -0.2909 -0.0803  0.1667
 5521W        W23725  15.834  15.199   2.070  0.1763  0.0448  0.2759
 5522W        W23726  12.383  13.893   3.881  0.1357  0.0870 -0.1813
 5523W        W23727  16.879   8.209  16.876 -0.4918 -0.1668 -0.2244
 5524W        W23728   5.784   6.567  15.365  0.1976 -0.2215  0.4042
 5525W        W23729   2.332   2.366   1.001  0.0388  0.1699 -0.0465
 5526W        W23730  12.979   4.858  17.010  0.1817  0.3367  0.0117
 5527W        W23731   6.369  13.702  13.198  0.0090  0.0017 -0.5780
 5528W        W23732  15.351   5.298   2.453  0.1322  0.1398  0.2410
 5529W        W23733   8.412  15.019   4.933  0.0932 -0.0880 -0.3077
 5530W        W23734   9.087   7.945   4.416  0.0989 -0.2676 -0.1670
 5531W        W23735   8.281  15.260   1.454  0.1719  0.0002  0.2481
 5532W        W23736  10.874   5.990  16.276  0.1829 -0.0767  0.0479
 5533W        W23737   5.352   5.424  13.131 -0.5397 -0.3269  0.1009
 5534W        W23738  11.198   4.101   2.135 -0.2451  0.0144  0.1437
 5535W        W23739  15.906  10.081  16.082 -0.0556  0.0066  0.1712
 5536W        W23740   9.619  11.591   4.697 -0.0578  0.3315  0.0238
 5537W        W23741   7.953   4.912  12.373 -0.1955  0.1968  0.0813
 5538W        W23742  17.010   5.753   2.731 -0.0907 -0.0250 -0.5143
 5539W        W23743   7.048  15.253   3.293 -0.0673 -0.0096  0.1101
 5540W        W23744  15.936  12.691   1.634  0.1612  0.0719  0.0947
 5541W        W23745  15.918  15.958   4.095 -0.0828  0.0895 -0.1115
 5542W        W23746  15.937  13.577  13.173  0.0669 -0.1403  0.0340
 5543W        W23747   2.469  12.278   1.983  0.0612  0.2763  0.1548
 5544W        W23748   3.815  16.002  13.307 -0.0122 -0.0618  0.3881
 5545W        W23749  15.893   4.798  14.765  0.0359  0.1816 -0.0671
 5546W        W23750  15.809   8.336  14.705 -0.1130 -0.3707  0.2043
 5547W        W23751   0.688  13.375   3.480  0.2207 -0.2149 -0.0392
 5548W        W23752   5.915  16.688  12.288  0.0338 -0.0015  0.2200
 5549W        W23753  16.716   5.947   4.924 -0.0425 -0.0856  0.1223
 5550W        W23754   5.439   3.922   4.520  0.0478  0.1067 -0.0560
 5551W        W23755   2.291   0.389  15.696 -0.1746  0.0755 -0.1044
 5552W        W23756  12.009  12.645   1.096 -0.1184 -0.0582  0.1961
 5553W        W23757  16.139   7.641   0.366 -0.0710  0.1678 -0.1518
 5554W        W23758   9.893   7.184  14.920  0.3444  0.2960 -0.2238
 5555W        W23759   5.270  15.678  12.816 -0.0194 -0.3384 -0.2839
 5556W        W23760   5.808   5.314  15.896 -0.0865 -0.3455 -0.0734
 5557W        W23761   8.548   7.088   3.387  0.1002 -0.2487 -0.3666
 5558W        W23762  16.014  10.346   4.804  0.0252 -0.1598 -0.1080
 5559W        W23763   9.611  16.412   1.050  0.1469  0.0414 -0.2777
 5560W        W23764  11.162  13.171   0.903  0.2496 -0.2840 -0.0175
 5561W        W23765   0.808  10.499   2.789 -0.3391 -0.1496  0.1453
 5562W        W23766   8.965   1.437  16.671  0.5549 -0.1690 -0.1951
 5563W        W23767   0.510   4.643  16.927 -0.1540 -0.1186  0.0117
 5564W        W23768  14.023   7.309   1.681 -0.2979  0.1880  0.0937
 5565W        W23769  13.596   2.247   3.762 -0.1000 -0.1046 -0.3286
 5566W        W23770  14.688   9.625  13.174 -0.0018  0.3668  0.0467
 5567W        W23771   8.328   9.351  15.924  0.1684 -0.1429 -0.3420
 5568W        W23772   2.562  11.863   3.474 -0.3383 -0.2262 -0.3526
 5569W        W23773   4.442  10.135  15.301 -0.0266  0.1077 -0.0123
 5570W        W23774   2.662   2.500   5.246  0.0790 -0.1981  0.0788
 5571W        W23775   5.201   9.321  11.930 -0.3523 -0.2124  0.4304
 5572W        W23776  16.221  17.303   2.569 -0.3894 -0.0765 -0.2141
 5573W        W23777  14.512   9.597  14.659 -0.1684 -0.4494 -0.3052
 5574W        W23778   3.876   9.588   0.207  0.0414 -0.2543  0.0753
 5575W        W23779   2.185  16.492  13.252 -0.0839  0.1146  0.0231
 5576W        W23780   4.454   7.122  12.716  0.2267 -0.0985  0.0697
 5577W        W23781   4.861  13.706  16.490  0.0522 -0.0004 -0.0878
 5578W        W23782   4.115  11.133   2.913 -0.1291 -0.0358  0.0299
 5579W        W23783  14.273  16.751  13.095  0.2566 -0.2567 -0.1329
 5580W        W23784   5.955  17.197   6.268 -0.2004 -0.3029 -0.3753
 5581W        W23785   3.210   5.065   3.173  0.0157  0.0801  0.1146
 5582W        W23786  17.158   1.832   3.401  0.1762 -0.3728  0.1028
 5583W        W23787  14.597  12.769  15.692  0.2793  0.3465 -0.1221
 5584W        W23788  15.291  11.976   4.578 -0.3156  0.2301  0.0331
 5585W        W23789  11.664   5.401  16.658 -0.2510  0.2851  0.0061
 5586W        W23790   0.011  13.097  15.709  0.2449  0.2948 -0.2171
 5587W        W23791   3.342   5.892   5.330 -0.1103 -0.1920  0.0148
 5588W        W23792   4.982   7.380   4.540 -0.2080 -0.1575  0.0263
 5589W        W23793   6.735   7.187   0.279  0.0999 -0.0806 -0.0496
 5590W        W23794   6.990   2.790  13.788  0.0654  0.1758 -0.0045
 5591W        W23795   9.455   2.661  15.849 -0.0550  0.3389 -0.0806
 5592W        W23796   8.868  15.441  14.484 -0.1289 -0.0145  0.1065
 5593W        W23797  15.361  10.565  12.525 -0.1866 -0.2120  0.2656
 5594W        W23798  10.596  12.619   0.284 -0.3537  0.1692  0.1783
 5595W        W23799   5.906  15.993   2.533  0.2377  0.1359  0.1227
 5596W        W23800  13.971  12.102   1.015  0.0894  0.0845  0.0476
 5597W        W23801   7.594  11.472   5.265 -0.2637  0.3597 -0.1567
 5598W        W23802   4.530  10.229   0.546 -0.1680 -0.0965  0.1679
 5599W        W23803   8.083   3.488   2.036  0.0094 -0.1940 -0.0562
 5600W        W23804  15.791  10.848   2.492 -0.3175  0.1888 -0.3266
 5601W        W23805   8.168  12.452   4.894  0.0247 -0.1355  0.0944
 5602W        W23806   6.753   7.827  13.051 -0.0837 -0.3364  0.1801
 5603W        W23807  10.966  15.180  13.763 -0.0572 -0.4073  0.1472
 5604W        W23808  16.706  11.800  13.118 -0.2011 -0.1410  0.0843
 5605W        W23809   7.649   9.923  15.975 -0.2365  0.0015 -0.0103
 5606W        W23810  11.796  11.868   2.667 -0.2513 -0.1176 -0.1512
 5607W        W23811   6.300   2.879  12.954 -0.1371 -0.0953 -0.0768
 5608W        W23812  16.240  16.355   4.868 -0.0881 -0.2694  0.0002
 5609W        W23813   5.716   1.887   4.858 -0.2378 -0.0802  0.1804
 5610W        W23814   0.351   7.203   4.670 -0.3420 -0.0414 -0.0024
 5611W        W23815   1.149   6.588  13.382 -0.0822  0.0423 -0.0976
 5612W        W23816  15.301   8.539   4.408 -0.0907  0.0231  0.2780
 5613W        W23817  13.052   0.112  15.343 -0.1386  0.1295 -0.1067
 5614W        W23818   4.038   7.054   1.789  0.2241 -0.0316  0.0927
 5615W        W23819   9.105   8.564   0.298  0.4036 -0.1114  0.0442
 5616W        W23820   1.632  15.501   1.512 -0.1894  0.0708 -0.2430
 5617W        W23821   9.977  11.776   4.389 -0.2091 -0.2058 -0.1536
 5618W        W23822   5.496  11.652   0.438 -0.2264  0.0641 -0.5566
 5619W        W23823  15.444   2.191   0.828  0.2743 -0.2143  0.1393
 5620W        W23824  11.877  12.402   0.637  0.3823  0.0548 -0.1205
 5621W        W23825  16.285  14.116  17.038 -0.1843  0.0659  0.2400
 5622W        W23826   3.106   8.627   0.339  0.1024  0.0610 -0.0803
 5623W        W23827   6.602  15.502  12.624 -0.1276 -0.0612 -0.0662
 5624W        W23828   2.091  10.490   4.237 -0.0109 -0.1219 -0.1479
 5625W        W23829   6.520  14.406  12.818 -0.2228  0.3798  0.0239
 5626W        W23830   2.114  14.651   5.226 -0.1318 -0.0172 -0.0273
 5627W        W23831  16.977  16.612   1.470  0.2148  0.1593 -0.3581
 5628W        W23832   7.062   0.415  17.249  0.2668 -0.0197 -0.2821
 5629W        W23833   4.084  10.583  13.862 -0.1329 -0.1749  0.1830
 5630W        W23834   1.520   0.073  16.774  0.1509  0.0652  0.1233
 5631W        W23835   0.327   1.844   4.035 -0.0436  0.0182  0.0452
 5632W        W23836   9.970   9.391   1.754  0.0750 -0.1759 -0.0813
 5633W        W23837   6.908   2.517   0.014 -0.0872  0.2897  0.0068
 5634W        W23838   9.339   3.764   0.635  0.0967 -0.1943  0.1105
 5635W        W23839   7.715  11.694   0.489  0.3160  0.0628  0.4739
 5636W        W23840   5.222  12.373  15.029 -0.0561 -0.0647  0.2327
 5637W        W23841   0.338  17.006  15.339  0.0044  0.0389  0.0544
 5638W        W23842   0.574   0.047   0.857 -0.2216 -0.2504 -0.1241
 5639W        W23843   4.018  13.625   3.150  0.0178  0.0311  0.2348
 5640W        W23844  10.387   6.681  12.895 -0.0127 -0.0363 -0.1979
 5641W        W23845   4.578   2.348  15.041 -0.4886 -0.0202  0.0847
 5642W        W23846  16.835   6.432  13.820  0.1809  0.4182 -0.0193
 5643W        W23847   3.739   4.572  12.837  0.0678  0.0557 -0.0764
 5644W        W23848   1.314  17.215   2.008 -0.4206  0.0617 -0.0236
 5645W        W23849   2.854   2.427   3.735 -0.4045  0.1545 -0.1002
 5646W        W23850   0.391   6.789  13.790 -0.1936 -0.1559  0.0430
 5647W        W23851   2.599   9.190   0.196  0.0845  0.4588 -0.1177
 5648W        W23852   9.865   6.284   4.954  0.4310  0.1188  0.0339
 5649W        W23853  15.857   2.077   0.572 -0.2700 -0.1312 -0.1077
 5650W        W23854   9.977   3.242  15.715  0.4050  0.1100 -0.0064
 5651W        W23855  13.992  10.998   1.198  0.2955  0.0353  0.0367
 5652W        W23856  15.758  17.119   1.217  0.2085  0.0849 -0.1920
 5653W        W23857  14.380  10.988   6.266 -0.3685  0.1878  0.0566
 5654W        W23858   1.366  11.843   2.872 -0.1597 -0.0675 -0.2228
 5655W        W23859   9.707  14.360   1.913 -0.0908 -0.4876 -0.0754
 5656W        W23860   8.297   4.107   5.462 -0.2321  0.1469 -0.0185
 5657W        W23861  17.078  12.393   3.274 -0.0457 -0.4028 -0.1174
 5658W        W23862   2.047  13.652   5.897  0.0976 -0.1479  0.1586
 5659W        W23863  16.721  17.111  13.484 -0.0888  0.0375 -0.0386
 5660W        W23864   8.646   7.407  13.655  0.2277  0.1847  0.1975
 5661W        W23865   8.185  10.739  17.368  0.0017  0.0964 -0.5851
 5662W        W23866  12.741   5.777   3.064 -0.1349 -0.2543 -0.1828
 5663W        W23867   2.916  17.142  11.925 -0.1973 -0.0465  0.0153
 5664W        W23868   1.633   8.543  15.079 -0.0226  0.0698 -0.0276
 5665W        W23869  16.646   4.292  17.168  0.1108 -0.1551  0.0825
 5666W        W23870   0.475  10.935  15.805  0.2691  0.2558  0.1300
 5667W        W23871  14.524   9.632  16.168 -0.1507 -0.0291  0.1483
 5668W        W23872   1.730   6.387   1.131  0.0191 -0.0988 -0.0695
 5669W        W23873  10.225   0.794   3.003  0.0326  0.0778  0.2776
 5670W        W23874   0.890  11.746   1.656 -0.1792 -0.0968  0.1337
 5671W        W23875   1.932   3.281   0.406 -0.0126  0.0898 -0.1292
 5672W        W23876   8.212  16.695   3.231 -0.2149 -0.1616  0.0158
 5673W        W23877   8.374  12.560  13.854 -0.0795 -0.1329  0.1598
 5674W        W23878  13.519   0.606  14.949 -0.0759 -0.0341  0.2229
 5675W        W23879   1.534   8.452   2.052  0.0876 -0.2241 -0.2243
 5676W        W23880   4.595   6.350  12.305  0.0880 -0.0155  0.1732
 5677W        W23881  12.373   1.844  16.463  0.0310  0.1123 -0.1160
 5678W        W23882   4.959  17.249   3.064  0.1742 -0.3375  0.1049
 5679W        W23883   0.975   7.557  12.839  0.2801 -0.2164  0.1312
 5680W        W23884   0.193  11.330  15.729 -0.0042 -0.2584 -0.1636
 5681W        W23885  17.029   1.781   0.122  0.2601  0.0111 -0.4024
 5682W        W23886  17.273   3.428  13.915 -0.0641  0.0406 -0.2840
 5683W        W23887  11.791   1.072   4.867  0.2771  0.0598 -0.3184
 5684W        W23888  17.130   0.090  11.940 -0.1910 -0.1588  0.0731
 5685W        W23889  14.067  10.645  13.700  0.0200  0.1195  0.1651
 5686W        W23890   1.473   8.231   4.417 -0.0455  0.0923  0.0771
 5687W        W23891  13.455   9.376   2.741  0.3025 -0.1753  0.0043
 5688W        W23892  15.786   7.579  17.499 -0.2649 -0.1024 -0.3516
 5689W        W23893  15.376   7.401   3.629  0.3153 -0.3495 -0.1142
 5690W        W23894   4.670   3.591   3.399 -0.0115 -0.0099 -0.2583
 5691W        W23895  11.246   8.810   0.740 -0.0483 -0.1875  0.0427
 5692W        W23896   3.012   4.791   1.698  0.0793 -0.2677  0.0253
 5693W        W23897   6.073   4.512   0.568 -0.1348 -0.0725 -0.0180
 5694W        W23898  13.295   2.182   2.475  0.1440  0.2057  0.1060
 5695W        W23899  11.616   5.370  17.381 -0.3515 -0.0071  0.0483
 5696W        W23900  16.191   1.878  14.508 -0.0090  0.0476 -0.0957
 5697W        W23901  15.663  10.865  12.184  0.2169 -0.0170 -0.0152
 5698W        W23902  15.689  15.866  15.310  0.0282 -0.0382  0.3660
 5699W        W23903  11.902   2.809   0.558  0.1487  0.3465 -0.0844
 5700W        W23904   7.550  13.650  16.944  0.1876 -0.3184  0.0688
 5701W        W23905  17.106   9.374   1.306  0.0436  0.1172 -0.1333
 5702W        W23906   0.023   2.337  13.105  0.0061 -0.0979 -0.0164
 5703W        W23907  11.245   6.863   0.025  0.1218 -0.1431 -0.0250
 5704W        W23908   4.229  12.989   3.886 -0.1524 -0.2257 -0.2364
 5705W        W23909  13.647   4.068   4.713 -0.1659  0.3557 -0.2127
 5706W        W23910   0.857   7.758   5.111  0.0480 -0.1330  0.0820
 5707W        W23911  10.346   3.772   4.111  0.1468 -0.1293  0.0187
 5708W        W23912   7.243   0.374  15.159 -0.2279 -0.0416  0.0288
 5709W        W23913  15.987   2.165   1.780  0.0259 -0.0154  0.0425
 5710W        W23914   3.018   0.389  14.081 -0.0236  0.2150 -0.2107
 5711W        W23915   1.958   2.200  12.205  0.0063 -0.1804  0.0250
 5712W        W23916   5.117  17.173   3.772 -0.1657 -0.2725 -0.1654
 5713W        W23917   6.513   2.195  13.528  0.1874  0.0430  0.0297
 5714W        W23918  10.936  14.045  16.446 -0.0052  0.4600 -0.1038
 5715W        W23919   2.259  14.880  14.332 -0.0408  0.0765 -0.0946
 5716W        W23920  14.415   5.195  13.335 -0.0658  0.2139 -0.2219
 5717W        W23921  11.577  14.967  15.114 -0.0398 -0.0568 -0.2069
 5718W        W23922  11.279   7.198   0.798  0.1029  0.1648  0.0672
 5719W        W23923   1.456  10.044   5.815 -0.1789 -0.1908  0.1602
 5720W        W23924  15.526  13.118   4.278 -0.3221  0.0548  0.0555
 5721W        W23925   5.453   6.855  16.722 -0.0232 -0.1341 -0.1407
 5722W        W23926  15.658  13.809   1.447 -0.4053 -0.0173 -0.0024
 5723W        W23927  11.544   5.817  17.502 -0.1178 -0.0201 -0.1583
 5724W        W23928   1.722  13.324  14.556 -0.0922  0.1330 -0.0577
 5725W        W23929  17.022   3.995   1.722  0.1908 -0.1262 -0.2206
 5726W        W23930  14.123   8.689   0.535 -0.3356  0.2864  0.1440
 5727W        W23931  16.312   5.316  16.291 -0.0725 -0.1887  0.0669
 5728W        W23932  10.829   0.334  15.035  0.0641  0.2436  0.1054
 5729W        W23933  16.534  15.196   4.463 -0.0959 -0.0001 -0.2512
 5730W        W23934  14.646   8.045  12.691  0.0204  0.2614 -0.2209
 5731W        W23935   0.778   0.159   3.448  0.1009 -0.2553  0.2062
 5732W        W23936   1.596  12.834  13.305 -0.0881 -0.1026  0.3948
 5733W        W23937   3.701   5.005  13.569  0.0782 -0.0201  0.1112
 5734W        W23938   2.825  14.287   2.814 -0.3417 -0.0820  0.1210
 5735W        W23939  13.408  12.624   3.522 -0.0828 -0.0236 -0.1063
 5736W        W23940   6.017  16.183  13.213  0.2270  0.2117 -0.1306
 5737W        W23941   8.728  15.604  15.739 -0.3362  0.2386 -0.1307
 5738W        W23942   4.845   3.679   1.326 -0.0055  0.2714  0.0314
 5739W        W23943   5.533   7.043  13.283  0.0594  0.0401 -0.3232
 5740W        W23944  11.140  10.595   4.735 -0.4059 -0.0762 -0.0074
 5741W        W23945  12.467   2.166   0.389  0.0811  0.1291  0.1276
 5742W        W23946   3.745   4.709  16.548  0.0483 -0.1430  0.3401
 5743W        W23947   8.319  15.378   3.006  0.1219  0.1497 -0.1100
 5744W        W23948   0.072   7.971   3.127  0.2339 -0.2599 -0.1144
 5745W        W23949   3.287   4.988  13.192  0.0255  0.2665 -0.1008
 5746W        W23950   5.411  15.082  14.042  0.0591 -0.0390 -0.0803
 5747W        W23951   7.660  11.095  16.652  0.2095  0.0656 -0.0503
 5748W        W23952   7.162  10.528   4.628  0.3299 -0.2997  0.2298
 5749W        W23953   1.802   4.854   1.753 -0.4824 -0.1324 -0.1401
 5750W        W23954  11.038   1.129   2.624 -0.2805 -0.2815  0.0173
 5751W        W23955   3.302   7.334   3.708  0.2723 -0.1149 -0.0231
 5752W        W23956  15.081   0.514  15.045 -0.0926 -0.1090  0.0193
 5753W        W23957   8.948   0.097   2.446  0.2155 -0.0534  0.0568
 5754W        W23958   9.503  14.188  15.299 -0.0043  0.0307 -0.1470
 5755W        W23959   2.762   8.208   2.975 -0.0963  0.0816 -0.1282
 5756W        W23960  16.103  10.093   2.101 -0.1013 -0.1676 -0.1378
 5757W        W23961  14.399   2.808  13.330  0.1855 -0.1097  0.2186
 5758W        W23962   7.806   9.452   1.593  0.2172 -0.2826  0.1672
 5759W        W23963   7.445   7.541  13.886  0.1073  0.0890  0.1118
 5760W        W23964  17.282  11.285   0.848  0.0390  0.1249  0.0307
 5761W        W23965   8.578   6.783   2.009  0.1870  0.0506 -0.0118
 5762W        W23966  13.904  14.526  13.631 -0.1325 -0.2508  0.1507
 5763W        W23967   3.555   4.221  12.568 -0.2442  0.1076 -0.1476
 5764W        W23968   3.837   4.074   4.254 -0.0767 -0.0401  0.2101
 5765W        W23969   0.444  15.798   4.403  0.0058  0.0339  0.2283
 5766W        W23970   4.529   3.889   0.020  0.5716  0.1086 -0.0074
 5767W        W23971   0.724   6.633   0.555  0.1088 -0.0602  0.0730
 5768W        W23972   9.680   3.094  14.361  0.1201  0.3801  0.1294
 5769W        W23973   8.577   5.645   3.829  0.2458 -0.1205 -0.0894
 5770W        W23974   0.576   9.910  13.011 -0.1816  0.2594  0.1920
 5771W        W23975   7.854   3.723  12.652 -0.1330  0.3931 -0.0924
 5772W        W23976   2.155  10.050  16.317 -0.2447  0.0212 -0.0405
 5773W        W23977   2.688   7.739   4.430  0.2568  0.0062  0.1127
 5774W        W23978  10.262  15.984   4.466  0.2896  0.1892  0.1639
 5775W        W23979   1.105   8.733  13.795  0.1740 -0.3741  0.0062
 5776W        W23980  16.471  13.735   0.506  0.1124 -0.0783 -0.1232
 5777W        W23981  15.941   0.085   4.115 -0.1975  0.3322  0.0259
 5778W        W23982  15.554   0.887   4.431  0.0921 -0.2004 -0.0638
 5779W        W23983   3.205   1.467  14.941  0.1632 -0.0479  0.0536
 5780W        W23984   3.171   0.968   0.178  0.0105  0.1288 -0.0344
 5781W        W23985   5.523   2.354  13.134 -0.2224 -0.1534  0.2189
 5782W        W23986   2.498  10.670   0.538 -0.1516 -0.0249 -0.1329
 5783W        W23987   6.849   1.138  16.242 -0.2274 -0.1681  0.3381
 5784W        W23988  12.098  11.664   2.268 -0.3082 -0.3947 -0.3126
 5785W        W23989  11.396   2.072  16.697  0.3964 -0.0452  0.3376
 5786W        W23990   1.704   7.349   4.500 -0.1020  0.1379 -0.0584
 5787W        W23991  12.759   7.442   2.282 -0.3940  0.1668 -0.1596
 5788W        W23992   5.380  16.053   2.549  0.1649  0.0241 -0.0552
 5789W        W23993   4.986  10.517   0.187  0.0139  0.0890  0.1227
 5790W        W23994   6.167   3.450   2.592 -0.2646  0.1777  0.1359
 5791W        W23995   6.806   3.102   1.533 -0.2142  0.0180 -0.1068
 5792W        W23996  12.702   7.838   4.504 -0.0147  0.0692 -0.0882
 5793W        W23997   4.918   0.848   1.973  0.2688 -0.0515 -0.0572
 5794W        W23998  14.069  10.830   3.826 -0.0556  0.0153  0.0446
 5795W        W23999   7.137  13.229   0.480  0.1657  0.0580  0.0320
 5796W        W24000   3.517   9.983   0.212  0.1131 -0.1047 -0.0507
 5797W        W24001  15.880  16.588  13.849 -0.2250  0.1524  0.0881
 5798W        W24002  11.045   5.218   3.295 -0.0111  0.2675  0.0595
 5799W        W24003   5.074  15.015  15.022 -0.0268 -0.4277 -0.2230
 5800W        W24004   9.990  14.210  15.086 -0.0242 -0.0134 -0.1159
 5801W        W24005   5.877   1.449   1.913  0.0442  0.5387 -0.0897
 5802W        W24006   2.597   9.981  16.536 -0.1861 -0.1991  0.2652
 5803W        W24007   0.350   0.705   4.821 -0.0921  0.0081  0.0751
 5804W        W24008  15.930  11.699   6.750 -0.1467  0.2438  0.2771
 5805W        W24009   9.457  11.819  14.645 -0.0026  0.0200 -0.2811
 5806W        W24010  13.800   3.125   2.218 -0.0255 -0.0788  0.3061
 5807W        W24011  17.082  17.128   2.046 -0.0605  0.4519  0.1622
 5808W        W24012   3.912   1.933  13.227 -0.0068 -0.3099 -0.2711
 5809W        W24013  12.231  16.794  13.492 -0.0157 -0.0129  0.0143
 5810W        W24014  16.630   0.546   2.177  0.0959 -0.0217  0.2906
 5811W        W24015  11.700  17.066  16.757  0.1536 -0.1246  0.1886
 5812W        W24016  10.236   3.070  13.002 -0.2270  0.0911  0.1026
 5813W        W24017   1.712   3.862   3.157  0.3042  0.0325  0.0561
 5814W        W24018   7.475   0.752   1.403  0.0733 -0.0589  0.0541
 5815W        W24019  11.850  12.464  16.899 -0.0851 -0.0491 -0.2625
 5816W        W24020  13.619   4.127  12.500  0.2143  0.0449 -0.0452
 5817W        W24021   5.706  16.231  17.126 -0.5733 -0.0887  0.2442
 5818W        W24022  10.344   7.503   1.048  0.0847 -0.1187  0.1596
 5819W        W24023   2.489   3.305   3.873  0.0276 -0.1268  0.2254
 5820W        W24024   3.454   3.319  12.926  0.1649  0.3571  0.2200
 5821W        W24025   0.389   7.616  16.413  0.0726  0.1477  0.0696
 5822W        W24026  14.375   1.399   1.284 -0.1707  0.0357 -0.3178
 5823W        W24027   8.562   2.771  14.787 -0.4446  0.0678  0.1542
 5824W        W24028  12.784  11.566   0.334 -0.0658  0.0936 -0.2104
 5825W        W24029  11.375   3.952   4.130 -0.1281 -0.1800  0.0851
 5826W        W24030   0.278  14.615   0.388 -0.2000 -0.4611  0.1572
 5827W        W24031  10.416   8.920   1.169  0.0532  0.0754 -0.1719
 5828W        W24032   1.876   3.087  16.782 -0.0621 -0.0902  0.0430
 5829W        W24033  15.049   8.021  14.574  0.1770 -0.3737 -0.3216
 5830W        W24034   6.930   5.472   3.659 -0.2899 -0.0337 -0.1177
 5831W        W24035  15.232  14.368   5.241 -0.1030 -0.0594  0.1831
 5832W        W24036   2.057  11.971  12.631 -0.0691 -0.1012  0.0994
 5833W        W24037  14.891   9.556   1.749  0.0521  0.1051  0.0956
 5834W        W24038   7.835   9.471  16.684  0.2240  0.1749 -0.0045
 5835W        W24039   2.898   0.520   4.496 -0.1689  0.0612 -0.3730
 5836W        W24040   7.529   3.692  16.287 -0.0975 -0.2079 -0.0378
 5837W        W24041   8.419   6.398  12.702  0.1616  0.0653 -0.4092
 5838W        W24042   7.806  10.911  12.689  0.1915 -0.3439  0.0255
 5839W        W24043   5.764  15.489  16.423  0.0264  0.2574 -0.3604
 5840W        W24044  16.704  12.076   2.994  0.1935  0.1968  0.0200
 5841W        W24045   3.691  13.340   2.495 -0.2286  0.5629 -0.2132
 5842W        W24046  15.270  13.424  16.194 -0.1128  0.0843  0.2793
 5843W        W24047   7.916   3.480   0.310  0.3427  0.0375  0.0782
 5844W        W24048   5.360  11.157  15.750 -0.1758 -0.1562  0.0015
 5845W        W24049  16.255  11.317  13.458  0.1814 -0.3559 -0.2103
 5846W        W24050  12.395  13.614  14.076 -0.0505 -0.1336 -0.4107
 5847W        W24051  15.865  14.795   2.851 -0.1458  0.0832  0.0274
 5848W        W24052  16.151   4.068   4.249  0.3290  0.0970  0.1178
 5849W        W24053  16.245   9.455   1.525 -0.1746 -0.2642 -0.1424
 5850W        W24054  15.737  12.757   0.710 -0.0559 -0.0175 -0.1976
 5851W        W24055  11.754  12.187  15.936 -0.0519 -0.2147 -0.1780
 5852W        W24056  10.331   2.915  15.979  0.1987 -0.0220  0.2388
 5853W        W24057   0.289  13.138  15.298  0.0417 -0.1227  0.2021
 5854W        W24058   7.536   4.725  11.517 -0.0829  0.0347 -0.3115
 5855W        W24059   2.251   6.251  16.541  0.2650 -0.2025 -0.0559
 5856W        W24060  13.430  12.989   2.109  0.3275 -0.3408 -0.1448
 5857W        W24061   0.562   4.112  16.308 -0.0262  0.0861 -0.2401
 5858W        W24062  12.901   6.054  14.602 -0.0001 -0.1883  0.1123
 5859W        W24063  14.122  14.930   3.541 -0.2049  0.1663  0.0762
 5860W        W24064   7.373   2.277   3.098  0.1946 -0.2651 -0.0365
 5861W        W24065  14.180   0.777   6.373 -0.0074 -0.1777  0.2412
 5862W        W24066  15.001   0.954  15.304 -0.0433 -0.2427 -0.1507
 5863W        W24067  16.080   2.971  14.767  0.0239 -0.0425  0.1017
 5864W        W24068  14.378   4.974   5.297  0.0839  0.2665 -0.1658
 5865W        W24069   9.809   6.303   3.987 -0.2490 -0.1464 -0.1666
 5866W        W24070   7.580   9.426   0.174  0.1096 -0.0192  0.3204
 5867W        W24071   9.637  10.992  16.727 -0.1480  0.1233  0.0911
 5868W        W24072   2.881  12.607   5.054  0.0695  0.2426 -0.0063
 5869W        W24073  13.867   5.568   0.960 -0.0599  0.0623 -0.2233
 5870W        W24074   7.569  11.185   2.615 -0.1810 -0.1830 -0.0765
 5871W        W24075   8.310  14.526  11.381 -0.2496 -0.0870  0.3416
 5872W        W24076  12.865   2.963   4.886 -0.1530 -0.1128 -0.2624
 5873W        W24077   5.691   8.074   3.073  0.2459  0.2003 -0.0129
 5874W        W24078   2.727  10.963   2.569  0.2311  0.0580  0.1493
 5875W        W24079   5.116   2.571   1.147  0.1720  0.3323  0.0971
 5876W        W24080   4.402   7.840  14.545  0.1106  0.1565  0.0986
 5877W        W24081  13.866  11.464   4.818  0.2046  0.3256 -0.3911
 5878W        W24082  15.074  11.204   4.124 -0.1049 -0.1139  0.0354
 5879W        W24083   4.589  16.186   1.605  0.1919  0.1613  0.0247
 5880W        W24084  12.146   7.790  14.118 -0.1704 -0.0772  0.2320
 5881W        W24085   0.283   1.674   1.290  0.3506 -0.1688 -0.0534
 5882W        W24086   4.763   1.921   0.892  0.3575 -0.1341  0.0679
 5883W        W24087  12.730   4.663   5.142 -0.3432  0.0509  0.0902
 5884W        W24088  16.079   6.508  13.581 -0.1421 -0.0430 -0.1470
 5885W        W24089  13.977   6.630   3.492  0.3308  0.2877 -0.0493
 5886W        W24090  10.457   4.044  16.000 -0.0595 -0.1282 -0.0742
 5887W        W24091   2.119   1.891  16.380 -0.0696 -0.1846 -0.4468
 5888W        W24092   7.079   9.645  17.379  0.0128  0.4821 -0.1738
 5889W        W24093  13.792  14.606  16.897 -0.3952  0.1344  0.1261
 5890W        W24094  13.485   3.594   4.949 -0.0824  0.0661 -0.0215
 5891W        W24095  17.222   4.395   0.982  0.2214  0.1112 -0.1744
 5892W        W24096  16.894   2.972   1.900 -0.1724  0.1788  0.2017
 5893W        W24097  17.144  10.168   2.713 -0.0069  0.0631 -0.1908
 5894W        W24098   0.780   5.381   4.139 -0.5313 -0.0187  0.2117
 5895W        W24099   1.021  14.580   1.297 -0.2806 -0.0911 -0.2359
 5896W        W24100  14.910  14.927   1.892  0.0863 -0.0658 -0.2139
 5897W        W24101  15.941   6.216   1.214 -0.2266 -0.0966  0.0179
 5898W        W24102   0.010  16.316  13.553  0.0615  0.1124  0.0682
 5899W        W24103   0.103   3.434  15.729  0.2307  0.1640  0.2962
 5900W        W24104  11.296   4.688   4.565  0.0468  0.2477  0.2204
 5901W        W24105  10.160   5.621  13.876  0.1232  0.2479  0.2628
 5902W        W24106   2.990   2.823  15.242  0.0437  0.0634  0.0833
 5903W        W24107   9.037   3.758  13.305 -0.0808 -0.1211 -0.1871
 5904W        W24108   6.467  10.122   6.220 -0.0021 -0.1137 -0.0911
 5905W        W24109   4.662  14.778  13.234  0.1110 -0.2582 -0.0368
 5906W        W24110  13.069   7.794  13.375  0.0530 -0.1638  0.1842
 5907W        W24111   9.378  16.212   2.921  0.0238 -0.0415 -0.0880
 5908W        W24112   9.526  15.995   0.808 -0.1257  0.1783  0.0997
 5909W        W24113   4.067   3.710   3.969  0.1454 -0.2032  0.2767
 5910W        W24114   3.806   5.544  15.774  0.1509  0.0049 -0.1132
 5911W        W24115  10.258   6.633   1.658 -0.2058 -0.1046  0.1062
 5912W        W24116  11.006   7.139  16.974  0.2031  0.2889  0.1029
 5913W        W24117  11.133   3.709   1.559  0.1885  0.1295 -0.2650
 5914W        W24118   0.168   0.369  13.392 -0.1588  0.0018  0.1121
 5915W        W24119   4.312  14.288  16.318 -0.0175 -0.2176 -0.0413
 5916W        W24120   8.072  14.316   3.982  0.0876 -0.0685 -0.0394
 5917W        W24121   8.575  15.859  12.279  0.3237 -0.2966  0.1619
 5918W        W24122   6.158  11.149   3.729  0.1937  0.1050 -0.0923
 5919W        W24123   7.882   0.717   2.826  0.0895 -0.1555 -0.0086
 5920W        W24124   5.225   2.119   4.203  0.0514  0.3252 -0.3341
 5921W        W24125   3.509  10.779  17.340  0.0723 -0.0596  0.0764
 5922W        W24126   7.479  13.504   1.736 -0.0401  0.2589 -0.0041
 5923W        W24127  13.986  11.486   2.758  0.2720  0.1543  0.2466
 5924W        W24128  16.144  17.314   4.573  0.1034 -0.1500  0.2323
 5925W        W24129  14.668   4.522   2.382  0.1434 -0.2632  0.1227
 5926W        W24130  15.028   5.180   0.366 -0.0758 -0.1591 -0.3373
 5927W        W24131  15.912   8.741  12.995  0.2180  0.4569 -0.1581
 5928W        W24132  11.546   7.290   2.801 -0.0147 -0.0825 -0.0086
 5929W        W24133  10.179  16.673   0.083 -0.1475 -0.1472 -0.0392
 5930W        W24134   1.135  12.603  17.383  0.0685  0.0659  0.2158
 5931W        W24135  10.829   3.456  13.430 -0.1636 -0.2236  0.0369
 5932W        W24136  10.474   3.682  12.609 -0.1669 -0.5702 -0.0063
 5933W        W24137   4.437  13.512  14.574 -0.1339 -0.2652  0.3332
 5934W        W24138   0.086   8.893  17.253  0.2455  0.1827 -0.2851
 5935W        W24139  16.785  10.163  16.441  0.0440  0.0084 -0.4481
 5936W        W24140   0.443   9.409  12.859  0.0547 -0.2593 -0.4153
 5937W        W24141  12.896   7.445   4.207  0.0685 -0.1421 -0.2335
 5938W        W24142   8.334   3.442  12.641  0.1219 -0.0607 -0.0531
 5939W        W24143   1.071   1.462   1.758  0.0104 -0.1074  0.1151
 5940W        W24144   4.591   0.982  16.651 -0.0791  0.0528 -0.0572
 5941W        W24145   2.378   1.331   5.502 -0.0458 -0.3060  0.0987
 5942W        W24146  10.294  12.722   0.684  0.0256  0.0988 -0.0658
 5943W        W24147   6.586  13.867   1.789  0.1954  0.0996  0.0234
 5944W        W24148   1.761   3.585   1.232  0.0035  0.1850  0.2577
 5945W        W24149  16.322   7.217   4.494 -0.1212 -0.3767  0.1606
 5946W        W24150  11.056   2.620  14.549 -0.0438  0.1506 -0.0763
 5947W        W24151   1.637   4.499   0.910  0.1032 -0.1594  0.1433
 5948W        W24152   3.018  15.860  11.662  0.0447 -0.2915 -0.1688
 5949W        W24153   0.931   4.126   1.950  0.0031 -0.1812  0.0075
 5950W        W24154   0.030   5.328  12.497 -0.2230 -0.2456  0.0042
 5951W        W24155  10.606   4.648  14.599  0.1322 -0.4489  0.0989
 5952W        W24156  13.307  15.934  16.638 -0.0061  0.2288 -0.0206
 5953W        W24157  17.029   9.020  14.998 -0.0111 -0.0789  0.1078
 5954W        W24158  15.157  12.771   2.038  0.1580  0.0472  0.0875
 5955W        W24159   8.186  14.898   2.931 -0.0332 -0.5149  0.2789
 5956W        W24160   0.077   4.787  15.611 -0.1214 -0.3097 -0.0884
 5957W        W24161  13.221   7.117  15.669  0.0771  0.1130  0.2694
 5958W        W24162  10.273   8.896  13.030 -0.3556  0.0357  0.1787
 5959W        W24163   2.378  13.456  15.503  0.1146 -0.4435 -0.0403
 5960W        W24164  14.097   7.384  12.662  0.1493  0.3160 -0.1803
 5961W        W24165  16.568   7.848  14.991  0.1861 -0.1617 -0.1356
 5962W        W24166  10.954   9.353   0.587 -0.2921  0.0154  0.0179
 5963W        W24167   5.874   0.933  12.345  0.2362 -0.0156 -0.3415
 5964W        W24168   1.416   7.528  14.049 -0.1472  0.2750  0.1155
 5965W        W24169   4.723   3.912  17.100  0.1585  0.2522 -0.0407
 5966W        W24170   1.553  10.224  13.105 -0.1431 -0.0492  0.0189
 5967W        W24171   4.241   7.682   1.844  0.1693 -0.2195  0.1647
 5968W        W24172   2.156  16.951  12.483 -0.0050 -0.3781  0.1250
 5969W        W24173  14.467   7.713   2.045 -0.0498  0.3485  0.0551
 5970W        W24174  16.434   3.999  12.971 -0.0086 -0.2324  0.1979
 5971W        W24175   8.952  13.992  15.292 -0.0024  0.2518 -0.1869
 5972W        W24176  10.819  16.053   4.473  0.1623  0.1749  0.2998
 5973W        W24177   5.230   1.614   1.512 -0.0527 -0.0100 -0.0536
 5974W        W24178  16.491  15.519   0.791  0.1485  0.1068 -0.0962
 5975W        W24179  11.626   1.575   3.063 -0.1654  0.0659 -0.1632
 5976W        W24180   4.082  14.992  14.468  0.0429 -0.2244  0.4132
 5977W        W24181   3.146  16.268   1.717  0.1550  0.1682 -0.0792
 5978W        W24182   0.310   5.896   2.781 -0.2951  0.0269 -0.0002
 5979W        W24183   2.331   9.398  15.799 -0.3339 -0.1530  0.1702
 5980W        W24184   8.057  12.668   4.429 -0.1841 -0.1953  0.2490
 5981W        W24185   4.078  11.038   0.831 -0.0554 -0.0895  0.0628
 5982W        W24186  16.540   2.505   0.533 -0.0042  0.0397 -0.0255
 5983W        W24187   6.807   4.627  15.109 -0.2988  0.0096  0.2013
 5984W        W24188   1.548   8.811  14.168 -0.2657  0.0081 -0.2333
 5985W        W24189  16.695  12.708   2.005  0.0693  0.1565 -0.0421
 5986W        W24190   8.132  15.789   1.347 -0.1201 -0.0279 -0.0343
 5987W        W24191   3.570  15.975   1.604  0.1930 -0.0791  0.2417
 5988W        W24192   5.198   7.830  15.614 -0.2225  0.0911 -0.1130
 5989W        W24193   1.654   8.326   3.138 -0.0042  0.1651  0.2764
 5990W        W24194   9.101   0.083   1.715  0.2303 -0.0825 -0.0854
 5991W        W24195   5.427   7.054   1.473  0.0440 -0.0668  0.3553
 5992W        W24196   5.029  11.635  16.357  0.3062 -0.3036  0.0037
 5993W        W24197   2.952  12.360   2.758 -0.2293  0.2569 -0.3784
 5994W        W24198  12.081   9.299   4.450  0.2530  0.0215  0.0039
 5995W        W24199  10.158  10.812  16.714 -0.4892  0.2770  0.1418
 5996W        W24200   7.658   7.700   4.917  0.3192  0.0445 -0.0032
 5997W        W24201   3.022   4.473   3.399  0.1730 -0.0309 -0.0371
 5998W        W24202   6.783  12.946  17.096 -0.0385  0.1332  0.1045
 5999W        W24203   2.042   0.792  17.355  0.1726 -0.0123  0.0721
 6000W        W24204  11.731   9.707  16.195 -0.2241  0.3201 -0.2535
 6001W        W24205   0.399  12.308  14.664 -0.0241 -0.1214 -0.1710
 6002W        W24206  10.639   8.677   1.566  0.1873  0.0017 -0.1895
 6003W        W24207  11.591   9.648   3.769  0.0436 -0.0624 -0.1806
 6004W        W24208  12.626  11.962   2.565  0.1083 -0.1634 -0.1039
 6005W        W24209   6.758  11.399  16.968 -0.0903 -0.0677 -0.0651
 6006W        W24210   3.165  15.096  14.005  0.0799  0.0448 -0.0490
 6007W        W24211  12.779   8.921   3.829 -0.2823  0.1099  0.2929
 6008W        W24212   4.650  12.272  15.755  0.1865 -0.2096 -0.0819
 6009W        W24213  10.659   2.459   5.441  0.2531 -0.0699  0.1300
 6010W        W24214   6.847   1.923   1.782  0.1404 -0.2294 -0.1003
 6011W        W24215   1.161   1.450  15.259 -0.2569 -0.1363  0.0154
 6012W        W24216   5.750  11.404  15.487  0.1272  0.1544  0.1343
 6013W        W24217  15.246  12.081  15.960 -0.4105  0.1962  0.0339
 6014W        W24218   7.093   9.501  13.265 -0.2960 -0.1000  0.1083
 6015W        W24219  10.586   5.297   0.463 -0.1768 -0.0041 -0.0847
 6016W        W24220   8.214   4.307  16.312 -0.3347  0.0859 -0.0086
 6017W        W24221   5.855   2.409   0.814  0.3140  0.0715  0.0242
 6018W        W24222   7.549   7.711  16.555 -0.0644 -0.0483 -0.0627
 6019W        W24223  13.213   5.937  12.069 -0.0890  0.0427  0.1706
 6020W        W24224   9.625   3.848   1.477 -0.3121 -0.1427  0.3259
 6021W        W24225   2.778  14.000   4.231 -0.0440 -0.3435  0.2427
 6022W        W24226  16.599   4.421   1.570  0.2134  0.0884 -0.4963
 6023W        W24227   0.811  12.722   0.246  0.0265 -0.0799  0.1794
 6024W        W24228   5.640   0.977   2.751  0.0111  0.3411  0.2900
 6025W        W24229   8.427   7.896  16.109 -0.2542  0.1800 -0.1973
 6026W        W24230  10.313   3.515  11.317  0.2777 -0.2280  0.0494
 6027W        W24231  15.204  11.626   0.671 -0.1657 -0.0865  0.1248
 6028W        W24232  12.410   6.888  12.774  0.0603  0.1513  0.1895
 6029W        W24233   7.678  12.305  15.843  0.0638 -0.1583 -0.0971
 6030W        W24234  15.636   5.151  15.038 -0.3664  0.0156 -0.3016
 6031W        W24235   6.132  15.031   1.199 -0.2074  0.2807  0.1779
 6032W        W24236  16.600   5.435  14.653 -0.1248 -0.0397  0.0503
 6033W        W24237  15.543  10.335   0.244  0.1808 -0.1578 -0.2521
 6034W        W24238   8.362   6.345   4.659  0.1959 -0.1063  0.1041
 6035W        W24239   5.499  10.781  12.863 -0.1901 -0.0829 -0.0559
 6036W        W24240   3.488   2.654  15.949 -0.3654  0.0271  0.1310
 6037W        W24241  17.127   2.949  17.181 -0.2835  0.5449 -0.2062
 6038W        W24242   9.573   7.038  13.154  0.2221 -0.2963  0.0963
 6039W        W24243   6.158  16.747  13.060  0.4218  0.0476  0.1781
 6040W        W24244  11.037  11.394  12.165  0.0550 -0.1542  0.1373
 6041W        W24245   4.375   4.462   1.814  0.0133  0.1669  0.4136
 6042W        W24246  12.184  17.331  15.870  0.2319 -0.0402 -0.0916
 6043W        W24247   7.570   0.260   2.130 -0.0759 -0.0170 -0.0687
 6044W        W24248  14.251  12.593  13.670 -0.1163  0.0254 -0.0440
 6045W        W24249  10.584   1.103  13.744 -0.0249 -0.4345 -0.0751
 6046W        W24250   2.202   8.717  16.512 -0.2826 -0.1364 -0.0834
 6047W        W24251   6.379  12.346  16.125 -0.0416  0.0743  0.3046
 6048W        W24252   6.408  16.672   5.679 -0.1965  0.2287  0.2068
 6049W        W24253  12.393   1.408   2.381  0.0171 -0.0618 -0.5294
 6050W        W24254   2.874   1.646   4.427 -0.1134  0.0632 -0.1440
 6051W        W24255   5.067  16.809  12.558  0.1713 -0.0363 -0.3478
 6052W        W24256  11.614  10.791  17.365 -0.0427 -0.1551  0.0337
 6053W        W24257  15.998   9.015  16.650 -0.1693  0.4355 -0.1795
 6054W        W24258   4.222  15.934  14.468 -0.1984 -0.5564  0.1166
 6055W        W24259   6.430   3.397  11.759 -0.1001 -0.1766  0.0032
 6056W        W24260   5.128  13.299  12.124  0.1823  0.5524 -0.1514
 6057W        W24261  12.376   3.461  14.762 -0.0550 -0.0434 -0.0805
 6058W        W24262  14.982   8.110  15.462 -0.0347  0.1669 -0.2680
 6059W        W24263   7.861  15.175  14.251 -0.0427 -0.1661 -0.1088
 6060W        W24264   1.660   4.804  12.524  0.2274 -0.2553  0.2095
 6061W        W24265  11.187  15.621  12.556 -0.4881  0.2285  0.0335
 6062W        W24266  15.001   3.672   2.801  0.1204 -0.0521 -0.1535
 6063W        W24267   1.659   3.468   2.246 -0.1572 -0.2509  0.0311
 6064W        W24268   9.405   4.242  17.206  0.1784 -0.0220  0.2489
 6065W        W24269   1.844   2.682   1.516 -0.0078  0.0083  0.1923
 6066W        W24270  15.166   0.645  14.567  0.0048  0.0842 -0.2917
 6067W        W24271  17.242  17.240  13.482  0.0558  0.0268 -0.1062
 6068W        W24272  15.316  16.050  13.131 -0.0533  0.4419 -0.0336
 6069W        W24273   5.254   9.919  13.287 -0.1171 -0.0601 -0.1543
 6070W        W24274  13.137   1.001   5.098  0.2382 -0.1811 -0.1185
 6071W        W24275  15.063   7.097  15.721  0.0363  0.1073 -0.1820
 6072W        W24276   0.826  13.955   1.257  0.1360 -0.1052  0.5661
 6073W        W24277  15.566  11.471  15.035 -0.1898  0.3026  0.0185
 6074W        W24278   0.424  14.284   3.201 -0.0790 -0.0227 -0.0562
 6075W        W24279  10.480  13.461  14.474 -0.2351  0.3111  0.5156
 6076W        W24280   9.331   8.724  15.043 -0.1920  0.0012 -0.0530
 6077W        W24281   8.153  12.618   0.734  0.3038 -0.0172  0.0986
 6078W        W24282  16.848   5.528  13.179 -0.0151  0.0809 -0.1513
 6079W        W24283  17.027  11.841  14.995  0.2377 -0.1532  0.2852
 6080W        W24284   8.684  15.029  13.707  0.1262 -0.0483 -0.1195
 6081W        W24285   1.277   2.201  14.679  0.0093 -0.1713  0.2627
 6082W        W24286  17.138   5.822  15.794  0.0102  0.1932  0.0984
 6083W        W24287  16.801   1.392   3.684  0.2311 -0.1125  0.1446
 6084W        W24288   6.883  15.982   5.909 -0.0306 -0.0930 -0.0502
 6085W        W24289   7.597   2.856   3.249 -0.3197  0.0628  0.1817
 6086W        W24290  14.369   7.561  16.473 -0.1897 -0.2267 -0.0982
 6087W        W24291   4.210  12.478  13.602 -0.2643  0.0578  0.1124
 6088W        W24292   6.381   6.749  12.277  0.1169  0.1647 -0.2537
 6089W        W24293  14.719   3.512  11.792  0.2119  0.1692  0.2052
 6090W        W24294   7.276   7.280  15.344 -0.1630  0.2873  0.1276
 6091W        W24295   5.592   0.854  14.310 -0.1278  0.1272  0.1114
 6092W        W24296   9.658  11.462  13.124 -0.3032 -0.2453 -0.1236
 6093W        W24297  14.754   6.113   3.487  0.3024  0.1162  0.2496
 6094W        W24298   7.427   2.762  16.031 -0.0561  0.0079  0.1363
 6095W        W24299   5.609   8.601  12.885 -0.0941 -0.0580  0.0209
 6096W        W24300   3.023  14.034   0.964  0.2233 -0.1406 -0.0398
 6097W        W24301   7.506   5.641   0.344  0.0340  0.0770 -0.2358
 6098W        W24302   4.122   3.474   1.746  0.0641 -0.1053 -0.3045
 6099W        W24303   5.521  14.013   1.597  0.0616  0.1113 -0.1116
 6100W        W24304   6.989   6.692  14.145  0.2129 -0.1676  0.0515
 6101W        W24305   3.367  11.507   1.475  0.1802  0.3109  0.1568
 6102W        W24306   0.272   5.809  16.618  0.0283 -0.0280  0.0104
 6103W        W24307  10.132  17.291   2.684 -0.1601 -0.1403 -0.1785
 6104W        W24308   7.147   9.614  12.763 -0.1362  0.1045 -0.0841
 6105W        W24309   6.038  14.401   2.382  0.2385  0.0577  0.1783
 6106W        W24310   9.180  10.420   2.820  0.0308 -0.1171  0.2059
 6107W        W24311  10.322  11.494  17.447  0.1902  0.0283  0.0755
 6108W        W24312   5.876  14.209   4.178  0.0271  0.3349 -0.0947
 6109W        W24313   9.569  15.437  12.411  0.1857 -0.0022  0.1989
 6110W        W24314   7.199   8.238  16.788 -0.0871 -0.1029 -0.0828
 6111W        W24315  10.452   2.550   5.897  0.0925 -0.0107  0.0176
 6112W        W24316   1.614   0.863   4.679  0.0872 -0.2286  0.1273
 6113W        W24317  16.773  16.520   2.724 -0.1073 -0.2847  0.1417
 6114W        W24318  11.503  16.493   0.460 -0.1363 -0.3269 -0.1530
 6115W        W24319   7.842  16.655   4.247 -0.0232 -0.0098  0.0610
 6116W        W24320  11.482  14.710  13.187 -0.3132  0.1255  0.2127
 6117W        W24321  13.020  14.078  16.601 -0.0981  0.0070  0.1192
 6118W        W24322  10.995  13.332   2.551 -0.2345  0.0970 -0.1426
 6119W        W24323   8.522  17.086   0.660  0.1396  0.1036 -0.0480
 6120W        W24324  14.702  13.017   5.586  0.3885  0.0760 -0.0879
 6121W        W24325   3.087   7.127   1.065  0.1868  0.0656 -0.4499
 6122W        W24326  12.733   4.564  13.288  0.1270 -0.1057  0.0289
 6123W        W24327   3.862   3.027  15.103  0.2741  0.4612 -0.0374
 6124W        W24328   3.560   6.614  13.701  0.0339 -0.0452  0.0897
 6125W        W24329   3.291  15.993  14.243 -0.3328 -0.0953 -0.3006
 6126W        W24330   0.198  17.017   3.437 -0.0813 -0.3577 -0.0255
 6127W        W24331   9.954   3.793  15.904  0.2176  0.0222  0.0952
 6128W        W24332   6.167   0.581   3.865 -0.0381  0.0901  0.1488
 6129W        W24333   8.793   0.945  16.577  0.3747  0.0980 -0.0061
 6130W        W24334  15.986   0.404  15.760 -0.1758  0.2128 -0.0610
 6131W        W24335   6.266   2.641   4.706  0.2028  0.0720 -0.1455
 6132W        W24336  14.920   2.793  17.067  0.0236  0.1420  0.1784
 6133W        W24337   9.652  11.425   4.233  0.2861  0.1338 -0.1145
 6134W        W24338  10.016   5.437  15.069  0.2603 -0.1768 -0.0861
 6135W        W24339  11.347   7.594  16.045 -0.1396  0.1455 -0.0928
 6136W        W24340  12.562   3.855   1.035  0.0647 -0.0066  0.1854
 6137W        W24341  14.267  11.653   3.677 -0.0235  0.2374  0.1069
 6138W        W24342   7.502   2.848  17.406  0.1071  0.0355 -0.1617
 6139W        W24343   0.694  11.306  15.604 -0.2494 -0.1459  0.3367
 6140W        W24344   1.555  13.383   3.157 -0.0497 -0.0199 -0.1706
 6141W        W24345   8.624  11.299   2.828 -0.1231 -0.1642 -0.0222
 6142W        W24346   9.915  13.905   2.553 -0.1805 -0.1558 -0.1834
 6143W        W24347  13.721   6.724  13.745  0.0557  0.0898  0.1798
 6144W        W24348  11.020  15.783  14.478 -0.0701 -0.2510 -0.0914
 6145W        W24349   2.837  14.418  13.495  0.1243  0.0163 -0.2857
 6146W        W24350  13.770  13.736  15.631  0.1259  0.1988  0.1313
 6147W        W24351  11.870  13.476  12.755  0.0100  0.1695  0.5039
 6148W        W24352  15.316  16.343   0.012  0.2237  0.5594  0.0744
 6149W        W24353   2.456  16.928  16.546  0.1821  0.0611 -0.2457
 6150W        W24354  16.811  11.647   5.585 -0.2446 -0.0313  0.2168
 6151W        W24355  14.519   9.940   5.390  0.0545  0.0226  0.2416
 6152W        W24356  11.749   3.427  16.864 -0.1354  0.3141  0.0635
 6153W        W24357  13.168  15.225   5.019  0.1106  0.2382  0.2935
 6154W        W24358  15.670   5.974  12.116 -0.1377 -0.3532 -0.0191
 6155W        W24359   7.419   9.779  12.390 -0.3662 -0.2035  0.5413
 6156W        W24360   8.185  13.525   0.695  0.0328  0.0785  0.1498
 6157W        W24361   3.936   8.526  14.111  0.2498  0.2249 -0.1600
 6158W        W24362   0.153   6.712  15.635 -0.1176  0.1894 -0.1637
 6159W        W24363  10.969   4.846   2.910 -0.2010  0.2927  0.1294
 6160W        W24364   4.298  11.521   5.405 -0.1283 -0.0748  0.1769
 6161W        W24365  15.561   8.863   3.820  0.3027  0.1341  0.0855
 6162W        W24366  14.618  10.430   0.549  0.4893 -0.0277  0.0331
 6163W        W24367   7.227  11.322  13.994 -0.2903 -0.1444 -0.0908
 6164W        W24368  16.295  13.838  13.922 -0.0384 -0.0421 -0.1116
 6165W        W24369   2.062  17.045  16.246 -0.1873 -0.0819 -0.1246
 6166W        W24370   6.152   9.862   3.636 -0.2192  0.0494 -0.1790
 6167W        W24371  10.767   2.154  14.586 -0.0711  0.0735 -0.0247
 6168W        W24372   4.788   0.887   0.356  0.1991  0.0819  0.1038
 6169W        W24373  13.108   6.884  14.125 -0.1364 -0.1284  0.0145
 6170W        W24374  11.924   9.282  12.128 -0.3206  0.1331  0.2442
 6171W        W24375   2.684   7.071   0.267  0.0211  0.2710 -0.1410
 6172W        W24376  12.574   0.133   4.529 -0.1091 -0.5698 -0.2403
 6173W        W24377  14.056  16.168   3.923 -0.1210 -0.0742  0.1520
 6174W        W24378  12.922  12.084   1.230  0.0211 -0.0427  0.1176
 6175W        W24379   2.467  13.405  17.109  0.2973 -0.1455 -0.0209
 6176W        W24380   3.476  11.139   5.212 -0.1319  0.0427 -0.0828
 6177W        W24381   4.181   3.727  13.991 -0.2156  0.0255 -0.0576
 6178W        W24382  13.830   7.713  17.417  0.1092  0.0469  0.1932
 6179W        W24383   2.198   8.202  16.370 -0.0524  0.0599 -0.0855
 6180W        W24384   7.815   8.976  13.268  0.1449 -0.2322 -0.0530
 6181W        W24385  16.885  12.401  12.906 -0.2609 -0.0209 -0.2005
 6182W        W24386   4.246  11.920   3.139 -0.1241 -0.1008  0.1013
 6183W        W24387   5.762  14.361  17.227  0.0148  0.4067  0.5147
 6184W        W24388   4.489  12.770  13.302 -0.0629  0.0670 -0.1486
 6185W        W24389   2.659   2.783  17.190 -0.3760 -0.2397 -0.1677
 6186W        W24390  13.324  12.161   3.270  0.1758 -0.1233 -0.3009
 6187W        W24391  16.342   8.976  13.779 -0.3911  0.3260  0.2871
 6188W        W24392   0.218   4.746   0.826 -0.2356  0.1807 -0.4186
 6189W        W24393   5.546  15.169   4.426 -0.1732  0.2719 -0.2735
 6190W        W24394   7.906   1.076   5.074 -0.2090  0.1675 -0.1844
 6191W        W24395  16.688   9.934  14.821 -0.0049  0.1108 -0.0527
 6192W        W24396   7.991   1.390   2.753 -0.0575  0.0356  0.2063
 6193W        W24397   7.986  14.900   4.684  0.3266 -0.3956 -0.2206
 6194W        W24398  11.987   6.446   5.017  0.0537 -0.3244 -0.1020
 6195W        W24399   2.283   7.586  13.427  0.1384 -0.0812  0.0607
 6196W        W24400   2.361  16.745  12.047  0.1401  0.1875 -0.1064
 6197W        W24401  17.080  12.301   2.732  0.2041  0.0081 -0.0957
 6198W        W24402  16.983   1.464  17.290 -0.0503 -0.2327 -0.0981
 6199W        W24403   1.554  14.535   3.523  0.0402 -0.1034  0.2406
 6200W        W24404   9.306   6.059  15.297  0.0537 -0.1310 -0.0722
 6201W        W24405   1.926   5.016   3.667 -0.0320 -0.1285 -0.0122
 6202W        W24406   4.503  17.292  16.504 -0.0945  0.0074 -0.1638
 6203W        W24407   7.003  14.167  14.253  0.0124 -0.1506  0.0654
 6204W        W24408  14.392   3.331   4.559 -0.2574  0.1810  0.1262
 6205W        W24409   1.397   9.143   4.592 -0.2078 -0.3071  0.0920
 6206W        W24410   5.100   6.429  12.600  0.1488  0.0940  0.0553
 6207W        W24411   2.365  16.047   4.092 -0.2665 -0.1272 -0.0049
 6208W        W24412   2.448   4.915  13.855  0.1029  0.1583  0.1142
 6209W        W24413   9.516  14.617   2.306  0.1358 -0.0432 -0.0703
 6210W        W24414   4.173  10.160  13.676 -0.1482 -0.1014 -0.1278
 6211W        W24415  10.322  14.437  15.367  0.3400  0.0024  0.1335
 6212W        W24416   4.890   9.537   0.022  0.3251  0.0507  0.2278
 6213W        W24417  12.710  10.446   3.831  0.0174 -0.1699 -0.3186
 6214W        W24418   3.492  12.271  11.553  0.1344  0.0426 -0.1812
 6215W        W24419  17.285   6.981   4.014 -0.0527 -0.5336 -0.2426
 6216W        W24420  10.409   0.927  12.219 -0.1836  0.3392  0.0618
 6217W        W24421   5.859   7.159  13.926  0.0210 -0.0514  0.0374
 6218W        W24422   0.140  16.062   5.163  0.1247 -0.4934 -0.1616
 6219W        W24423   8.520   1.855  16.684 -0.1922  0.0383  0.0466
 6220W        W24424  14.304   6.292  14.807 -0.0520  0.1585  0.2059
 6221W        W24425  11.984   0.317   0.399 -0.0275  0.1629  0.3586
 6222W        W24426  14.276   4.923  13.727  0.3229  0.0114  0.2939
 6223W        W24427  14.280  14.049   6.612 -0.0083 -0.1851 -0.0365
 6224W        W24428   4.317   0.477  13.259 -0.0848  0.0003  0.1332
 6225W        W24429  16.806  15.411  11.320 -0.4070  0.1424 -0.0675
 6226W        W24430   8.409   5.562  13.054  0.0997  0.0649  0.0357
 6227W        W24431  17.114  12.586  17.431 -0.0671 -0.3970 -0.1278
 6228W        W24432   9.606   7.448  17.468  0.0681  0.1048 -0.1539
 6229W        W24433   5.399   0.505  11.588  0.0105 -0.0587 -0.1211
 6230W        W24434  13.802  17.328   0.421  0.2459 -0.1023  0.0659
 6231W        W24435   0.073   1.162   4.442 -0.0460 -0.3187  0.0775
 6232W        W24436   8.486   8.593  14.998  0.0867  0.1520  0.0582
 6233W        W24437   5.391  15.728   0.375  0.0222  0.3171  0.0936
 6234W        W24438  14.668   5.145   1.761 -0.0539  0.1653  0.1472
 6235W        W24439   0.317   8.268  16.792  0.0368  0.1466  0.0856
 6236W        W24440  10.257   1.660  15.401 -0.4582  0.0843 -0.1768
 6237W        W24441  13.498   7.041  16.789 -0.1099  0.0913  0.0414
 6238W        W24442   1.805   9.517   3.340 -0.1471  0.2775 -0.0544
 6239W        W24443  10.314   4.153   1.135 -0.0967 -0.1562  0.2206
 6240W        W24444   6.809   8.610   1.037  0.0093  0.0842 -0.0380
 6241W        W24445   6.918   3.447   0.379 -0.4917 -0.0862  0.0178
 6242W        W24446  15.678   0.049  16.507 -0.0871 -0.0435 -0.3642
 6243W        W24447   1.460   2.495  16.102 -0.1462 -0.0184  0.0058
 6244W        W24448   2.615  11.873  12.460 -0.3348 -0.1697 -0.2503
 6245W        W24449  16.072   7.534  13.026 -0.1641  0.1305  0.0940
 6246W        W24450   2.333   3.158  12.098  0.0431 -0.1152 -0.0478
 6247W        W24451   8.701  15.700   3.884 -0.1121  0.2082  0.0855
 6248W        W24452   1.779  13.131   2.752  0.1008 -0.0429 -0.3639
 6249W        W24453  15.047   2.765   5.031 -0.1782  0.1894  0.2086
 6250W        W24454   8.444  17.153  15.525 -0.0351 -0.2479 -0.2909
 6251W        W24455   8.845  14.836   5.059 -0.0515  0.0016  0.0166
 6252W        W24456  16.756  17.173  12.157 -0.2003  0.0852 -0.2800
 6253W        W24457  11.779   9.560  15.401  0.1466 -0.0517 -0.1160
 6254W        W24458  15.531   5.875   1.309  0.0878 -0.1068  0.1238
 6255W        W24459   9.546   1.637  17.504 -0.1721 -0.1916 -0.0603
 6256W        W24460  11.786   9.623   3.251  0.0264 -0.0106  0.1314
 6257W        W24461  11.780   1.846  16.354  0.0788 -0.1582  0.0132
 6258W        W24462   7.634   5.390   3.574  0.3311  0.2537  0.2133
 6259W        W24463   3.169   7.769  15.490  0.2214  0.1264 -0.2530
 6260W        W24464   5.246   3.697   5.172  0.0158 -0.0395  0.1341
 6261W        W24465   6.612  11.597   4.622 -0.3013  0.1040 -0.1717
 6262W        W24466   8.540  10.038  14.483 -0.1588  0.2544  0.1941
 6263W        W24467  10.061  16.888  13.351  0.0971  0.1728  0.0134
 6264W        W24468  13.099  10.574   5.668 -0.1887  0.0223 -0.1891
 6265W        W24469   5.294   3.854   4.037  0.4535 -0.4079 -0.0768
 6266W        W24470   4.083   6.793  13.891  0.0474  0.3341  0.1542
 6267W        W24471  13.057  15.544   0.053  0.1026 -0.0107 -0.1105
 6268W        W24472   6.331   6.421   0.055  0.2315 -0.1098  0.1351
 6269W        W24473   6.921  11.995  17.329 -0.3042 -0.0556  0.0424
 6270W        W24474   0.409   5.883  13.591  0.2813  0.1234 -0.2888
 6271W        W24475   0.556   5.735  14.457  0.2024 -0.2618 -0.0443
 6272W        W24476   8.949  12.808   5.005  0.0067  0.2337 -0.1843
 6273W        W24477  12.084   0.996  16.689 -0.2106 -0.1403  0.0615
 6274W        W24478  11.747   2.848  16.985  0.1386 -0.0587 -0.2501
 6275W        W24479  16.048  14.409   3.597 -0.1449 -0.3424 -0.0680
 6276W        W24480  14.445   9.581   0.307 -0.2658 -0.3096 -0.0729
 6277W        W24481   6.303   9.181  12.610  0.0559 -0.0755  0.0313
 6278W        W24482   1.722   6.787  15.934  0.1139 -0.0277  0.0503
 6279W        W24483   0.269   7.959  15.782 -0.1755  0.0575 -0.2461
 6280W        W24484  14.490   2.649  16.316  0.1440 -0.1347 -0.1098
 6281W        W24485   7.822   8.395   1.831  0.0406  0.1947  0.0145
 6282W        W24486   7.607  15.142  13.405 -0.0675  0.1109  0.5218
 6283W        W24487   6.163   4.388  14.580 -0.2195  0.1499  0.0232
 6284W        W24488  17.077   3.405   1.748  0.2019 -0.0877  0.1357
 6285W        W24489   0.694   1.841   1.631 -0.2392 -0.3760  0.1120
 6286W        W24490   2.439  14.738  13.749  0.2828  0.2141 -0.1820
 6287W        W24491   4.260   7.974  15.606  0.2027  0.1626  0.0698
 6288W        W24492  12.020   2.538   2.179  0.0949 -0.1118  0.1682
 6289W        W24493   5.065   3.257   5.160  0.1578  0.0897  0.1378
 6290W        W24494   4.781   0.965  14.338  0.4127  0.1007  0.2144
 6291W        W24495   9.545   4.247   5.287 -0.0414 -0.3045 -0.4072
 6292W        W24496   3.232   1.938  12.537  0.2716 -0.0127  0.3328
 6293W        W24497  14.891   5.455  15.861  0.1228 -0.1401  0.1800
 6294W        W24498   7.851  13.839  15.482  0.3306  0.1391 -0.1163
 6295W        W24499   9.900   8.927   2.016 -0.2186  0.1128 -0.0800
 6296W        W24500   2.269   3.670   3.183 -0.0435 -0.0252  0.0536
 6297W        W24501  13.970   2.867   2.848 -0.0343  0.3590 -0.2228
 6298W        W24502   8.191  16.544  14.830 -0.2219 -0.1772  0.0785
 6299W        W24503  11.159   0.333  13.211 -0.0738  0.0757 -0.1982
 6300W        W24504  15.376   5.558   4.401  0.1536  0.0756 -0.0708
 6301W        W24505  11.299   5.603  12.341 -0.3392 -0.1151 -0.2095
 6302W        W24506  10.319   9.301  14.351 -0.1550 -0.0570  0.3530
 6303W        W24507   1.998   2.472  16.099  0.1832  0.0735 -0.0165
 6304W        W24508   4.400  16.539  17.460  0.0687 -0.1855  0.1939
 6305W        W24509   4.034  16.738  17.209 -0.0381 -0.0159  0.1700
 6306W        W24510  13.782   7.705  16.596 -0.3055 -0.1408  0.0779
 6307W        W24511  10.915  10.552  15.581 -0.0407 -0.1277  0.0887
 6308W        W24512  17.186  15.103   3.961 -0.1968  0.2246  0.1843
 6309W        W24513  13.869  12.431   2.883  0.0378 -0.3326 -0.0505
 6310W        W24514   6.592   6.048   0.265  0.2639  0.2813  0.0484
 6311W        W24515  13.889  14.903  14.517 -0.3388 -0.2339 -0.1916
 6312W        W24516   0.772   3.417  14.682  0.2248 -0.2504  0.1370
 6313W        W24517  13.513   5.429  14.310 -0.0616 -0.1379  0.1058
 6314W        W24518   1.741  13.312   5.310  0.2869  0.0488 -0.1760
 6315W        W24519   7.355   0.101  14.125 -0.0339 -0.0167 -0.1493
 6316W        W24520  12.481  14.163  15.229 -0.0468  0.1191 -0.0644
 6317W        W24521   2.523   6.875   2.324 -0.4240  0.2157 -0.0975
 6318W        W24522   1.164  13.912  16.823  0.2245  0.0239 -0.1671
 6319W        W24523   8.571  14.787   0.578  0.0250 -0.0362 -0.0925
 6320W        W24524  17.252   6.163  14.604 -0.1859  0.1839  0.2132
 6321W        W24525   7.360  17.079  11.324 -0.0179  0.0776 -0.1471
 6322W        W24526   2.379  11.419   1.868  0.1793 -0.0480 -0.1973
 6323W        W24527  14.493   7.782  11.839 -0.1230 -0.0573  0.4691
 6324W        W24528  10.711   6.866   5.734  0.0703 -0.3785  0.1945
 6325W        W24529   9.222  15.947  12.733 -0.0205  0.0899 -0.1523
 6326W        W24530   2.367   4.898  15.514  0.0334  0.2539 -0.0089
 6327W        W24531  15.042  16.463   4.389 -0.1476  0.0186 -0.1568
 6328W        W24532   1.693   5.097  16.454  0.0993 -0.0801  0.0290
 6329W        W24533  12.000   1.942   4.758 -0.0710  0.0655 -0.1873
 6330W        W24534  10.660  15.668  16.565 -0.2840 -0.0195 -0.2228
 6331W        W24535  13.403  16.094  15.467 -0.3423 -0.0157  0.0726
 6332W        W24536   5.367   1.765   3.361  0.2931  0.0026  0.0168
 6333W        W24537  13.739   0.256  17.167 -0.0827  0.0107 -0.3355
 6334W        W24538   9.154   8.109  13.443 -0.2645  0.2812 -0.0169
 6335W        W24539   5.859  11.844  12.549  0.3362 -0.3067 -0.1874
 6336W        W24540   9.004   0.978  16.097 -0.1139  0.4137 -0.0622
 6337W        W24541   8.521  11.547   2.344 -0.3491 -0.0584  0.1511
 6338W        W24542  15.389  17.229  13.643  0.1097  0.2052  0.0002
 6339W        W24543  10.402   9.986  17.186  0.1666 -0.2235  0.1184
 6340W        W24544  14.155  15.625   5.672  0.2345  0.0402 -0.1479
 6341W        W24545  10.438   7.115   2.523  0.3549  0.1535  0.2873
 6342W        W24546   0.632   2.928  16.431  0.1196  0.1646  0.2032
 6343W        W24547   9.947   9.016   3.127 -0.0107 -0.0817 -0.0303
 6344W        W24548   1.656  16.640  14.231  0.0104 -0.3214  0.1112
 6345W        W24549  14.465  17.261  13.957 -0.1795  0.1881 -0.2322
 6346W        W24550   2.048   2.132  15.770 -0.2253  0.1847 -0.0669
 6347W        W24551   4.109   0.854  16.505  0.1143 -0.3696  0.0932
 6348W        W24552   7.937   3.223   0.804  0.2433 -0.0103  0.2861
 6349W        W24553   4.081  13.603   5.290  0.1114  0.1530  0.2666
 6350W        W24554   2.769  13.252  16.692 -0.2172  0.1615 -0.3284
 6351W        W24555   5.614   3.872  16.135  0.2081 -0.0695 -0.2418
 6352W        W24556   7.098   9.617   1.267 -0.2047  0.0206 -0.0711
 6353W        W24557  15.836   2.169   5.202  0.1660  0.2988 -0.1743
 6354W        W24558   7.003   5.127  16.023 -0.0749  0.2012 -0.1572
 6355W        W24559  11.093   3.834   3.726 -0.0815  0.0321 -0.1558
 6356W        W24560   0.469  14.205   1.909 -0.1215 -0.1426  0.0446
 6357W        W24561   3.484   8.169   4.267 -0.3148  0.3338 -0.1894
 6358W        W24562  11.379   6.127  12.189 -0.0890 -0.1738 -0.1304
 6359W        W24563  14.558  14.638  15.318 -0.1350 -0.0027 -0.1568
 6360W        W24564  13.764  16.119   4.300 -0.2628  0.0115  0.0478
 6361W        W24565   5.944  13.219   4.487  0.1371 -0.0127 -0.2118
 6362W        W24566   5.868   2.727   3.250  0.0823  0.1833 -0.1006
 6363W        W24567   3.721   1.990  15.571  0.0589 -0.1438 -0.1997
 6364W        W24568  11.746   0.316  16.684 -0.2063  0.0559 -0.0424
 6365W        W24569   5.788   7.536   3.893 -0.0499  0.2428 -0.0983
 6366W        W24570  13.078   3.276  12.455 -0.0725 -0.1453 -0.0861
 6367W        W24571  11.766   8.494   6.470  0.3954  0.1350  0.0647
 6368W        W24572  15.020  12.416   4.679  0.0054  0.0235 -0.1156
 6369W        W24573  13.218  12.297  14.919 -0.0238  0.0606 -0.0406
 6370W        W24574   4.114  14.894   1.392 -0.0224  0.1989  0.0818
 6371W        W24575   4.116  11.314  12.644  0.0145  0.0540  0.0824
 6372W        W24576  11.458   6.233  14.981 -0.0113 -0.2622 -0.0811
 6373W        W24577  16.228  15.569   4.347 -0.0096 -0.3257 -0.2175
 6374W        W24578  12.235   0.634  13.847 -0.0678 -0.0598 -0.0430
 6375W        W24579  16.652   5.642   1.007  0.0562 -0.2368  0.1177
 6376W        W24580   9.906   7.994  13.266 -0.2031 -0.2723 -0.0633
 6377W        W24581   8.068   1.185   4.604  0.0928 -0.3741  0.0614
 6378W        W24582   1.364  12.504  15.885 -0.4313 -0.0342  0.1162
 6379W        W24583  13.765   3.419  12.988 -0.1662  0.2690 -0.0386
 6380W        W24584   2.031   2.807  12.836  0.0571  0.1673 -0.1370
 6381W        W24585  14.362   3.637  16.837 -0.0303 -0.1310 -0.1778
 6382W        W24586   3.907  12.904  11.938  0.0917  0.1511 -0.5652
 6383W        W24587   2.176  15.298   1.130 -0.2448 -0.0154 -0.1711
 6384W        W24588  12.278   1.319  16.378  0.0278 -0.0987  0.1207
 6385W        W24589  14.952   6.298  13.557  0.2822 -0.3910 -0.0830
 6386W        W24590  11.642  11.089  14.402  0.5123 -0.5199  0.0519
 6387W        W24591   9.101  13.310   4.323  0.0658 -0.1557 -0.1501
 6388W        W24592  16.686  11.325  13.214 -0.1718 -0.1028 -0.3167
 6389W        W24593   4.762   4.211   0.545  0.2016 -0.0865  0.2586
 6390W        W24594  10.644  14.592   3.619 -0.4126  0.1353  0.0973
 6391W        W24595  12.845   6.474   0.992 -0.2032 -0.0009  0.3466
 6392W        W24596   7.261   1.636  15.519  0.2214  0.0479  0.1317
 6393W        W24597   4.202   3.675  15.496 -0.0001  0.1758 -0.0338
 6394W        W24598  16.878  15.252  12.895 -0.0599 -0.3182 -0.1853
 6395W        W24599  17.168   4.125  13.923  0.0328 -0.2323 -0.1175
 6396W        W24600   6.277  14.619   4.721 -0.0039 -0.1566  0.1305
 6397W        W24601   9.651  13.664  16.723 -0.0975 -0.2305  0.1072
 6398W        W24602   1.750  12.111   0.991  0.1100  0.0346 -0.2247
 6399W        W24603   0.193   6.743   4.832  0.2995  0.0599  0.1471
 6400W        W24604   2.880   6.548  12.488 -0.1755 -0.0734 -0.1012
 6401W        W24605   9.190  13.454   0.879 -0.2138  0.0833  0.1537
 6402W        W24606   3.223  16.244   4.978  0.0525  0.1165 -0.1857
 6403W        W24607   2.596  15.821  15.473 -0.0975 -0.0415 -0.0328
 6404W        W24608  10.507  12.740   5.177  0.1701 -0.0659  0.1280
 6405W        W24609  10.105   0.350  13.752 -0.1426  0.2079 -0.1556
 6406W        W24610   9.623  17.212  15.067 -0.0791 -0.3477 -0.0343
 6407W        W24611  13.788   6.597   3.992 -0.0459  0.1007  0.2775
 6408W        W24612  15.764   9.791  14.525 -0.0411  0.1367  0.1939
 6409W        W24613   9.997  10.687   1.401  0.1278 -0.0645  0.0945
 6410W        W24614  13.182   0.690   5.628  0.2432 -0.1864 -0.1442
 6411W        W24615   8.776  14.817  15.289 -0.1187 -0.4212 -0.0487
 6412W        W24616  11.387   3.988   5.713 -0.0299  0.0131 -0.1927
 6413W        W24617   8.201   2.521  13.959 -0.0316  0.1264 -0.0071
 6414W        W24618   1.846  13.258   3.548 -0.2250 -0.0728 -0.0208
 6415W        W24619   3.750  10.118  16.900  0.1389 -0.2977 -0.1963
 6416W        W24620   4.512   0.835  15.239  0.2519  0.2555 -0.0423
 6417W        W24621   2.452   1.113   4.119 -0.2176 -0.0522  0.0300
 6418W        W24622   6.958  16.393   2.663 -0.2047  0.1240  0.1137
 6419W        W24623   9.305   6.378   3.304  0.0224 -0.0081  0.0055
 6420W        W24624   6.762  16.236   5.140  0.1802  0.3696 -0.0389
 6421W        W24625   4.754   3.885  16.048  0.1917 -0.2736  0.2258
 6422W        W24626   8.115  13.259   5.244 -0.1176 -0.1417  0.3345
 6423W        W24627   3.771   8.924  13.154 -0.0380 -0.2726  0.1792
 6424W        W24628  16.245   5.016  14.427  0.0643  0.1185 -0.1948
 6425W        W24629   8.572   9.663   0.684 -0.1638  0.4682  0.5347
 6426W        W24630  16.771  13.842   2.828 -0.1862  0.2699  0.0758
 6427W        W24631  16.510   2.202  12.496 -0.2640  0.1786 -0.1826
 6428W        W24632   1.305   8.536  16.540  0.0461  0.0193 -0.1878
 6429W        W24633   9.632  15.498   2.732  0.1720  0.0004 -0.2453
 6430W        W24634   3.425   6.017  12.891 -0.0616 -0.1431 -0.0916
 6431W        W24635   6.165   2.950   2.776 -0.0244  0.0276  0.0282
 6432W        W24636   0.655   7.159   0.778  0.1290  0.0665 -0.0555
 6433W        W24637   4.269   6.082   4.420 -0.0313  0.1940 -0.1844
 6434W        W24638   6.963   6.036   3.661 -0.2241 -0.0222  0.0954
 6435W        W24639  12.347  11.304   0.130  0.0186  0.1549  0.0767
 6436W        W24640  15.967   5.020   1.236  0.0218 -0.0279 -0.0783
 6437W        W24641   7.130   8.678  12.172  0.1384  0.1015 -0.2412
 6438W        W24642  14.210   0.853   3.666  0.0237  0.0550  0.1134
 6439W        W24643  15.699   4.871  17.325 -0.3571 -0.2910  0.1387
 6440W        W24644   7.539  12.874   0.702  0.0312  0.0910 -0.0330
 6441W        W24645  14.833   7.657  13.185  0.0622 -0.1402 -0.1153
 6442W        W24646   0.895   0.093  14.884  0.0511 -0.0691  0.0571
 6443W        W24647  17.327   0.654   4.466  0.1286 -0.2761  0.1215
 6444W        W24648   8.713   1.177  15.723 -0.0423 -0.0544 -0.1465
 6445W        W24649   8.731   1.774   2.388 -0.0995  0.1063  0.1685
 6446W        W24650   9.169   4.532   4.457 -0.1197 -0.2805  0.0666
 6447W        W24651   9.666  11.427  12.449 -0.0006 -0.1676 -0.0480
 6448W        W24652   9.377   1.224   0.164  0.0809  0.1572 -0.1436
 6449W        W24653  10.453   0.302  15.415 -0.1861  0.1913 -0.0117
 6450W        W24654   0.005   7.182  17.084 -0.0586 -0.0683  0.0115
 6451W        W24655   9.753  10.693   4.757  0.1405  0.0399  0.1621
 6452W        W24656  10.017   6.822   2.546 -0.1892 -0.1021  0.0718
 6453W        W24657  12.633   6.847   1.572  0.2578  0.0116  0.0928
 6454W        W24658  15.055  13.354  13.491  0.2027 -0.0873  0.2685
 6455W        W24659   1.046  15.757  13.880  0.0760  0.1391  0.0659
 6456W        W24660   2.137   8.684  15.099  0.1651 -0.3117 -0.0369
 6457W        W24661   6.898   7.233   4.539  0.2224  0.2157  0.4587
 6458W        W24662   9.035  12.089  16.680  0.0442  0.0748  0.1173
 6459W        W24663   5.187  13.416  14.879  0.0318 -0.0262  0.2969
 6460W        W24664   7.525  15.718   4.490 -0.2532  0.1518 -0.0616
 6461W        W24665   8.539  16.443   3.646 -0.0499 -0.0399 -0.0511
 6462W        W24666  12.433   8.516   5.224  0.0385  0.1332 -0.1748
 6463W        W24667  13.272  13.462  15.874 -0.0421 -0.0071  0.1958
 6464W        W24668   7.972   8.125  13.278 -0.0989  0.1437  0.1161
 6465W        W24669  15.446   9.061  14.192  0.2912 -0.2093  0.0355
 6466W        W24670  15.745  16.675  14.911  0.0853 -0.0695  0.2959
 6467W        W24671  14.988   9.033  17.106  0.2335  0.2190 -0.1824
 6468W        W24672  12.216   5.018   1.137 -0.0684 -0.0006  0.1800
 6469W        W24673  11.687  15.452  12.419 -0.0320  0.0638  0.2056
 6470W        W24674  15.801   0.919   3.293  0.1194  0.0171  0.0739
 6471W        W24675   0.720   0.905  14.891 -0.1871  0.0998  0.1149
 6472W        W24676   3.287  16.251  13.284  0.0248  0.3869 -0.1307
 6473W        W24677  16.715  12.901  14.975 -0.0219 -0.0545  0.2122
 6474W        W24678   3.517  15.058   4.157 -0.1784  0.1090 -0.0866
 6475W        W24679  13.504   9.809  13.221 -0.1317 -0.2388  0.2074
 6476W        W24680   4.660  10.734   0.667  0.0788 -0.2295  0.1190
 6477W        W24681  10.678   2.811  11.772  0.0905 -0.0159 -0.1388
 6478W        W24682   9.680  15.902   4.773  0.1031 -0.1752 -0.1217
 6479W        W24683  16.596   6.771  14.638 -0.0496  0.1747  0.2101
 6480W        W24684  16.048   6.025  13.402  0.2005  0.3900 -0.1141
 6481W        W24685   5.892   1.429  12.297  0.2714 -0.1431 -0.3042
 6482W        W24686  10.284   4.712   1.268 -0.4058 -0.1494  0.0999
 6483W        W24687  13.516  14.800  16.563  0.4544 -0.1091  0.4134
 6484W        W24688  10.542   0.283   2.720  0.4434 -0.0401 -0.0895
 6485W        W24689   1.850   5.486  12.057  0.2167  0.1192  0.0427
 6486W        W24690  10.511   3.165  12.556  0.2968 -0.2711 -0.0308
 6487W        W24691   7.480   0.980  17.522 -0.1568 -0.1214 -0.2495
 6488W        W24692   2.484   0.452   0.564  0.0218 -0.0459  0.3188
 6489W        W24693   3.185   9.048   4.402  0.1026 -0.0559  0.1018
 6490W        W24694   0.915   3.167   0.169 -0.1020  0.0166  0.1569
 6491W        W24695  11.124  13.355   5.092  0.0538 -0.1405  0.1479
 6492W        W24696   2.922   2.686  13.744  0.0038 -0.0128 -0.3930
 6493W        W24697   5.222   1.929   1.895 -0.2466  0.1233 -0.3647
 6494W        W24698  15.032   6.713   4.409 -0.0064  0.2489 -0.1218
 6495W        W24699   1.209  16.317  12.442 -0.1944  0.0480 -0.0501
 6496W        W24700  14.226  13.127  15.494  0.3720 -0.2213  0.1972
 6497W        W24701  17.041  15.022  14.792 -0.2270  0.2364  0.1473
 6498W        W24702  16.912   6.722   5.048  0.0685 -0.0128  0.1504
 6499W        W24703   1.952  15.976  14.126  0.0210  0.1152 -0.0288
 6500W        W24704   5.642  11.887  15.143  0.1945 -0.5294 -0.1972
 6501W        W24705   8.577  10.344   4.006  0.1495  0.0396 -0.0890
 6502W        W24706  12.414  16.238  13.357  0.1111 -0.0448 -0.0072
 6503W        W24707   3.201  15.669   0.047  0.1786 -0.4207 -0.1230
 6504W        W24708  14.802  15.364   3.653 -0.1758  0.0321  0.1407
 6505W        W24709   8.457  16.364  14.390 -0.1761 -0.2462  0.0351
 6506W        W24710   1.226   7.078   1.488 -0.1926  0.2189  0.0296
 6507W        W24711  15.339   9.744  14.858 -0.0469 -0.1911  0.0115
 6508W        W24712  14.171  12.826  12.749 -0.0199  0.0777 -0.0137
 6509W        W24713   8.284   4.655  15.179  0.1731 -0.3218  0.3130
 6510W        W24714  12.940  15.083   0.916  0.1057 -0.1717  0.0825
 6511W        W24715  16.541   1.968  16.606  0.2294 -0.1977  0.0278
 6512W        W24716   5.237  10.955  14.206  0.0501  0.0887  0.1171
 6513W        W24717  13.596   8.955   4.431  0.1966  0.3173 -0.2041
 6514W        W24718  11.245  14.543   0.313  0.1083 -0.0463  0.1569
 6515W        W24719   8.843  16.531  14.763  0.3608  0.1860 -0.2221
 6516W        W24720   6.534   3.049   2.422 -0.1314  0.2707  0.1394
 6517W        W24721   5.209  10.710   4.868 -0.0260  0.0901  0.3179
 6518W        W24722   9.892  14.967  12.327 -0.0262 -0.1266  0.2757
 6519W        W24723  10.362   6.040   2.537 -0.0558  0.2981  0.0029
 6520W        W24724  13.816   8.402  13.732 -0.0093 -0.1095  0.0381
 6521W        W24725  15.286   7.267   4.572 -0.2208 -0.0774 -0.1894
 6522W        W24726  15.658   9.236   4.107  0.0503 -0.0929  0.1720
 6523W        W24727   7.425  15.820   5.144  0.0504 -0.1194  0.0019
 6524W        W24728  14.930  16.533   0.257  0.0174  0.0529 -0.0079
 6525W        W24729   4.765  14.393   0.525  0.1308  0.0005  0.0854
 6526W        W24730  16.846   5.619  12.688  0.1065 -0.0495 -0.2591
 6527W        W24731   2.140  11.967   0.178 -0.2201 -0.0513 -0.3801
 6528W        W24732   0.603   8.041  14.219 -0.0050 -0.1903 -0.2690
 6529W        W24733  13.578  12.316  15.363 -0.0776 -0.1326  0.0557
 6530W        W24734  11.728  15.558   1.653  0.0856  0.0747  0.0778
 6531W        W24735   5.971  13.721   4.303  0.1969 -0.1795 -0.1967
 6532W        W24736   0.962   2.578   4.234  0.1199  0.1066 -0.0825
 6533W        W24737  16.997   8.030  14.606  0.0984  0.1012 -0.1602
 6534W        W24738  15.960   2.316  14.085 -0.1753  0.1899  0.0788
 6535W        W24739   3.912   9.246  16.492 -0.1912 -0.0597  0.2061
 6536W        W24740   0.482   3.520  16.119 -0.1041  0.0118  0.0197
 6537W        W24741   2.668   9.765   0.691  0.0353  0.1196  0.0876
 6538W        W24742   9.099   4.678  12.243  0.2263 -0.1827 -0.4650
 6539W        W24743  14.456  12.970   0.165  0.2143 -0.0541  0.0943
 6540W        W24744  11.392   8.856   3.054  0.0609  0.1191 -0.0103
 6541W        W24745   8.014   4.871  14.708 -0.0738  0.0839  0.4944
 6542W        W24746   5.398  15.316   1.838 -0.0315  0.1178 -0.1113
 6543W        W24747  12.644   1.391   1.408  0.1084  0.0311 -0.1196
 6544W        W24748   2.346  11.314   4.664 -0.1500 -0.3965  0.1040
 6545W        W24749   9.168   2.382   1.780 -0.1760 -0.0469  0.1304
 6546W        W24750   1.649   2.869  17.211 -0.1243  0.1338 -0.1824
 6547W        W24751  13.264   6.195  17.112 -0.1717  0.1257  0.0917
 6548W        W24752   4.751   5.622   0.330 -0.1616 -0.1432 -0.1357
 6549W        W24753  11.188   4.664   0.500  0.0594  0.3177 -0.1285
 6550W        W24754   4.429   9.847   0.212  0.0118 -0.3198  0.1100
 6551W        W24755   9.030   6.190  17.136  0.2033  0.1595 -0.1090
 6552W        W24756  12.124   0.732  14.304  0.2438  0.1105 -0.1575
 6553W        W24757  16.066   0.770  16.230 -0.0521 -0.1397 -0.2814
 6554W        W24758  14.205  11.081  16.443  0.2442 -0.2841 -0.0435
 6555W        W24759  14.285  12.526   1.022  0.1086  0.0273  0.0197
 6556W        W24760  12.644  10.188  14.628 -0.2317 -0.3573 -0.4108
 6557W        W24761   8.478   5.051  15.429 -0.3026 -0.0754 -0.0410
 6558W        W24762   2.644  16.055  12.678  0.1652  0.1081  0.1542
 6559W        W24763   2.525   4.839  16.949  0.1873 -0.0753  0.3356
 6560W        W24764  15.032  16.430  12.912  0.0422  0.0134  0.0208
 6561W        W24765  10.846  15.628   1.080  0.2683  0.1296 -0.2098
 6562W        W24766   3.749   2.991  14.118  0.1432 -0.1192 -0.0736
 6563W        W24767  13.391   5.960  13.739  0.3032 -0.0505  0.0914
 6564W        W24768   9.742  11.279   1.243 -0.1986  0.0554  0.1497
 6565W        W24769   0.151   6.695  13.276 -0.2480  0.2684  0.0145
 6566W        W24770   0.018   1.800  12.990  0.0841  0.1169 -0.1321
 6567W        W24771  10.677  10.888   3.715  0.3113 -0.2727 -0.0847
 6568W        W24772  11.013   1.888  17.012  0.2028  0.1689  0.2404
 6569W        W24773   2.117   5.372  16.355 -0.0761  0.0826 -0.2949
 6570W        W24774   8.095   2.709  14.868 -0.0244  0.0427 -0.1795
 6571W        W24775  12.178   1.418   4.965  0.0371  0.1093  0.1825
 6572W        W24776   3.954  15.671   3.211  0.1652  0.0816 -0.0313
 6573W        W24777   7.282  10.836   4.156 -0.1699  0.0894 -0.4857
 6574W        W24778   8.619   4.802   4.415 -0.0441 -0.1678 -0.0369
 6575W        W24779   9.440  13.554   3.253  0.2223  0.0571 -0.0255
 6576W        W24780   6.299   3.021  14.529 -0.0090  0.2722 -0.1582
 6577W        W24781  16.979  10.172  13.046  0.0875  0.1024  0.3061
 6578W        W24782   5.032  14.925   3.845 -0.2757  0.3673  0.2122
 6579W        W24783   1.239  15.990  17.221  0.0362  0.2830 -0.0929
 6580W        W24784   3.105   9.780   1.255 -0.1778  0.3393  0.0756
 6581W        W24785   0.420  13.078   2.179 -0.0364 -0.2121 -0.0431
 6582W        W24786  10.736  14.662  15.654  0.2965  0.2502  0.0380
 6583W        W24787  14.131   2.546  16.729 -0.0708  0.0059  0.0389
 6584W        W24788  11.010   1.128   0.592  0.2435  0.0599 -0.0982
 6585W        W24789  16.720   7.821  14.207 -0.2729  0.0375 -0.2392
 6586W        W24790  16.282  16.208   3.724  0.1886 -0.1804 -0.0580
 6587W        W24791   1.170   8.676   4.573 -0.0034  0.2508  0.2148
 6588W        W24792   1.330  12.102  13.645 -0.0518 -0.0196 -0.0748
 6589W        W24793  14.087   3.542  15.355  0.0807  0.0053 -0.0071
 6590W        W24794   9.536   9.274   1.997 -0.0144 -0.0906  0.1412
 6591W        W24795   9.936  12.967  12.517 -0.0953  0.1264  0.0191
 6592W        W24796  16.114   3.395  12.422  0.1206 -0.2311 -0.0955
 6593W        W24797   1.645   7.450  13.598  0.2286  0.0031  0.1153
 6594W        W24798   8.314   8.740   2.003 -0.0417 -0.2862  0.1362
 6595W        W24799   9.363  15.505   3.483  0.0196 -0.1706 -0.2195
 6596W        W24800   9.218   8.770   1.374  0.0415 -0.1542 -0.2880
 6597W        W24801  11.810  11.376  16.527  0.2404 -0.1975  0.1180
 6598W        W24802   0.941   7.582   0.661 -0.3173  0.2398 -0.0397
 6599W        W24803   4.980   0.588  15.157  0.1374 -0.0031 -0.1442
 6600W        W24804   7.488  13.146   5.213 -0.0510 -0.1069  0.0743
 6601W        W24805  14.632  11.933   4.031 -0.4414 -0.0274 -0.1678
 6602W        W24806   0.038   8.938  14.285 -0.0012 -0.2987 -0.0807
 6603W        W24807   4.988  11.654   0.548  0.1591  0.0227 -0.1842
 6604W        W24808   2.885  15.709  14.279  0.0300 -0.0539 -0.0664
 6605W        W24809  15.336  16.335  16.477 -0.0335  0.3633  0.0215
 6606W        W24810   7.683   7.170  15.610  0.1119 -0.1083  0.0583
 6607W        W24811   9.937  14.619   0.306 -0.0001  0.2381 -0.0579
 6608W        W24812   3.539   4.169  14.997  0.1687 -0.0241 -0.0658
 6609W        W24813   1.260   0.832   3.139  0.0833 -0.2655  0.0213
 6610W        W24814   0.255  12.043   4.248 -0.0109  0.1619 -0.0516
 6611W        W24815   0.596   5.048  12.918 -0.1138 -0.2183  0.2310
 6612W        W24816  15.926   5.585  12.179  0.1070  0.1959  0.1214
 6613W        W24817  13.680  13.579   4.324 -0.0716 -0.0047 -0.4072
 6614W        W24818  10.788   5.242   2.048 -0.4020  0.1616 -0.0512
 6615W        W24819   5.809   1.052  16.546 -0.1045 -0.1992  0.1242
 6616W        W24820  14.776   8.785   3.864 -0.2060  0.1815 -0.0221
 6617W        W24821  10.926  11.427   4.953  0.1936 -0.2169  0.2219
 6618W        W24822   0.942   7.766  17.111  0.1560 -0.0800 -0.3090
 6619W        W24823  13.832  11.489   0.404 -0.1426 -0.2787 -0.0117
 6620W        W24824   9.347   4.967  16.267  0.1198 -0.2562 -0.0309
 6621W        W24825   6.573   3.333  16.133 -0.0040  0.1504  0.2319
 6622W        W24826   9.170  11.825   3.349 -0.0554  0.0851 -0.0832
 6623W        W24827   9.259  12.607   0.762  0.1912 -0.2401  0.3556
 6624W        W24828   8.682   7.177  15.474 -0.4318  0.1398  0.0688
 6625W        W24829  15.643   3.333   0.617 -0.0186  0.2823 -0.3386
 6626W        W24830   6.741   3.725  13.142 -0.0293 -0.0870 -0.2209
 6627W        W24831   3.684  10.938   2.034 -0.2908  0.0607  0.1455
 6628W        W24832   9.045   6.996  14.997  0.4406 -0.0214 -0.0827
 6629W        W24833  15.576   0.102  12.807 -0.0286  0.1431 -0.0570
 6630W        W24834   7.027  10.719  15.375  0.0260 -0.0122 -0.0406
 6631W        W24835  16.772  16.101   5.801  0.0079 -0.0607 -0.2845
 6632W        W24836   0.023   0.333   4.889 -0.3800  0.0930 -0.0549
 6633W        W24837  12.151   9.049   1.592  0.2597 -0.2411 -0.1569
 6634W        W24838  11.106   5.464   5.277  0.0333  0.3281 -0.0638
 6635W        W24839   2.798   9.983  14.055 -0.0533  0.0543 -0.1789
 6636W        W24840   5.443   1.890  16.990  0.3947 -0.2142  0.3861
 6637W        W24841   2.213   9.444  14.375  0.2491 -0.3736  0.1392
 6638W        W24842   5.292   4.097   2.136  0.1315  0.2356  0.1524
 6639W        W24843   4.532  15.977   4.602  0.1494  0.1099 -0.1805
 6640W        W24844  14.938   9.609   3.465 -0.1561  0.0433 -0.4446
 6641W        W24845   7.775  15.637  14.973 -0.0279 -0.1334  0.0807
 6642W        W24846   0.581   2.207   4.186 -0.1139  0.2420 -0.1848
 6643W        W24847  14.727   1.116  13.648  0.0051 -0.0814 -0.0686
 6644W        W24848  16.582   9.099   5.377  0.2412  0.3019 -0.0271
 6645W        W24849  10.592  12.991   3.383 -0.2628  0.2342  0.1063
 6646W        W24850  15.574   6.030  16.845 -0.1082  0.0317  0.0423
 6647W        W24851  10.488  15.625  12.324 -0.0467 -0.2027  0.2283
 6648W        W24852  11.527  10.748   3.187  0.0756  0.0631  0.0083
 6649W        W24853   8.342   2.193  12.366  0.0149 -0.4152 -0.1622
 6650W        W24854   3.402  14.296  16.349  0.0595 -0.1123  0.0869
 6651W        W24855  10.016   6.376   2.795 -0.0233  0.3066  0.1967
 6652W        W24856   2.395   5.606   1.772 -0.2439  0.3945  0.0982
 6653W        W24857   8.335   5.526  14.490  0.0064 -0.2120 -0.0174
 6654W        W24858   9.068   5.628   4.735  0.0426 -0.0466  0.1964
 6655W        W24859  11.130  17.237  12.670  0.0283  0.0634  0.0971
 6656W        W24860  16.403  11.060  15.321 -0.0638 -0.1157  0.1301
 6657W        W24861   3.805   6.971  15.799  0.1680  0.0934 -0.0922
 6658W        W24862  14.212  11.798  12.339  0.0095 -0.4104  0.1728
 6659W        W24863   0.232  15.448  13.953  0.0291  0.1766 -0.0423
 6660W        W24864  16.286  14.492   2.228  0.0808 -0.0573  0.3641
 6661W        W24865   9.950   1.966  11.344  0.0429 -0.1843 -0.0161
 6662W        W24866  11.468  14.937  16.581  0.1258 -0.0853  0.0747
 6663W        W24867   2.563  10.940   1.548  0.0587  0.1541 -0.0210
 6664W        W24868   4.839  16.833   2.277 -0.0993  0.0385 -0.0910
 6665W        W24869  12.283  10.329   5.268 -0.1535  0.0613  0.1632
 6666W        W24870   5.271  16.568   2.738 -0.0508 -0.0109  0.1194
 6667W        W24871   2.174   6.609   4.009  0.2759  0.0336 -0.2049
 6668W        W24872  16.164  15.271   0.492  0.0487  0.2203 -0.1313
 6669W        W24873   4.026   4.030   1.151 -0.0215  0.1110  0.0574
 6670W        W24874   5.249   1.243   1.840 -0.0632  0.1781  0.2659
 6671W        W24875  10.473  15.491   5.244 -0.0096  0.1985 -0.4674
 6672W        W24876  15.863   2.113   1.209 -0.1384 -0.0368 -0.1874
 6673W        W24877   5.407  11.007   4.478  0.2064  0.1347  0.0356
 6674W        W24878  12.666   3.204  12.740  0.3714  0.1469 -0.0016
 6675W        W24879  12.636  11.207   2.377  0.3131  0.1221 -0.0690
 6676W        W24880   0.877  17.150   4.273  0.0133 -0.2041 -0.2859
 6677W        W24881   8.462   5.574   2.824 -0.0482 -0.2260  0.0874
 6678W        W24882   3.737  10.190   1.022 -0.1405  0.1840 -0.0844
 6679W        W24883  16.412   1.340   1.547 -0.2197 -0.0092  0.3523
 6680W        W24884  12.384   0.573  17.420  0.0019  0.0632  0.0193
 6681W        W24885  16.739  11.215   0.811  0.0478  0.1912 -0.0339
 6682W        W24886   9.384   2.106   4.394 -0.0454 -0.2975 -0.0899
 6683W        W24887   4.419  17.312  14.481  0.1084  0.2012 -0.0987
 6684W        W24888  11.079  13.836   1.726  0.0083  0.1727 -0.3986
 6685W        W24889   3.284   3.669   4.477  0.1362 -0.0870 -0.1859
 6686W        W24890   4.409   1.426  13.689 -0.1604 -0.0100  0.1597
 6687W        W24891   3.635  12.329  14.417  0.0029 -0.0439  0.1202
 6688W        W24892   8.133  13.251  14.549  0.4076  0.1693 -0.1076
 6689W        W24893   6.879  14.315   1.893  0.2507 -0.0261  0.0908
 6690W        W24894   3.865   9.458  15.734  0.0774 -0.0250  0.1970
 6691W        W24895  15.726   2.223   3.302  0.1841  0.2031  0.0037
 6692W        W24896  16.182   9.542   4.421 -0.1713 -0.0599 -0.2375
 6693W        W24897  17.326   7.198  15.802 -0.1158 -0.2527 -0.0476
 6694W        W24898   6.804  15.528   0.332 -0.2742  0.0330  0.0255
 6695W        W24899   5.619   3.966  12.480 -0.1649  0.0407 -0.1549
 6696W        W24900  12.345  12.812   0.127  0.4373 -0.0030  0.2254
 6697W        W24901   6.319  16.838  12.536 -0.1795  0.2635 -0.1474
 6698W        W24902   1.654   2.976  14.015  0.4117 -0.0054  0.1068
 6699W        W24903   7.331  11.587  17.146  0.2032 -0.1813 -0.3282
 6700W        W24904   5.685  12.433  17.343 -0.1034 -0.1244 -0.1174
 6701W        W24905   0.568  15.364   3.067  0.2189  0.0679  0.0444
 6702W        W24906   4.901  16.776  15.414  0.0207  0.1655 -0.0808
 6703W        W24907  11.206   2.432   2.556 -0.0493  0.1158 -0.1409
 6704W        W24908   3.196   1.674   3.747  0.0663  0.0516  0.0967
 6705W        W24909   1.710  15.601  16.347  0.1152  0.0068 -0.0263
 6706W        W24910   8.075   8.147  17.379 -0.0469  0.0158 -0.1309
 6707W        W24911  14.095  10.023   5.102 -0.0861 -0.2219  0.0702
 6708W        W24912   7.612  11.760  12.877  0.1573  0.1284  0.4395
 6709W        W24913   8.277  10.162  15.307  0.1830 -0.1217  0.2323
 6710W        W24914   9.383  13.267  14.366 -0.0348 -0.0690  0.1296
 6711W        W24915  13.451   2.753  17.311  0.1865 -0.1491 -0.2073
 6712W        W24916  14.266  16.794  14.591  0.1594  0.2455  0.0711
 6713W        W24917  10.167  13.390   1.439 -0.1181  0.1410  0.2069
 6714W        W24918   9.207   0.488   2.280  0.0695 -0.0325  0.1602
 6715W        W24919  12.384   2.836  17.213 -0.1241 -0.0645 -0.1436
 6716W        W24920   7.710  12.551   4.722  0.0493  0.1856 -0.0064
 6717W        W24921  13.485   9.927   0.696 -0.1869  0.1331  0.1358
 6718W        W24922  11.527  17.102  15.289  0.2323  0.1050 -0.0179
 6719W        W24923  12.154   1.641  15.967  0.2450  0.2269 -0.1842
 6720W        W24924   2.241   0.256  13.310 -0.1132 -0.1200 -0.0534
 6721W        W24925  16.913  12.534   4.776  0.3562 -0.0195 -0.0089
 6722W        W24926  16.498  16.338  14.820 -0.1389 -0.0968  0.1052
 6723W        W24927   6.022  16.073   4.797  0.2455  0.0934  0.3282
 6724W        W24928   6.702  15.888   3.729  0.0738  0.0644  0.4302
 6725W        W24929  10.179   5.763   2.028  0.0077  0.1177 -0.1232
 6726W        W24930  15.218   6.623   1.631 -0.0108 -0.1949 -0.1788
 6727W        W24931   9.372  12.383  17.015  0.0840 -0.1688  0.0610
 6728W        W24932   0.218   4.373   4.032  0.2244  0.3106  0.0090
 6729W        W24933   0.365   9.861  13.522  0.0815  0.1327 -0.0526
 6730W        W24934  13.288  13.681  12.868  0.0441  0.2141  0.3458
 6731W        W24935  14.675  12.300  16.704  0.0935  0.0079 -0.1623
 6732W        W24936   8.729   6.343   2.368  0.1260  0.0956  0.3197
 6733W        W24937  10.320   0.245   3.667 -0.0144 -0.0796 -0.1852
 6734W        W24938  11.563  14.387   2.349  0.1387 -0.0045  0.0518
 6735W        W24939  16.185  14.854   4.731  0.1147 -0.1626  0.2366
 6736W        W24940   6.709   2.389  15.215  0.0506  0.3668  0.0499
 6737W        W24941   1.132  17.320  13.226 -0.2032  0.2512 -0.1129
 6738W        W24942   5.999   3.828  16.866 -0.1548 -0.1212  0.0567
 6739W        W24943   4.822   6.767  16.992  0.0341  0.1696  0.2596
 6740W        W24944   7.343  14.006   5.253 -0.3235  0.4165 -0.0311
 6741W        W24945  12.978  13.040   5.342 -0.2210  0.1604  0.4365
 6742W        W24946   1.966   5.014  13.044 -0.0049  0.0669  0.0897
 6743W        W24947   7.009  15.433   2.797  0.5743  0.2062 -0.2741
 6744W        W24948  10.607  11.292  13.341 -0.3380 -0.0052 -0.0456
 6745W        W24949   9.385  15.755  17.400  0.0368  0.1046 -0.3361
 6746W        W24950  12.718   9.462   5.119 -0.0728  0.1358  0.0539
 6747W        W24951   5.865  10.256   3.876 -0.1034 -0.1551 -0.1014
 6748W        W24952   5.941   8.187  16.994  0.3819  0.0029 -0.0425
 6749W        W24953   0.441  11.983  17.300  0.2947  0.1689  0.0145
 6750W        W24954   7.277  16.888   3.384 -0.1253  0.1066 -0.0775
 6751W        W24955  16.016   2.604  12.953  0.1473 -0.0602  0.0903
 6752W        W24956  16.079   0.325   0.131 -0.2315  0.3885  0.3203
 6753W        W24957   2.160   2.775   5.490 -0.0060  0.2789 -0.1204
 6754W        W24958   9.918  15.542  13.328 -0.0689  0.1669  0.0659
 6755W        W24959  12.909  11.995  14.553 -0.2135  0.1258  0.0185
 6756W        W24960   8.544   5.224  16.623  0.0236 -0.2188  0.0291
 6757W        W24961  10.054   3.867  14.730  0.0723 -0.3567  0.0031
 6758W        W24962  12.460   4.797  15.658  0.0991 -0.0686 -0.2976
 6759W        W24963   5.485   2.292  14.754  0.1867  0.0801  0.2490
 6760W        W24964   1.523  10.811  15.089  0.1772  0.1025  0.0697
 6761W        W24965   1.034   5.664  15.563 -0.0844  0.2058 -0.1217
 6762W        W24966  15.441   4.570  12.105  0.3266  0.1029 -0.2115
 6763W        W24967   6.110   1.087  17.444 -0.0110 -0.1007 -0.0524
 6764W        W24968   1.602   7.834   4.046  0.2100 -0.0014  0.0324
 6765W        W24969   1.357  16.424   5.151 -0.4090  0.1143 -0.4898
 6766W        W24970   1.734   1.572   4.945  0.1490 -0.1075 -0.0789
 6767W        W24971  12.796   5.902  11.723 -0.1915 -0.1537 -0.0123
 6768W        W24972  12.723  13.113  13.730 -0.1366  0.1138 -0.2380
 6769W        W24973  10.841  12.063   4.164 -0.0433 -0.4070  0.1551
 6770W        W24974   5.058   3.729   1.948 -0.0035 -0.1376 -0.1516
 6771W        W24975   4.211   4.903  14.921 -0.0660 -0.0696  0.0534
 6772W        W24976   0.373  12.019   0.601  0.1427  0.3296 -0.1625
 6773W        W24977  10.422   8.390  14.691  0.2808  0.0104  0.1582
 6774W        W24978  14.177   6.751  17.383 -0.0382 -0.1855  0.0788
 6775W        W24979   0.426  13.829   5.542  0.0122 -0.3002  0.1055
 6776W        W24980   7.930  15.209   3.890  0.0370 -0.2030  0.3122
 6777W        W24981   9.625   8.357  15.988 -0.3560  0.4047  0.2886
 6778W        W24982  12.174   8.582   1.845  0.1152 -0.2990  0.2409
 6779W        W24983   7.931  16.484  14.412 -0.1638 -0.0968 -0.5911
 6780W        W24984   0.736   9.877   5.254 -0.1349  0.1791  0.1730
 6781W        W24985   7.537   2.363   5.370  0.1685  0.1594 -0.1577
 6782W        W24986   2.015   5.682  15.320  0.1256 -0.0821 -0.4740
 6783W        W24987   3.590   9.281  13.925 -0.1548 -0.0298  0.0024
 6784W        W24988   8.566  14.566   4.030 -0.0928  0.0554 -0.2397
 6785W        W24989   1.103  12.053  15.904  0.2133 -0.1069 -0.3034
 6786W        W24990   3.637  17.135  13.630 -0.0172 -0.1467  0.3212
 6787W        W24991   8.054   1.244  14.949  0.0741  0.2486  0.2800
 6788W        W24992  17.112  16.958   3.118  0.0861 -0.3453 -0.1854
 6789W        W24993  11.603  15.205   2.253  0.0624  0.0257  0.1229
 6790W        W24994   7.424   8.388   2.445  0.0966  0.0754 -0.3291
 6791W        W24995  10.778   3.552   5.092  0.0785  0.2121 -0.0415
 6792W        W24996   8.026   6.657  12.970 -0.0472 -0.0902 -0.0627
 6793W        W24997  13.603  14.292  17.379 -0.1228  0.3502 -0.2228
 6794W        W24998  15.520   1.292   1.478  0.0708 -0.0189  0.1294
 6795W        W24999   8.996   9.420   0.724 -0.0049  0.2676  0.1093
 6796W        W25000   8.898  16.872   1.628  0.0726  0.0886 -0.1809
 6797W        W25001   2.430   3.181   0.145 -0.0741  0.1115  0.0994
 6798W        W25002  16.274   1.237  16.286  0.0129 -0.0778 -0.4237
 6799W        W25003   0.156   9.663   5.280 -0.1386  0.1710 -0.0997
 6800W        W25004  15.671  10.650  15.767  0.2845 -0.2257  0.0602
 6801W        W25005  16.979  13.882  16.330  0.0111  0.1548 -0.1126
 6802W        W25006   0.426  10.380  12.748  0.0648 -0.1266  0.1895
 6803W        W25007   5.589   1.866  12.295 -0.1485  0.0117 -0.0001
 6804W        W25008   4.579   9.094   3.167 -0.3057 -0.2208  0.1938
 6805W        W25009   3.533  15.018  14.898 -0.3568 -0.3021  0.1091
 6806W        W25010   8.015   2.101   0.576  0.1511  0.0534  0.1965
 6807W        W25011  10.774  15.891   0.391 -0.0267 -0.0272 -0.3430
 6808W        W25012   7.791  16.863   1.081  0.1148 -0.0466 -0.2999
 6809W        W25013  14.871  17.055   0.041  0.1144  0.1540  0.2258
 6810W        W25014  16.776  10.174   0.708  0.2777  0.1211  0.0697
 6811W        W25015  15.385   8.264   1.867  0.0694 -0.0186 -0.0271
 6812W        W25016   8.934  12.640  12.132  0.1281  0.2019 -0.0418
 6813W        W25017  15.911   3.879  13.196  0.2961 -0.1312 -0.3166
 6814W        W25018  13.900   9.063   1.473 -0.2328  0.0986 -0.1520
 6815W        W25019  17.113   7.664  13.307 -0.0546 -0.1184 -0.0348
 6816W        W25020  13.170  11.193   2.387 -0.0268  0.0545  0.1600
 6817W        W25021   7.042   2.130  15.550  0.2176 -0.1130  0.3328
 6818W        W25022   2.456   6.911   3.371 -0.0369  0.1113 -0.2841
 6819W        W25023  17.138   6.600   1.665  0.0866  0.3265  0.4996
 6820W        W25024   1.829   6.610  14.172  0.2525  0.3964 -0.0407
 6821W        W25025  13.933  11.820   4.429 -0.1138 -0.0158  0.2028
 6822W        W25026   8.795   7.304  12.656  0.0797 -0.5294 -0.1109
 6823W        W25027   0.961   5.242  14.715  0.0493  0.2610 -0.0494
 6824W        W25028   8.714  15.778   5.299 -0.0428  0.0769 -0.3408
 6825W        W25029   9.950   9.784  14.228  0.2046  0.0313  0.0516
 6826W        W25030  13.346  16.571  16.306 -0.1404 -0.0326  0.0456
 6827W        W25031   0.033   6.892  17.471  0.2779 -0.1495 -0.2929
 6828W        W25032   7.432  11.032  15.536  0.0819  0.0337  0.0294
 6829W        W25033   2.256   5.631  12.572  0.1459 -0.1222  0.3478
 6830W        W25034   6.674   5.701   2.277  0.2701  0.1152 -0.0486
 6831W        W25035  16.193   4.675   3.154  0.0718 -0.2449 -0.0570
 6832W        W25036  13.091  10.206  15.837  0.2421  0.0647 -0.5756
 6833W        W25037   6.633  15.388   4.710 -0.0583  0.2207 -0.0190
 6834W        W25038   3.806  12.303   4.910  0.0491 -0.2074 -0.1400
 6835W        W25039   4.274  15.909   4.184  0.2468  0.0534 -0.0772
 6836W        W25040  15.753  12.446  14.662 -0.1181  0.0134  0.3746
 6837W        W25041   0.441   7.974  13.755  0.4731  0.0640 -0.0131
 6838W        W25042   6.293  13.609   1.019  0.2813 -0.1095  0.0988
 6839W        W25043   1.755   1.997  14.580  0.0134  0.2025  0.1148
 6840W        W25044   4.863  12.089   0.754 -0.1242  0.2095  0.0681
 6841W        W25045  12.208  16.615   2.958 -0.2515 -0.1355 -0.1796
 6842W        W25046  16.066   8.776   2.028  0.1223 -0.0763  0.3559
 6843W        W25047  12.091  15.722  14.061 -0.0028 -0.0517 -0.1078
 6844W        W25048   9.021  16.260   3.848  0.0925 -0.1249 -0.1372
 6845W        W25049   6.827  11.444   3.037  0.4440 -0.0691 -0.1156
 6846W        W25050  15.847   4.526   0.905  0.1905 -0.0186  0.0038
 6847W        W25051  10.931   7.137   4.496 -0.0579  0.3915  0.2129
 6848W        W25052   4.835  13.937  16.074  0.1466  0.2652  0.0762
 6849W        W25053   0.846   6.899   2.736 -0.0576 -0.1089  0.0743
 6850W        W25054   2.608  10.531   2.936  0.2662 -0.3283  0.1782
 6851W        W25055  11.038   0.076  14.687  0.1281  0.0842  0.2301
 6852W        W25056  16.486  11.720   1.615  0.1200  0.1387  0.0911
 6853W        W25057   9.902   1.892   2.772  0.1977 -0.3189 -0.1181
 6854W        W25058   6.214   9.221   5.111  0.1151  0.1505 -0.0348
 6855W        W25059  12.372  13.894  15.669  0.0940 -0.2431 -0.1582
 6856W        W25060   9.323   8.758  14.535  0.0650  0.0886  0.1158
 6857W        W25061   4.086   1.061  15.414  0.2622 -0.0578 -0.2652
 6858W        W25062   4.883   1.726   4.529 -0.2331  0.3939  0.1816
 6859W        W25063   6.444  11.842   3.206 -0.1403 -0.0160 -0.2618
 6860W        W25064   9.090  15.253  15.189 -0.1843 -0.0619  0.2660
 6861W        W25065  14.848   4.991  13.661  0.0141  0.0966  0.0013
 6862W        W25066   9.615  15.396   0.191  0.2571 -0.0676  0.2295
 6863W        W25067   8.851   3.939  16.333  0.0327  0.1250  0.0346
 6864W        W25068   8.468  11.734  14.477  0.3236 -0.1376  0.0897
 6865W        W25069   7.877   4.846  16.414  0.2612  0.0719  0.0728
 6866W        W25070   0.148   0.632  17.417  0.0607  0.0916  0.0026
 6867W        W25071   7.228   7.461  12.988 -0.0419  0.1805  0.3350
 6868W        W25072  10.896   1.111   3.416 -0.2301  0.1913  0.3687
 6869W        W25073   3.684  16.977   2.930 -0.0085 -0.5373  0.0867
 6870W        W25074  12.084  16.070   1.215  0.0310  0.3523  0.1108
 6871W        W25075  16.403   7.068   4.977  0.3293 -0.3053  0.1565
 6872W        W25076   6.285  11.806   1.404  0.0726 -0.2752  0.0963
 6873W        W25077   8.451  13.527  17.370 -0.3855 -0.2112 -0.1585
 6874W        W25078  10.038  10.646  15.013  0.2358 -0.2157  0.0744
 6875W        W25079   2.469   7.536  14.372 -0.1440 -0.3007 -0.0806
 6876W        W25080   5.450  12.152   5.062  0.0581 -0.1975  0.0741
 6877W        W25081   2.519   0.510  14.109 -0.0957 -0.0772 -0.2512
 6878W        W25082  15.418   4.095   5.429 -0.2024  0.0691  0.2886
 6879W        W25083  11.747  10.933  15.593  0.1041  0.2339 -0.0505
 6880W        W25084  10.295   5.030  13.124  0.1198 -0.1637 -0.1006
 6881W        W25085   2.094   2.562   5.073 -0.1136 -0.1752  0.2547
 6882W        W25086   0.144  10.558   5.356  0.0156 -0.2221  0.2318
 6883W        W25087   1.873   4.649  15.650  0.2585 -0.0217 -0.1644
 6884W        W25088   7.765   2.123   4.367 -0.0532  0.0408  0.1603
 6885W        W25089  13.011  16.804  13.110 -0.4660 -0.2208  0.0081
 6886W        W25090   8.966  17.088  15.513  0.1178  0.0560  0.7065
 6887W        W25091   3.416   1.088  16.080  0.4672  0.0116 -0.5345
 6888W        W25092  16.380  10.104  15.253  0.0591  0.0578 -0.3367
 6889W        W25093  15.668  12.885   3.000  0.2215 -0.0673 -0.1942
 6890W        W25094  17.131  12.423   2.071 -0.0583 -0.0844 -0.0312
 6891W        W25095  15.152  13.895  13.796 -0.1251 -0.1006 -0.1716
 6892W        W25096  10.970   3.859  13.116  0.2480 -0.2204  0.2723
 6893W        W25097   0.436   7.005   1.265  0.0598 -0.0041  0.0532
 6894W        W25098   4.580  15.928   3.745 -0.0222 -0.5094 -0.1124
 6895W        W25099  11.012  11.373   1.483  0.0332  0.1292 -0.3003
 6896W        W25100  11.109   6.378   2.625 -0.2707 -0.1110  0.0223
 6897W        W25101  11.925   2.294   1.378  0.1090  0.1173 -0.0195
 6898W        W25102   7.754   8.350  16.991 -0.2774 -0.0593 -0.0671
 6899W        W25103   7.461  15.097  17.225 -0.1598 -0.1177 -0.2845
 6900W        W25104  10.505  15.855  14.729 -0.2016 -0.0965 -0.0546
 6901W        W25105   4.699   5.675   1.648  0.0735 -0.0749  0.1038
 6902W        W25106   7.035  10.792  11.574  0.1070 -0.0375 -0.0469
 6903W        W25107   9.871   7.108   3.557  0.0933  0.3541  0.1190
 6904W        W25108   9.905  15.582   2.295 -0.2362  0.0456 -0.2196
 6905W        W25109  15.713  11.294   3.297  0.0759  0.2562 -0.3097
 6906W        W25110   0.225   0.287   4.232 -0.4318  0.1187 -0.1861
 6907W        W25111   1.390  11.512   1.601 -0.1335  0.0812  0.1147
 6908W        W25112   4.826  11.753   4.135  0.0285 -0.3613 -0.1464
 6909W        W25113  15.497   3.065   1.049  0.0669  0.1913 -0.1307
 6910W        W25114  13.027   7.574   1.909 -0.2297  0.2080 -0.0190
 6911W        W25115   8.309  10.975   5.562  0.1042 -0.0897  0.0336
 6912W        W25116  15.267   1.780  17.114 -0.0020  0.1156 -0.1753
 6913W        W25117  15.469   0.106   0.963 -0.2594 -0.1501 -0.0319
 6914W        W25118   0.036   5.090  14.309  0.1832 -0.1345 -0.1587
 6915W        W25119   8.938   7.219   3.139 -0.1687 -0.1356 -0.0852
 6916W        W25120   8.986   6.886  12.559  0.0240  0.0051 -0.2315
 6917W        W25121  12.216   9.115  13.367 -0.1288 -0.0505  0.4291
 6918W        W25122  14.807   4.459   0.830  0.1768 -0.0471 -0.0269
 6919W        W25123   3.108  15.941   3.197  0.0867  0.0825  0.1192
 6920W        W25124  16.114   1.409   1.984  0.1362 -0.1223 -0.1077
 6921W        W25125   5.476   8.194   2.093  0.1885 -0.1807 -0.0529
 6922W        W25126   4.267   4.045  12.305 -0.0834  0.0918 -0.0044
 6923W        W25127   9.971  14.186   4.822  0.0821  0.1953 -0.0724
 6924W        W25128   8.728  16.683   2.363 -0.1290 -0.2176 -0.0469
 6925W        W25129  14.105  10.668  14.224 -0.1577 -0.1089  0.0407
 6926W        W25130   1.585   8.342  16.914  0.0622  0.0535 -0.1980
 6927W        W25131   8.986  10.763   4.738  0.1052  0.3341  0.2666
 6928W        W25132   8.323  10.256  15.759  0.0859  0.0784  0.2777
 6929W        W25133   9.614   3.717   3.666 -0.0565 -0.2200  0.1741
 6930W        W25134  10.824   0.805  16.344 -0.2484 -0.1077  0.0011
 6931W        W25135  11.526  13.108  13.122  0.0005  0.0212  0.2763
 6932W        W25136   7.922  14.818  17.413  0.0368 -0.2411  0.0781
 6933W        W25137  11.742  11.382  15.379  0.0807 -0.2584  0.1839
 6934W        W25138  11.950  10.014  16.590  0.2641  0.0540  0.1974
 6935W        W25139   6.887   6.229   1.513 -0.1309 -0.0225 -0.2097
 6936W        W25140   3.616   4.387   4.826  0.0696  0.0995 -0.1063
 6937W        W25141  13.392   0.858  16.451 -0.2219 -0.1291 -0.0397
 6938W        W25142   5.128  10.212   4.638 -0.0995  0.0371 -0.4669
 6939W        W25143   2.493   7.536   5.625 -0.0645 -0.2348 -0.3040
 6940W        W25144  13.953  15.593  13.939 -0.1244 -0.0872 -0.0733
 6941W        W25145  14.442  11.027   1.495 -0.2741  0.1330  0.0896
 6942W        W25146  16.140  14.064  14.754  0.0925  0.2600 -0.3135
 6943W        W25147  14.749   3.133   3.269  0.0021 -0.0245  0.2688
 6944W        W25148  12.546   8.240   4.839 -0.0279 -0.3926 -0.0633
 6945W        W25149   2.107   8.806   4.893 -0.3429  0.1617  0.1519
 6946W        W25150  15.184   0.919   5.182  0.0498 -0.0410 -0.2406
 6947W        W25151   1.632  11.677   5.027 -0.1862  0.0542 -0.0861
 6948W        W25152  17.070  11.056   0.327  0.0257  0.0966 -0.1173
 6949W        W25153   9.776  11.803  15.082 -0.3371  0.0528  0.3953
 6950W        W25154  16.174  12.971   5.403 -0.0468 -0.1042  0.3610
 6951W        W25155   7.839   8.462  12.304 -0.0394  0.0838  0.3437
 6952W        W25156   5.591   0.071   1.401  0.1080 -0.1259  0.3546
 6953W        W25157  16.023  14.058  16.130  0.0194 -0.1124  0.2876
 6954W        W25158   2.710  17.120  16.140  0.2225 -0.1756 -0.1970
 6955W        W25159   4.092   6.906  15.376  0.0431  0.2954  0.0270
 6956W        W25160   7.851   6.650   2.435  0.1661 -0.3581 -0.0423
 6957W        W25161  10.464   3.396   5.505 -0.2592  0.0539  0.3240
 6958W        W25162   1.620  11.359  14.942  0.0179  0.1486  0.0083
 6959W        W25163   0.436   7.516   1.012  0.0453  0.1870 -0.0085
 6960W        W25164  10.266   7.750   2.481  0.0662 -0.2482 -0.1314
 6961W        W25165  10.748  15.074  15.178 -0.0430  0.1606 -0.0051
 6962W        W25166   6.342   0.624   2.607  0.1349  0.2200 -0.0929
 6963W        W25167   8.543  14.428  15.603 -0.2808  0.0434  0.1434
 6964W        W25168   4.152   9.740  14.036 -0.0365  0.1054 -0.0253
 6965W        W25169   4.995  16.568   3.191  0.0019  0.0985 -0.2426
 6966W        W25170  15.650   1.679   4.989 -0.0927  0.0538  0.2100
 6967W        W25171   0.871  10.010   1.400 -0.2285 -0.0815  0.1480
 6968W        W25172  17.339   7.406   1.235 -0.0349  0.0463 -0.0495
 6969W        W25173  11.538  16.061  15.861 -0.0331  0.0149 -0.1047
 6970W        W25174  13.477  17.334   5.084  0.0333  0.0015  0.3339
 6971W        W25175  15.887  13.029   3.429  0.2664  0.0266  0.0938
 6972W        W25176   0.344   8.771  13.148  0.1237  0.0049 -0.3514
 6973W        W25177  16.968   9.348  17.377  0.0755  0.0173 -0.3261
 6974W        W25178  12.021   7.676   1.668  0.0214 -0.0267  0.0322
 6975W        W25179   9.034   0.717  15.164 -0.1783 -0.3468 -0.0073
 6976W        W25180   7.819   3.015   4.635  0.2306 -0.1479 -0.0372
 6977W        W25181  13.802   7.600  13.521  0.2186 -0.3070  0.1589
 6978W        W25182   3.496   0.894  12.561 -0.1332 -0.0009 -0.0979
 6979W        W25183  10.750  15.248   1.943 -0.0504 -0.0561 -0.1240
 6980W        W25184  13.505  12.277  12.320  0.2244 -0.1688  0.3501
 6981W        W25185   0.002  13.432  16.183  0.0192  0.2925  0.0266
 6982W        W25186  16.713  13.334   4.695 -0.2867  0.1552  0.1343
 6983W        W25187  14.916  10.896  13.839  0.0401  0.2316 -0.0598
 6984W        W25188  10.123  12.409   5.336 -0.5217  0.1272  0.0386
 6985W        W25189  16.610  11.535  13.793 -0.1127  0.1039  0.1547
 6986W        W25190  12.281   5.117  14.075 -0.2577  0.0154  0.0480
 6987W        W25191  13.160  14.344   3.196 -0.1176  0.0131 -0.3236
 6988W        W25192  17.196  14.461  17.036  0.1036  0.1397  0.2300
 6989W        W25193  12.937   8.342   3.306  0.1617  0.0528  0.1882
 6990W        W25194   1.042   9.762   2.380 -0.2593 -0.0152  0.0070
 6991W        W25195  16.052   7.912   2.481 -0.0876  0.0033 -0.0320
 6992W        W25196  10.564   8.664  16.109 -0.3574  0.1694  0.3779
 6993W        W25197   0.211  15.223  14.734  0.4637  0.2339  0.0482
 6994W        W25198  12.681  12.422  17.385 -0.1778  0.1182 -0.0281
 6995W        W25199   4.234   2.185  15.326 -0.1492 -0.2715 -0.2567
 6996W        W25200   4.453   7.318  12.258  0.2561 -0.0558  0.0606
 6997W        W25201  12.299   5.025  13.145 -0.0289  0.0665 -0.0224
 6998W        W25202  14.787  13.457   5.251 -0.0217 -0.1707 -0.2984
 6999W        W25203   1.229  15.676   1.301  0.0855  0.1254 -0.0406
 7000W        W25204  16.403  16.227  16.051 -0.0452  0.2828 -0.0240
 7001W        W25205   3.755  10.218   1.595  0.1176  0.1393 -0.0286
 7002W        W25206  11.454   9.619  15.800  0.2417  0.0970 -0.2673
 7003W        W25207   5.354   0.133   3.495 -0.0200  0.0943 -0.0607
 7004W        W25208  14.665  16.232  11.926  0.0583  0.0664  0.0827
 7005W        W25209  16.300   0.332  15.405 -0.1482 -0.1693 -0.3284
 7006W        W25210   2.584  16.343  17.343  0.0913  0.0741  0.1042
 7007W        W25211  13.809  10.999  14.502 -0.1037 -0.1163  0.0747
 7008W        W25212  13.968  13.639  15.059 -0.0537 -0.1499  0.0971
 7009W        W25213   2.047  16.985   0.000  0.1371 -0.0313 -0.0691
 7010W        W25214   1.731  15.092   6.408 -0.0159 -0.3523 -0.2738
 7011W        W25215  17.034   4.296   4.055 -0.0631 -0.0011  0.4730
 7012W        W25216  10.792   2.884   6.096 -0.0921 -0.0120 -0.4283
 7013W        W25217   3.922   9.708  16.652 -0.1206  0.0662 -0.3321
 7014W        W25218   9.917  15.586   3.308 -0.1463  0.1752 -0.3540
 7015W        W25219  15.242  10.230   3.828  0.2094  0.2229 -0.0841
 7016W        W25220   5.739  13.624  15.572  0.3505 -0.2001  0.0716
 7017W        W25221  13.381   5.388  15.345  0.0294 -0.0104 -0.2244
 7018W        W25222  12.421  13.249   2.852 -0.2340  0.0195  0.0128
 7019W        W25223   8.488   5.705  16.466 -0.1041 -0.3952  0.3083
 7020W        W25224  10.362   7.224   3.444  0.0097 -0.0019 -0.1829
 7021W        W25225  13.309   9.489  14.007  0.0972 -0.2954  0.0040
 7022W        W25226   7.513   1.234  16.018  0.1164  0.0413 -0.0614
 7023W        W25227   5.121  14.846   3.160  0.3381 -0.1281  0.4314
 7024W        W25228  11.711   4.888   4.760  0.0596  0.0059  0.0121
 7025W        W25229   0.100   5.555   2.557  0.3911 -0.0387  0.1883
 7026W        W25230   5.663   8.633  13.814 -0.2610  0.1545 -0.1440
 7027W        W25231  13.687   5.247   0.629 -0.2244 -0.0151  0.2118
 7028W        W25232  15.058   3.859   4.661 -0.1338  0.0263 -0.1257
 7029W        W25233   8.432   5.846   0.301 -0.0427 -0.0485  0.1067
 7030W        W25234  12.899   0.150  17.502 -0.2103  0.0350 -0.0578
 7031W        W25235  10.328  11.038  15.151  0.1786  0.0460  0.2099
 7032W        W25236  16.464  14.085   3.325 -0.1750 -0.2140  0.1495
 7033W        W25237  16.171  12.627  12.989  0.2160  0.2208 -0.1492
 7034W        W25238   3.877  12.432   2.147 -0.1762 -0.1748  0.0432
 7035W        W25239  11.924  14.645  14.959  0.2603 -0.0988 -0.0408
 7036W        W25240   8.278   2.525  17.106 -0.0587 -0.1914 -0.1795
 7037W        W25241   3.544  14.172  13.922  0.0603 -0.0777  0.2072
 7038W        W25242  13.010   4.529  14.442 -0.0880  0.2000 -0.0312
 7039W        W25243  10.725   2.599  15.808 -0.1735 -0.2449 -0.0205
 7040W        W25244   4.205  12.785  16.897 -0.0594  0.2841  0.1915
 7041W        W25245   6.308  12.933  13.685  0.5710 -0.0477 -0.1576
 7042W        W25246   4.377   9.890  14.897 -0.1247  0.0219 -0.0061
 7043W        W25247  15.033   8.644  16.148 -0.2065 -0.1506 -0.2053
 7044W        W25248   4.696   5.087  17.169 -0.1505  0.2125  0.1157
 7045W        W25249  15.739  11.456   0.909  0.0512 -0.0223 -0.1100
 7046W        W25250  10.626   6.782  14.175  0.1640 -0.3133 -0.0682
 7047W        W25251  10.091   3.169   0.771  0.2026  0.2885 -0.0674
 7048W        W25252   9.533  10.583   2.045 -0.1467 -0.1689  0.0637
 7049W        W25253  10.768  16.928  14.816 -0.1423  0.3126  0.0369
 7050W        W25254   8.763   2.146  14.202  0.2077  0.3503 -0.1992
 7051W        W25255  13.364   1.012  12.772  0.0152 -0.1183 -0.4509
 7052W        W25256   6.333  14.342  15.013 -0.0787 -0.1859 -0.3085
 7053W        W25257  10.487   1.829   4.458 -0.0846  0.0050 -0.1111
 7054W        W25258   1.415   5.673   2.164  0.1759  0.1201 -0.0999
 7055W        W25259   7.950  11.427  13.826  0.1869 -0.0317 -0.0883
 7056W        W25260  13.338   2.723  14.011  0.0642  0.2087 -0.0261
 7057W        W25261   1.972   0.300   4.129  0.1250 -0.0797 -0.0400
 7058W        W25262  11.528   1.198   0.655 -0.3052 -0.1209 -0.1344
 7059W        W25263   8.477  12.291  12.851 -0.3435  0.3717 -0.1549
 7060W        W25264  15.250   0.676   2.732 -0.1883  0.0293  0.0003
 7061W        W25265   9.436   2.055  13.501  0.2312  0.0894 -0.2113
 7062W        W25266   0.386  13.921   4.077  0.0617  0.2499 -0.2109
 7063W        W25267   9.477   5.306  15.252  0.0578 -0.0687 -0.1163
 7064W        W25268   4.175  14.734  12.926  0.0613  0.0328  0.0883
 7065W        W25269  11.024   5.495   1.057 -0.0647  0.0620  0.0555
 7066W        W25270  15.642  14.673  12.573  0.2216 -0.3020 -0.5424
 7067W        W25271   6.468   0.214   2.197 -0.2535 -0.1776 -0.1617
 7068W        W25272   5.180   7.969  16.642  0.1227 -0.1557  0.1036
 7069W        W25273  11.348  11.215   2.992  0.2079 -0.1250 -0.1616
 7070W        W25274   5.677  11.106   3.027 -0.0401 -0.1172 -0.3827
 7071W        W25275  16.058  15.487  15.002 -0.5386 -0.1122 -0.0389
 7072W        W25276   4.011  13.564  16.851 -0.3447  0.1741 -0.1432
 7073W        W25277   4.418   8.853   2.795 -0.2396  0.0297  0.1427
 7074W        W25278   1.820   3.770  13.789  0.3731  0.0775  0.0809
 7075W        W25279  10.059   6.452  13.569  0.0171  0.0671  0.1458
 7076W        W25280   9.621   0.536   3.728  0.1886 -0.1435 -0.2685
 7077W        W25281   8.381   5.257   4.176 -0.0025  0.2034  0.0241
 7078W        W25282  14.878  10.043   1.342 -0.1801  0.0527 -0.0439
 7079W        W25283  14.030  12.884  17.414 -0.2642  0.1847  0.2261
 7080W        W25284   8.275  10.900  12.482  0.3280  0.0821 -0.1026
 7081W        W25285  15.473   7.637  17.112 -0.4052 -0.0297  0.3323
 7082W        W25286  13.235  13.366  13.536 -0.2579  0.2248  0.1531
 7083W        W25287   4.686   1.521   1.136 -0.2381 -0.2473 -0.0956
 7084W        W25288   4.213   0.734   3.847  0.1192 -0.0822  0.0714
 7085W        W25289   9.774   5.818  17.257  0.1047  0.2101  0.1198
 7086W        W25290  16.134  11.750   4.147 -0.1158  0.5305 -0.1436
 7087W        W25291  17.123   0.946  12.695 -0.0767 -0.2165  0.1484
 7088W        W25292   3.461  13.633   1.808 -0.0242 -0.1097  0.2586
 7089W        W25293   5.737  14.017  13.326 -0.5194  0.1751 -0.1262
 7090W        W25294   7.543   4.861   4.232 -0.3225  0.2226  0.1347
 7091W        W25295  14.214   8.246   1.746 -0.3000 -0.5188 -0.0321
 7092W        W25296   2.918   6.479   2.279 -0.0333 -0.1769  0.1345
 7093W        W25297   1.446   5.952   0.593 -0.0584 -0.0008  0.0317
 7094W        W25298   6.392   6.006  11.234 -0.0358  0.5461  0.1688
 7095W        W25299   7.882  17.015   3.360 -0.0004 -0.0836 -0.1036
 7096W        W25300  14.068   3.259   0.649  0.1776 -0.1634  0.0330
 7097W        W25301   8.028   7.511  13.792 -0.2584 -0.0812 -0.2945
 7098W        W25302  14.203  10.522   0.834  0.0814 -0.1911  0.2203
 7099W        W25303  14.894  14.253  17.089 -0.1258  0.0123  0.0034
 7100W        W25304   3.698   6.066  15.556  0.3164  0.1559 -0.0047
 7101W        W25305  16.073  12.140  16.047 -0.0933 -0.0814 -0.1504
 7102W        W25306   0.200  15.504   1.517  0.1541  0.0751 -0.0835
 7103W        W25307   6.724  10.543   5.132  0.1122 -0.0248  0.1816
 7104W        W25308   4.499  11.313  12.217 -0.0491 -0.1587  0.1628
 7105W        W25309   8.842   5.936   1.508 -0.1154 -0.0432  0.1641
 7106W        W25310   8.330  15.245   2.517  0.0210 -0.0014 -0.2151
 7107W        W25311  10.151  15.360   0.470 -0.4368  0.0909  0.3124
 7108W        W25312   5.956  14.799  17.076  0.1901 -0.4022  0.0772
 7109W        W25313   0.831   2.046  13.122  0.0253  0.0287 -0.2939
 7110W        W25314  12.819   0.932  12.759 -0.1222 -0.0562 -0.2988
 7111W        W25315   1.873   4.228   0.564  0.2007  0.1647 -0.1842
 7112W        W25316   6.567  14.499   2.501 -0.2321 -0.1853 -0.0222
 7113W        W25317  14.869  13.313   3.923  0.1884  0.3414 -0.1492
 7114W        W25318  17.300   5.202   2.973 -0.2273  0.1349 -0.0444
 7115W        W25319   4.045   7.426   1.441 -0.0533 -0.2686 -0.1333
 7116W        W25320  17.259   3.081   3.182 -0.2721 -0.2237 -0.0719
 7117W        W25321   4.605  12.925   1.716 -0.1422 -0.2030 -0.0482
 7118W        W25322   8.082  12.247   3.458 -0.0130  0.0565  0.2405
 7119W        W25323  12.033  10.595   2.575 -0.0916 -0.2559 -0.1464
 7120W        W25324  15.601  10.514  15.289  0.3324 -0.2277 -0.0009
 7121W        W25325   4.613   6.621  12.768  0.1982 -0.1208 -0.1376
 7122W        W25326  13.175   0.422   5.079 -0.0817 -0.0141  0.0089
 7123W        W25327  14.591  11.031  13.021 -0.0032  0.0669 -0.2452
 7124W        W25328   7.828  15.735  15.454 -0.1616 -0.0443 -0.3270
 7125W        W25329  16.558   4.945  12.694 -0.2379 -0.0106 -0.0125
 7126W        W25330   6.180  14.116  13.015 -0.1946  0.2920  0.0594
 7127W        W25331   9.693  17.084   2.835  0.2372  0.0630  0.2637
 7128W        W25332  13.246   6.189  16.556  0.3940  0.0989  0.1607
 7129W        W25333   3.071  17.171   5.915 -0.4910 -0.1828  0.2211
 7130W        W25334  11.954   0.684  17.191  0.0737  0.1039 -0.2210
 7131W        W25335   1.428   7.530   0.875 -0.2438  0.2836  0.1438
 7132W        W25336   5.521   6.459   2.165  0.0924  0.1697  0.0989
 7133W        W25337   5.374  13.667  16.138  0.1043 -0.2585 -0.2680
 7134W        W25338   2.596  16.341  16.514 -0.0402  0.0979 -0.0148
 7135W        W25339  15.793   8.044  15.172 -0.1029  0.0004  0.0795
 7136W        W25340  10.193   7.091  14.252 -0.3796  0.0804 -0.2910
 7137W        W25341   7.445   6.366   2.756 -0.2345  0.1629 -0.0610
 7138W        W25342  15.692   5.707  13.157 -0.0015 -0.1964 -0.0898
 7139W        W25343  12.064   7.876   0.725 -0.3251  0.1696 -0.1944
 7140W        W25344  17.170   8.337   0.596 -0.1246 -0.1630 -0.0829
 7141W        W25345  11.729  16.049  17.023 -0.4343  0.0341 -0.0992
 7142W        W25346   1.881   9.734   3.800  0.5862  0.2907  0.0517
 7143W        W25347   1.825  17.015  16.679 -0.0243 -0.0045  0.0480
 7144W        W25348   7.351   6.174   3.185  0.1445 -0.2775  0.3523
 7145W        W25349   1.334   3.791   5.336 -0.0866 -0.1724  0.1598
 7146W        W25350  16.551   1.388  16.644  0.0403  0.0908 -0.2812
 7147W        W25351  15.356  15.513  15.453 -0.0756  0.0073 -0.5271
 7148W        W25352   5.678   0.742  17.184 -0.0970 -0.3518 -0.2901
 7149W        W25353  14.628   4.297   3.929  0.3100  0.2394  0.0404
 7150W        W25354  10.709  14.093  13.250 -0.3851 -0.1974 -0.0746
 7151W        W25355  13.604   4.133  15.721 -0.3797 -0.0148 -0.1202
 7152W        W25356   6.235   9.733   5.303  0.1179 -0.1463 -0.0262
 7153W        W25357  14.056   3.050  14.265  0.2038 -0.4147  0.2807
 7154W        W25358  11.529   6.945   1.142 -0.1633 -0.4012 -0.1131
 7155W        W25359  16.712  10.946   3.274 -0.1316 -0.1786 -0.0686
 7156W        W25360  11.560   6.192   4.967  0.3014 -0.1413  0.0975
 7157W        W25361   6.199   0.412   3.409  0.0363  0.0093  0.1072
 7158W        W25362   8.205  13.720  15.060 -0.1660 -0.0427  0.1618
 7159W        W25363   3.801   5.961   0.289  0.0323 -0.1990  0.0656
 7160W        W25364   5.902   9.311   3.671  0.1330 -0.1806  0.4749
 7161W        W25365   7.300   2.930   1.881  0.0813 -0.0577  0.0281
 7162W        W25366   1.719   3.099   1.288  0.2000  0.0794 -0.0585
 7163W        W25367  16.169  11.521   3.212 -0.1643 -0.2766 -0.0209
 7164W        W25368   2.452   7.331  15.651  0.3646  0.0326 -0.2027
 7165W        W25369   4.353  15.503   3.853 -0.0835 -0.3195 -0.1891
 7166W        W25370  13.020   0.572   0.214  0.2162 -0.0236  0.0340
 7167W        W25371   9.359  11.242  12.127  0.0272  0.3391  0.1086
 7168W        W25372  12.668  11.504   4.371  0.0729  0.1505  0.0833
 7169W        W25373   3.043  15.050  16.406 -0.0973  0.0513  0.2459
 7170W        W25374   9.884  12.506   1.952 -0.0561 -0.4709  0.0761
 7171W        W25375   1.734   7.215   1.731  0.0216 -0.1661  0.2045
 7172W        W25376   6.500   9.529   2.442  0.0662 -0.0147  0.1205
 7173W        W25377  17.153   2.760  13.442  0.2256  0.2171 -0.1405
 7174W        W25378  16.138   3.705  15.361  0.0444  0.2055 -0.3777
 7175W        W25379   6.658  16.972   0.109  0.4372  0.0890  0.0388
 7176W        W25380   5.089   9.202  16.588 -0.2022 -0.0968 -0.2140
 7177W        W25381   3.737   9.618   4.199 -0.1445 -0.1115  0.4048
 7178W        W25382   1.194   2.780   4.661  0.0270 -0.0856  0.0921
 7179W        W25383  13.832  16.094  12.997 -0.0491 -0.0830 -0.2097
 7180W        W25384   7.805   0.205   2.654  0.1258 -0.3432 -0.1157
 7181W        W25385   4.759  13.406   0.599 -0.0509  0.2420 -0.1650
 7182W        W25386   0.489   7.021   5.157 -0.2123  0.1455  0.0653
 7183W        W25387  11.050   0.897  13.499 -0.1271 -0.1345  0.2010
 7184W        W25388  14.758   1.482  16.179 -0.1268  0.0203 -0.2002
 7185W        W25389   8.606  17.205   4.109 -0.0715  0.0765 -0.2978
 7186W        W25390  11.631  15.081   4.740  0.2618 -0.1711  0.0534
 7187W        W25391  12.546   0.297  16.011 -0.0908 -0.0700  0.1791
 7188W        W25392   2.667  15.841   1.783  0.2414 -0.3049 -0.0002
 7189W        W25393  11.931  13.765   4.525  0.0749  0.1823 -0.0035
 7190W        W25394   9.248   0.402   3.472  0.1820 -0.0394 -0.0849
 7191W        W25395  16.192  16.233  13.508 -0.2056  0.0998 -0.0309
 7192W        W25396  10.838  13.818   3.182 -0.2602  0.0218 -0.0181
 7193W        W25397   5.308  11.712  12.576 -0.0055 -0.2953  0.0995
 7194W        W25398  11.181  11.572   5.354  0.2750 -0.0115 -0.1295
 7195W        W25399  10.679  11.938  12.093 -0.1307  0.0720  0.3702
 7196W        W25400  16.712   0.113  15.275  0.0081  0.1217  0.0402
 7197W        W25401  12.330   2.738   4.037 -0.2089  0.0465 -0.1281
 7198W        W25402   8.768   6.520   5.449 -0.0550  0.1265  0.0585
 7199W        W25403  12.826   4.637   3.829 -0.1083  0.0609 -0.0987
 7200W        W25404  12.445   6.789   1.076  0.0532 -0.0152  0.0893
 7201W        W25405  11.414   1.247   4.312  0.1224 -0.0630  0.1724
 7202W        W25406   9.445   7.881   3.135  0.0697 -0.0019 -0.6172
 7203W        W25407  11.557  16.848  17.340  0.2777 -0.1801 -0.1184
 7204W        W25408  12.204  10.426  16.350  0.0405  0.1271  0.2613
 7205W        W25409   3.476   7.765   3.541  0.1223 -0.1835  0.0027
 7206W        W25410  11.394  14.495  14.988 -0.1283 -0.1825  0.1102
 7207W        W25411  17.129   4.540   5.055  0.1853 -0.0452  0.0594
 7208W        W25412  14.387   5.846   0.035 -0.0308  0.2200 -0.2583
 7209W        W25413  12.229   3.517  12.650  0.2080  0.2094 -0.2258
 7210W        W25414  14.659  16.350  15.839  0.0824  0.3227  0.0475
 7211W        W25415   0.493   0.140  14.517 -0.1489  0.2119 -0.0993
 7212W        W25416  15.808  15.466   4.098  0.2485 -0.1362  0.1178
 7213W        W25417   1.628   1.638   3.893 -0.1320  0.0482  0.0628
 7214W        W25418   7.411  12.773  17.285 -0.1157  0.0204  0.1106
 7215W        W25419   3.631  17.013   4.838  0.1823 -0.1147 -0.0967
 7216W        W25420  11.269   7.836  11.983  0.0848  0.3971  0.2193
 7217W        W25421   7.482   1.500  12.212  0.1617  0.0453  0.0031
 7218W        W25422   9.967   2.883   1.773  0.1677 -0.1948  0.0271
 7219W        W25423  13.421   1.310   4.898 -0.1330 -0.1601  0.1600
 7220W        W25424  14.962   4.709  16.044  0.0563  0.0191  0.0073
 7221W        W25425   1.358   4.733  13.968  0.0291  0.2652 -0.4108
 7222W        W25426   2.399   0.716  13.163 -0.2796  0.2397 -0.0688
 7223W        W25427  11.833   8.821   3.746  0.1314  0.2323 -0.0304
 7224W        W25428  12.146  13.350   2.384 -0.0297  0.4715 -0.3236
 7225W        W25429   9.334   8.036   3.638 -0.0311 -0.0818 -0.1243
 7226W        W25430   1.407   2.116   0.983 -0.3604  0.2915 -0.2933
 7227W        W25431   5.401  14.620   3.602  0.1444 -0.2568 -0.1097
 7228W        W25432  11.811   7.315   1.327 -0.1719 -0.0249  0.1901
 7229W        W25433   6.949   7.054   2.766  0.1719  0.2233  0.0938
 7230W        W25434   5.671   5.710  12.853  0.1283 -0.2880 -0.1485
 7231W        W25435  11.639  14.455  14.115 -0.1925  0.0656 -0.0651
 7232W        W25436   6.597   5.234  13.077  0.0464 -0.1849 -0.2132
 7233W        W25437  10.798  13.131   0.070 -0.0062 -0.3148 -0.2185
 7234W        W25438   6.133  15.032  13.552  0.0119 -0.0453 -0.0119
 7235W        W25439   6.545  16.584   0.503 -0.0380  0.0200 -0.3009
 7236W        W25440  13.370   9.695   1.530  0.1415  0.0375 -0.1703
 7237W        W25441  17.204   5.385  11.992 -0.0158 -0.0791  0.1926
 7238W        W25442   6.353   1.280  15.311 -0.0988  0.1101 -0.2758
 7239W        W25443   4.657   7.149  16.293 -0.1447 -0.1730  0.0334
 7240W        W25444  16.003  13.209  16.332  0.0478  0.4082 -0.0426
 7241W        W25445   3.130   2.506   4.745  0.2237 -0.0879  0.1872
 7242W        W25446   2.873  17.221  17.055  0.1189  0.1045  0.1438
 7243W        W25447  11.768  11.829   1.779 -0.0972 -0.0717 -0.1570
 7244W        W25448   9.603   1.918  17.043  0.1970 -0.4276  0.0497
 7245W        W25449   5.381  15.373  15.965 -0.1791 -0.3117  0.4172
 7246W        W25450  12.755   4.816   2.874  0.1588  0.0926  0.2281
 7247W        W25451   5.848  14.680  16.630  0.1756 -0.1536  0.0038
 7248W        W25452  16.432   2.498   1.868  0.0790  0.1674 -0.2110
 7249W        W25453   6.688  15.115  15.637  0.0858  0.0426  0.2128
 7250W        W25454   6.746   1.745  15.596 -0.0921  0.1016  0.2393
 7251W        W25455   5.361   0.775  16.080 -0.1604  0.1534 -0.2117
 7252W        W25456  10.708   6.343  11.984  0.0315  0.0348  0.1792
 7253W        W25457   9.455   5.021  12.793 -0.1584 -0.1892  0.0475
 7254W        W25458   2.454   7.775  16.619  0.1115 -0.1039 -0.1250
 7255W        W25459   0.587   4.704  14.246 -0.1597  0.0813 -0.0656
 7256W        W25460  12.483   4.480  14.694  0.2385  0.0915  0.5260
 7257W        W25461  14.963   6.607  14.330 -0.2121 -0.1224 -0.3472
 7258W        W25462  12.401   7.585  12.016 -0.1096 -0.0579 -0.2232
 7259W        W25463  14.855   5.268  16.882 -0.0429  0.1218  0.0045
 7260W        W25464   0.636   4.161   0.183 -0.0763  0.2126  0.1150
 7261W        W25465  11.891   0.766  12.484 -0.1914  0.4202  0.1890
 7262W        W25466   2.254   7.793   4.088  0.1376  0.2450  0.4367
 7263W        W25467   3.362   4.342  13.926  0.0295 -0.0120 -0.4155
 7264W        W25468   2.513  12.170  15.716 -0.1151 -0.1529  0.1170
 7265W        W25469   3.117  14.359   3.590 -0.1058 -0.1052  0.1559
 7266W        W25470   9.018   1.959  16.945  0.0184 -0.1254  0.3814
 7267W        W25471   0.359   6.802   3.070  0.1727  0.1462  0.0345
 7268W        W25472   9.761  16.936   2.364  0.1043 -0.0112  0.0129
 7269W        W25473   9.110   1.404  17.229  0.1778  0.1686  0.0842
 7270W        W25474  17.178   7.554   3.299  0.2511 -0.1533 -0.1012
 7271W        W25475   9.873  15.058   4.228 -0.1112 -0.3932  0.0197
 7272W        W25476   5.746   6.437  16.662 -0.0193  0.4217  0.1276
 7273W        W25477   9.713   4.831   4.483  0.3331 -0.0016 -0.1872
 7274W        W25478  12.802   8.664   4.879  0.0544  0.2537  0.2671
 7275W        W25479  13.353   2.468  13.049  0.2231 -0.5084 -0.0015
 7276W        W25480   8.316  13.162  17.029 -0.0048  0.0122 -0.3075
 7277W        W25481  14.066   2.807  15.103 -0.0271 -0.0211 -0.0606
 7278W        W25482   1.685  13.789   3.524  0.0836  0.3580  0.1304
 7279W        W25483   8.255  13.441   1.215 -0.0022 -0.3467 -0.2402
 7280W        W25484   3.687  13.679   0.394  0.2126 -0.0138  0.3356
 7281W        W25485  15.056  16.464  15.103 -0.0660  0.2729 -0.0067
 7282W        W25486  14.996  13.043   5.204  0.0076  0.0449 -0.0171
 7283W        W25487   2.687   8.908   1.108  0.0035  0.0712 -0.0383
 7284W        W25488   9.809   3.285  17.054  0.0753  0.0652 -0.1231
 7285W        W25489   1.661  17.264   1.376 -0.1876  0.0778  0.1627
 7286W        W25490  11.910  12.430   4.562 -0.1073 -0.0105  0.0509
 7287W        W25491   3.353   9.310   1.444 -0.0521  0.0045  0.0188
 7288W        W25492   8.514   7.541   2.756  0.1004 -0.1342  0.3134
 7289W        W25493  10.572   7.834   5.553  0.2289  0.0417  0.2099
 7290W        W25494   0.652   6.892   3.494 -0.0801 -0.0250 -0.0065
 7291W        W25495   1.302  15.864   1.883 -0.0645 -0.0277 -0.0118
 7292W        W25496   1.865   6.619  16.854 -0.1869  0.1615 -0.2005
 7293W        W25497  16.966  13.206  14.617  0.1463 -0.0209 -0.1996
 7294W        W25498  12.100   4.561  16.797  0.0861  0.1146  0.1358
 7295W        W25499  17.228   0.133  17.287 -0.0613 -0.2758  0.3095
 7296W        W25500  15.426   8.889  12.879  0.3544 -0.0028 -0.0367
 7297W        W25501   2.893  11.488   3.390  0.0781 -0.1567 -0.0464
 7298W        W25502   2.639   8.340   3.430 -0.1048  0.3971 -0.0584
 7299W        W25503  13.131   1.119   6.401  0.1952  0.1063 -0.1580
 7300W        W25504   2.934   7.691   0.348  0.1711  0.3677  0.1037
 7301W        W25505  10.275  14.550   4.854  0.0391 -0.0373  0.0188
 7302W        W25506  13.306   6.900   3.078 -0.1969 -0.1837  0.0903
 7303W        W25507   0.534   1.838  14.702  0.0365  0.0636  0.1875
 7304W        W25508   5.862  12.653  16.889  0.0514 -0.0318  0.1740
 7305W        W25509   3.131  13.470  16.408 -0.0387 -0.0896  0.0445
 7306W        W25510   7.534   5.181   0.002 -0.2919 -0.1232 -0.1791
 7307W        W25511   0.147   5.223  14.769  0.1281  0.1907 -0.1185
 7308W        W25512   1.997  12.733  16.905  0.0538 -0.1525 -0.2166
 7309W        W25513  11.059   2.806   2.303  0.2846  0.1554  0.2800
 7310W        W25514   4.302   2.461   4.162 -0.0277 -0.2487 -0.1543
 7311W        W25515  10.836  16.429   1.102  0.1970 -0.4820 -0.2985
 7312W        W25516   3.772  10.421  14.543 -0.0237 -0.1464  0.0703
 7313W        W25517   8.047   6.861   3.066 -0.1416  0.1377  0.0075
 7314W        W25518  15.626  12.249  15.139  0.0301 -0.0190  0.1145
 7315W        W25519   8.589   0.919  14.952 -0.1543  0.2715 -0.0358
 7316W        W25520  10.320   1.874  16.111  0.0915  0.0847  0.0538
 7317W        W25521   7.485   4.331  16.983 -0.1998  0.0400 -0.0054
 7318W        W25522   1.646   5.030  15.937 -0.0693 -0.0739 -0.4247
 7319W        W25523   4.146   1.054   4.738  0.2425  0.2469  0.1220
 7320W        W25524   8.773   3.487  14.747  0.0145 -0.0023 -0.0438
 7321W        W25525   9.623  12.647   1.191 -0.0938 -0.0762  0.2311
 7322W        W25526  11.243   3.472   2.917  0.0183 -0.1328  0.1984
 7323W        W25527  16.548  16.871   1.539  0.1343  0.0402 -0.3131
 7324W        W25528   0.887   5.665   2.162  0.2279 -0.0239  0.1347
 7325W        W25529   4.799   1.888  12.729 -0.1750  0.3831 -0.2721
 7326W        W25530   1.417   8.977  14.631  0.0618  0.1522 -0.3530
 7327W        W25531  16.669  16.981  15.485 -0.0800  0.0880  0.0645
 7328W        W25532   2.427  12.399   0.253  0.1347 -0.0720  0.0916
 7329W        W25533   2.724   4.819  14.280  0.1987  0.0693  0.2272
 7330W        W25534  16.405  15.250   5.373 -0.2400  0.1137 -0.1364
 7331W        W25535  14.837   5.029   4.936  0.3980  0.0087 -0.0135
 7332W        W25536   5.950   4.150  16.509  0.1029  0.1939  0.1152
 7333W        W25537  12.510  15.277   4.310 -0.1894  0.1998 -0.1392
 7334W        W25538   5.822   5.233   3.963  0.0371  0.2820  0.0933
 7335W        W25539  12.991  16.445  12.759 -0.1526  0.2143  0.0849
 7336W        W25540   0.395  15.576  16.692  0.2237  0.1481  0.1014
 7337W        W25541   5.828   0.158  16.318  0.2669  0.0212  0.1516
 7338W        W25542  10.031   3.770  13.594 -0.0108  0.1119 -0.2215
 7339W        W25543   1.211   5.314  16.994  0.1828  0.0175 -0.0651
 7340W        W25544  10.689  10.918  12.807  0.1778  0.0915 -0.0807
 7341W        W25545  11.972   2.662   1.021 -0.0115  0.1427  0.1895
 7342W        W25546  13.096   0.075   4.307 -0.1003 -0.1333  0.0018
 7343W        W25547  10.701   1.306   1.858 -0.0207 -0.1395 -0.2756
 7344W        W25548   0.216   7.769  16.920  0.0987  0.1226  0.3376
 7345W        W25549   8.202  10.617   2.560  0.0096 -0.0363  0.1272
 7346W        W25550   8.506   3.364   3.737  0.0693  0.0848  0.1773
 7347W        W25551  11.519   0.197  12.399  0.1471 -0.0161 -0.1117
 7348W        W25552  17.286  17.183   4.739 -0.0011  0.1979 -0.1851
 7349W        W25553  11.126  14.906  14.874  0.1411 -0.2675 -0.0386
 7350W        W25554   6.700  14.560   4.071 -0.0446  0.1394 -0.3389
 7351W        W25555   1.022   1.486   5.124 -0.0381  0.1842 -0.0691
 7352W        W25556  14.405  15.192  16.210 -0.0000  0.1066 -0.3356
 7353W        W25557   1.665   5.061   2.294  0.0554 -0.2436  0.0289
 7354W        W25558   7.711  11.136  17.166 -0.1941 -0.1530  0.2679
 7355W        W25559  12.090   6.380   5.499 -0.2487  0.2082 -0.2411
 7356W        W25560  10.569   9.233  15.752  0.2708  0.0199 -0.1692
 7357W        W25561   8.267   4.311   3.166  0.0396  0.1079  0.0794
 7358W        W25562   0.260  13.165   3.357  0.2012  0.1108  0.1183
 7359W        W25563   7.789   3.397   4.326  0.0473 -0.0742  0.2373
 7360W        W25564  15.759   3.141  14.314 -0.0889 -0.2037 -0.1155
 7361W        W25565   4.736   9.918  15.731  0.0424 -0.0752  0.2537
 7362W        W25566   5.445  10.991  14.659 -0.1688 -0.1607 -0.0835
 7363W        W25567   5.244   8.051  16.098 -0.3131  0.0097  0.0115
 7364W        W25568   7.324   2.002  13.252 -0.2939  0.5958 -0.0894
 7365W        W25569   4.796  13.924   3.182 -0.0649 -0.0889  0.1227
 7366W        W25570   9.150  12.229  17.462 -0.1474 -0.0900 -0.0347
 7367W        W25571  15.759  11.746  16.061 -0.1737 -0.1686  0.0200
 7368W        W25572   5.557   4.737   0.544  0.3181  0.2748 -0.1250
 7369W        W25573   2.357   8.112   4.496 -0.1685 -0.0125 -0.0502
 7370W        W25574   8.136  16.879  15.967  0.1369  0.1625 -0.1364
 7371W        W25575   7.760   7.775  12.488  0.0954 -0.4078 -0.3428
 7372W        W25576   4.348   8.772   0.106  0.1642  0.0939 -0.4123
 7373W        W25577   0.406   2.589  14.296  0.0732  0.0523 -0.0799
 7374W        W25578   5.256  14.490   6.362 -0.1608  0.2637  0.1526
 7375W        W25579   4.660  14.244   4.223 -0.1936  0.3620  0.2118
 7376W        W25580   0.768  16.932   2.090 -0.1413  0.0883  0.0884
 7377W        W25581   2.634  12.350   5.511 -0.1632 -0.2382  0.0309
 7378W        W25582   7.352   9.747   4.110  0.2574 -0.1412 -0.1370
 7379W        W25583   5.958  10.996  13.742 -0.0994 -0.0859  0.0400
 7380W        W25584   3.004  13.721   4.869  0.0393 -0.1145 -0.0625
 7381W        W25585   3.355   3.765  15.396 -0.0600 -0.2607  0.1007
 7382W        W25586  16.134  10.262  16.989  0.1008  0.1572 -0.1433
 7383W        W25587  16.133  13.856   2.376 -0.4147  0.0970  0.0344
 7384W        W25588   1.604   5.296   1.723 -0.1596 -0.0905 -0.0109
 7385W        W25589   3.496  14.698  12.940 -0.1303  0.3869 -0.2577
 7386W        W25590   4.938  10.188   3.341  0.2084  0.0549 -0.0134
 7387W        W25591  15.970   3.003   2.272  0.0049  0.1294  0.1507
 7388W        W25592   4.247  10.430   0.887 -0.2512  0.1124  0.1444
 7389W        W25593  14.266  16.881   1.441 -0.0710  0.0556  0.0326
 7390W        W25594  14.984   5.694   4.121  0.0193 -0.0043 -0.0620
 7391W        W25595   3.565   6.419   1.851  0.0325  0.1437 -0.1713
 7392W        W25596  14.314   3.776  14.929  0.0682  0.0606 -0.0944
 7393W        W25597   2.892  11.173  13.671  0.4083  0.0944 -0.0001
 7394W        W25598   5.675  14.834  13.666  0.2538  0.2394 -0.1706
 7395W        W25599  10.438  14.226   1.276  0.2451 -0.0176 -0.0779
 7396W        W25600   3.450  12.816   2.930  0.3087  0.2210  0.1524
 7397W        W25601   4.889  10.928  12.173 -0.2975 -0.0286 -0.0822
 7398W        W25602   0.724  12.039   4.080  0.1141  0.2009  0.0901
 7399W        W25603  16.372   8.305  13.224 -0.0328 -0.0266  0.0677
 7400W        W25604   0.159   9.475   2.084 -0.0346 -0.0115 -0.1960
 7401W        W25605   0.152  16.118   0.614 -0.0912  0.1776 -0.0538
 7402W        W25606  12.354  14.139   1.282  0.1207  0.2173  0.2400
 7403W        W25607   3.838   3.348  15.484  0.1443  0.1724 -0.0229
 7404W        W25608  10.214   8.830  15.622 -0.0364  0.3333  0.0462
 7405W        W25609   4.605  12.647   3.817  0.1507  0.1417  0.1130
 7406W        W25610  10.315   2.504  12.486  0.1477 -0.0305  0.0934
 7407W        W25611   8.206  14.886  13.550 -0.3004  0.0124  0.4354
 7408W        W25612   9.775   3.344  13.404  0.1229  0.0451 -0.2404
 7409W        W25613  16.389  11.370   1.941  0.0070 -0.0936  0.4160
 7410W        W25614   8.935   6.472  16.009 -0.1054  0.0418 -0.0151
 7411W        W25615   2.225  16.950   2.795  0.4530  0.0119  0.0315
 7412W        W25616  14.131  16.985  16.062  0.2380  0.2530  0.2774
 7413W        W25617   7.727   7.443  12.915  0.1596 -0.0077 -0.0491
 7414W        W25618   9.525  16.563   2.621  0.0496 -0.1097 -0.0712
 7415W        W25619   0.947   6.134   1.510  0.0222 -0.2430 -0.3704
 7416W        W25620  11.421   6.585  15.984  0.2256 -0.0248  0.1516
 7417W        W25621   2.832   2.155   4.938  0.0073 -0.1519  0.3180
 7418W        W25622   8.711   8.033   3.530 -0.0145 -0.0092  0.0475
 7419W        W25623   6.539   0.617  17.438 -0.2560  0.0656  0.0251
 7420W        W25624   7.629   7.476   1.351  0.2120  0.2189  0.1443
 7421W        W25625   4.946   5.523  13.684 -0.1485 -0.0760  0.2961
 7422W        W25626   1.597  12.160  15.605 -0.1217  0.2048 -0.2081
 7423W        W25627   1.425   5.513  14.506  0.0711  0.2667 -0.0590
 7424W        W25628   5.992  10.384  13.018 -0.2840 -0.0074  0.0306
 7425W        W25629   6.635   4.776   6.246 -0.2067 -0.0880 -0.0936
 7426W        W25630   8.607   0.845   0.687 -0.1165 -0.0142 -0.1423
 7427W        W25631   4.117  14.041   3.776  0.2376 -0.0336 -0.1466
 7428W        W25632  10.721  14.495   4.105  0.1319 -0.3013 -0.0897
 7429W        W25633  12.741  16.781   0.365 -0.0057 -0.0665  0.2727
 7430W        W25634   5.543   3.537   1.434 -0.2441 -0.0497  0.3539
 7431W        W25635  11.244   5.369  16.947 -0.0371 -0.2330  0.1585
 7432W        W25636  10.013  15.136  13.893 -0.3004  0.1505  0.1588
 7433W        W25637   9.399   1.378   3.814 -0.1153  0.0735 -0.0310
 7434W        W25638   7.702   1.859  17.221 -0.1512  0.0628  0.0441
 7435W        W25639   1.912   9.949   2.916  0.1360  0.0693  0.1078
 7436W        W25640   2.073   2.629  16.831  0.1117  0.3811  0.1462
 7437W        W25641  13.413   4.463  16.997  0.2414 -0.1761  0.0733
 7438W        W25642   5.108   9.200   3.115  0.0570 -0.1001  0.0962
 7439W        W25643   1.283  14.667  16.045 -0.4580 -0.4038 -0.1539
 7440W        W25644  15.577  15.744   1.496  0.2436 -0.0447 -0.4484
 7441W        W25645   0.971   3.774  13.760 -0.1683  0.1573  0.0825
 7442W        W25646   7.638   0.147   5.143  0.1057  0.0097 -0.1095
 7443W        W25647  12.066   2.691  16.101  0.2609 -0.0835 -0.0507
 7444W        W25648   1.320   2.681   5.267 -0.0610 -0.2357 -0.3525
 7445W        W25649   4.476   5.394  17.485  0.3703 -0.0013  0.1780
 7446W        W25650  12.375   7.560   3.277  0.0718  0.0373 -0.1159
 7447W        W25651  14.681   3.234  17.030  0.3588 -0.2850  0.2282
 7448W        W25652  13.407   9.703   3.864  0.1921  0.1499  0.1098
 7449W        W25653   9.672  15.988   1.901 -0.0255  0.0875 -0.3168
 7450W        W25654  14.340   2.112   1.620  0.0998  0.0739 -0.0105
 7451W        W25655   7.037  14.909   4.243 -0.0272  0.1831  0.2345
 7452W        W25656   8.135   8.133  16.498  0.0872  0.1036 -0.2988
 7453W        W25657   2.837   2.774  14.789 -0.2503  0.1575  0.1520
 7454W        W25658  11.845   0.182   3.927  0.1557 -0.0263  0.0581
 7455W        W25659   4.018   2.513   1.985  0.3114 -0.0114  0.1144
 7456W        W25660   1.565  12.186   0.467 -0.3445 -0.2239 -0.1875
 7457W        W25661   4.594  14.407   2.961 -0.1841  0.1028 -0.1277
 7458W        W25662   9.009   8.725  16.548 -0.0478  0.0240  0.0207
 7459W        W25663   2.731   8.353   0.535  0.1128  0.1968 -0.0048
 7460W        W25664   3.801   7.652  13.956 -0.1787  0.0285  0.2436
 7461W        W25665   8.148  16.278   4.025 -0.1005  0.1412  0.0705
 7462W        W25666   6.438  16.500  14.831 -0.0994  0.0825  0.1117
 7463W        W25667  15.951   3.473  14.733  0.0234 -0.0383  0.1330
 7464W        W25668   2.018  11.521  14.530  0.1931  0.1056 -0.1308
 7465W        W25669   0.501   9.421   3.546 -0.1238  0.2116  0.0325
 7466W        W25670   6.715   7.157  12.266 -0.1357  0.3795 -0.0294
 7467W        W25671   7.072  17.257  14.929  0.0389 -0.0728  0.0076
 7468W        W25672  15.772   6.592   1.755  0.0492  0.2475 -0.0178
 7469W        W25673   5.111   2.039   1.277  0.3462  0.0442  0.1661
 7470W        W25674   7.287   2.575   5.797 -0.0424 -0.1695  0.0518
 7471W        W25675  13.145  14.591   1.419  0.3608  0.2849 -0.0393
 7472W        W25676  10.112  11.811  14.001 -0.2468  0.3061  0.0317
 7473W        W25677   3.059  15.915  12.406  0.1049 -0.4460 -0.0201
 7474W        W25678  16.488  13.482   1.042  0.1166  0.0194  0.0385
 7475W        W25679   3.431   0.140  16.313  0.0354 -0.3109 -0.3725
 7476W        W25680   5.780  11.365  13.979 -0.0808 -0.2323  0.1335
 7477W        W25681   0.469  16.990  16.875 -0.0832 -0.0871  0.0744
 7478W        W25682   2.198   2.931  17.232 -0.0028  0.3367  0.0588
 7479W        W25683  16.249   3.286  15.092 -0.2527 -0.0739  0.0190
 7480W        W25684   5.578  10.157   2.057 -0.0583  0.0126  0.1328
 7481W        W25685   9.667  10.040  13.889 -0.0317 -0.0542  0.0264
 7482W        W25686   4.866   7.822  12.202 -0.1034 -0.1618  0.0258
 7483W        W25687  12.989  12.095   2.157 -0.1057  0.0715  0.5430
 7484W        W25688   8.808   3.450   4.167  0.4180 -0.1859 -0.1000
 7485W        W25689  15.702   9.426  17.496  0.2963  0.2357  0.1768
 7486W        W25690   7.474   9.283   1.100  0.3394  0.1102  0.2602
 7487W        W25691   5.807   8.409   2.650 -0.1534 -0.4591  0.1842
 7488W        W25692  16.143   5.524  16.734 -0.2981 -0.1443  0.1556
 7489W        W25693   4.371   9.303  13.757 -0.2929  0.0377 -0.4261
 7490W        W25694   6.368   7.081   1.793  0.1448  0.0180  0.4201
 7491W        W25695   8.244   0.849   1.615  0.3955 -0.1518  0.4729
 7492W        W25696   0.058   7.524   0.607 -0.1769 -0.1255  0.0275
 7493W        W25697  14.498   9.321   4.719  0.1931 -0.0685 -0.0583
 7494W        W25698   5.686   1.799  13.301 -0.0956  0.1143  0.1998
 7495W        W25699   0.899   0.106  13.671 -0.1362 -0.1243 -0.0322
 7496W        W25700   2.991   0.019   1.507 -0.0773 -0.0609  0.0831
 7497W        W25701  17.128   2.858   4.959  0.1082 -0.0088 -0.1308
 7498W        W25702  13.396  16.999   4.627 -0.0333 -0.1090 -0.2201
 7499W        W25703  14.779   0.879   4.405 -0.1462  0.1690 -0.4329
 7500W        W25704   4.840   0.885  16.178 -0.2360  0.0475 -0.0662
 7501W        W25705   1.051   1.647  17.266 -0.0347 -0.2655 -0.0193
 7502W        W25706  11.387  14.426  12.271  0.0446 -0.1580  0.2531
 7503W        W25707  14.106   4.544  12.367 -0.0765  0.0783  0.2088
 7504W        W25708   2.305   9.086  16.201 -0.0358 -0.2576  0.0824
 7505W        W25709   9.018   3.370   3.714  0.2846 -0.2296  0.1118
 7506W        W25710   5.834   2.240   5.160 -0.0208 -0.1100 -0.1259
 7507W        W25711   9.007  16.754   0.607 -0.1197  0.0424  0.3362
 7508W        W25712   8.049   9.000  12.363  0.2375  0.0500 -0.0254
 7509W        W25713   9.141  16.309   0.971  0.1301 -0.2285 -0.1369
 7510W        W25714  16.615  14.780  16.482 -0.2005 -0.0606  0.1112
 7511W        W25715   1.800  12.568   0.695  0.0224  0.1297 -0.0518
 7512W        W25716   0.309   8.132   0.617 -0.2870  0.1442  0.0699
 7513W        W25717   4.277  16.507   1.247 -0.3405  0.0586 -0.0368
 7514W        W25718  11.393  14.068   2.727 -0.1505  0.2143  0.0628
 7515W        W25719   0.282   3.731   1.082 -0.2131 -0.0007  0.1310
 7516W        W25720  15.143  14.762  12.485  0.0940 -0.3084 -0.0197
 7517W        W25721   4.886  14.359  13.503 -0.1867 -0.0835 -0.2322
 7518W        W25722  10.276  16.431  13.432  0.0508 -0.0440 -0.3531
 7519W        W25723   7.738  10.551   3.759  0.1945  0.0064  0.2248
 7520W        W25724   0.685  15.329   4.134 -0.3041 -0.0049 -0.2799
 7521W        W25725   0.564   1.674   5.015 -0.0084 -0.3142  0.0955
 7522W        W25726   5.419   7.042   2.064  0.1988  0.0608 -0.0531
 7523W        W25727   6.963   4.921   5.214  0.1722  0.0240 -0.2903
 7524W        W25728   3.193   6.598   2.880  0.2131 -0.2953 -0.1829
 7525W        W25729   8.991   7.388   5.486 -0.1736  0.0799 -0.3138
 7526W        W25730  13.546  14.459   4.791 -0.3444 -0.0132 -0.1164
 7527W        W25731   9.766   7.138   2.851  0.2895  0.0463 -0.0955
 7528W        W25732   1.017  16.059  13.387 -0.0976  0.2560  0.1748
 7529W        W25733   0.569  15.786   5.751 -0.1197  0.0782  0.3072
 7530W        W25734  13.754   1.249   2.258 -0.1002  0.1031 -0.0410
 7531W        W25735   7.600   7.321   2.511 -0.3270  0.0750 -0.2785
 7532W        W25736   3.857   4.503   1.019  0.4730  0.1790 -0.1584
 7533W        W25737   9.666  10.193   5.063 -0.2530 -0.0136  0.1307
 7534W        W25738   6.686   6.700   1.615  0.1705  0.0727 -0.0533
 7535W        W25739  11.897  10.770  13.136  0.0744 -0.0703 -0.2478
 7536W        W25740   4.292   8.934  13.002 -0.1393 -0.4720  0.0714
 7537W        W25741   0.693   2.716   4.665  0.0126  0.1674 -0.0302
 7538W        W25742  12.247   6.957  17.396  0.3227  0.3268  0.0850
 7539W        W25743   5.799   1.009   0.457 -0.0972 -0.0347  0.0819
 7540W        W25744  16.374   6.483   3.832  0.0233  0.0727  0.0361
 7541W        W25745   0.382   4.506  15.930  0.0356  0.1133  0.0897
 7542W        W25746  14.185   2.701   2.367  0.0526 -0.3201  0.0132
 7543W        W25747   9.921   0.427  15.627  0.3661 -0.1371  0.3750
 7544W        W25748   3.426   6.086  17.183  0.1676  0.1865 -0.2275
 7545W        W25749   8.777   3.643   1.687 -0.1112 -0.0666 -0.1879
 7546W        W25750  12.942   1.236   2.539  0.2727  0.2044  0.0213
 7547W        W25751   0.303   1.925  16.853 -0.0889  0.0766 -0.1682
 7548W        W25752   2.095  13.913   1.281 -0.1336  0.0826 -0.0646
 7549W        W25753   6.608   1.936   5.197 -0.2054 -0.1438 -0.3530
 7550W        W25754   8.488   8.379   3.253  0.5608 -0.2827  0.0862
 7551W        W25755  17.145   2.174  12.341  0.1379 -0.1150 -0.3485
 7552W        W25756   3.500  11.621   2.480 -0.2775  0.3355 -0.1521
 7553W        W25757   9.586  17.211  16.445 -0.3206 -0.0212 -0.0018
 7554W        W25758   1.279  14.481   0.441 -0.0756 -0.1224 -0.0629
 7555W        W25759  14.931  16.672   2.474 -0.1503 -0.0489 -0.4851
 7556W        W25760   4.765   5.308   1.988 -0.1476  0.1529  0.1614
 7557W        W25761   3.865   1.241  12.718 -0.0374  0.2836  0.2190
 7558W        W25762   4.390   0.039  12.605 -0.4032 -0.1978 -0.0904
 7559W        W25763   9.112   5.189  13.518  0.0871  0.0187 -0.0203
 7560W        W25764   7.102   1.831   2.625 -0.0348 -0.0538  0.0225
 7561W        W25765   3.667   0.247   2.088 -0.3764 -0.2726  0.2221
 7562W        W25766   9.726  12.209  13.880 -0.6063  0.0708  0.0661
 7563W        W25767  11.688  10.917   3.632  0.0989  0.0344  0.0775
 7564W        W25768   0.082   5.175   3.643 -0.2743  0.1456 -0.0938
 7565W        W25769  13.508   3.969  13.809 -0.2817 -0.1244  0.0683
 7566W        W25770   8.193   5.931  17.237  0.2585 -0.2129  0.3620
 7567W        W25771  11.057   0.244  14.205 -0.1015 -0.0442 -0.2186
 7568W        W25772  13.303   8.910   3.919 -0.4329 -0.1677  0.2209
 7569W        W25773  12.651  15.143   0.238  0.3771  0.1301 -0.0250
 7570W        W25774   3.064   2.628  16.785  0.0563 -0.0182  0.4813
 7571W        W25775  16.087  15.612  15.507  0.2804 -0.1101  0.0678
 7572W        W25776  10.987   4.279   0.768  0.3341  0.0371  0.0271
 7573W        W25777   0.462  14.704  15.640 -0.1514  0.2232  0.0981
 7574W        W25778  13.464  14.343   4.170  0.1642 -0.2452  0.0790
 7575W        W25779   7.698   4.722   0.330 -0.2535 -0.1943 -0.3012
 7576W        W25780   4.395  13.761   3.503 -0.1292  0.1080  0.0867
 7577W        W25781   9.272   9.426  17.024 -0.0458  0.1946 -0.0856
 7578W        W25782   0.009  11.618  16.080  0.1108  0.0899  0.0851
 7579W        W25783  14.016   2.706   0.698 -0.3053 -0.0204  0.0580
 7580W        W25784   3.050   8.085   3.684 -0.1011 -0.0526  0.0820
 7581W        W25785   4.747   0.262   2.013  0.1327  0.3227 -0.2373
 7582W        W25786   9.794  16.432  13.450 -0.0529  0.0142  0.3106
 7583W        W25787  16.701   1.427  15.191  0.1114 -0.0025 -0.4938
 7584W        W25788   6.433   8.967  11.665  0.0995 -0.0523 -0.1293
 7585W        W25789   2.804   9.327   3.745  0.2132  0.3225 -0.0314
 7586W        W25790   8.540  14.700  14.501 -0.1515 -0.0028 -0.1223
 7587W        W25791  10.854   0.879   0.180 -0.0231  0.0313 -0.2464
 7588W        W25792   6.629   4.546   4.444  0.1524 -0.0707  0.1205
 7589W        W25793  15.830   5.038   3.764 -0.1440 -0.0895  0.0628
 7590W        W25794  10.909  10.224   2.186 -0.2242  0.0136 -0.0935
 7591W        W25795  11.438   4.324   1.750 -0.0682  0.3345  0.2394
 7592W        W25796   9.880   5.612   5.495 -0.1577  0.2643 -0.1884
 7593W        W25797  16.642  17.164  16.286  0.0087 -0.1175 -0.2496
 7594W        W25798  14.434   8.074  16.591  0.0018  0.3712 -0.0584
 7595W        W25799  15.799  14.551   4.556  0.3373  0.1171  0.2141
 7596W        W25800   9.984   1.767  16.670  0.0227 -0.0425  0.0764
 7597W        W25801   7.506  11.260  13.586  0.1979 -0.2806 -0.1695
 7598W        W25802   1.850  11.010  16.406  0.0322 -0.1190  0.0625
 7599W        W25803  13.907   3.844   5.929  0.4324 -0.1020  0.2375
 7600W        W25804   7.124   8.695   3.384  0.3228  0.0561  0.0745
 7601W        W25805  14.664   9.612   1.296  0.0965  0.1660  0.2633
 7602W        W25806   2.057   2.780   0.980  0.0802  0.1976  0.2654
 7603W        W25807  12.190   7.328   2.160 -0.0140  0.0761 -0.0791
 7604W        W25808   3.107  12.711   0.866 -0.3092  0.2334 -0.0050
 7605W        W25809   0.499   7.849  17.324  0.1543 -0.3113 -0.2091
 7606W        W25810   6.942  14.147   0.594  0.3703  0.6674  0.0656
 7607W        W25811  16.416   0.648  15.802  0.1555 -0.0401  0.0352
 7608W        W25812   9.715   0.368  14.171 -0.0908  0.0520 -0.0664
 7609W        W25813   3.899  17.110  14.138 -0.1706 -0.0866  0.1607
 7610W        W25814  15.296   3.166  11.957  0.0309 -0.0433 -0.1286
 7611W        W25815   5.217   1.077  14.007 -0.0634 -0.1791 -0.3501
 7612W        W25816   6.247  15.667  17.167 -0.0134 -0.0064  0.3684
 7613W        W25817   9.855   4.062  15.326 -0.0002  0.0477  0.3181
 7614W        W25818  13.598   6.612  15.238  0.1453  0.1810 -0.1646
 7615W        W25819   2.270   6.894  15.898  0.0451 -0.2269  0.0724
 7616W        W25820   5.957  17.198  14.130 -0.0478 -0.1638 -0.0992
 7617W        W25821   2.441  10.624  12.925  0.0253  0.3505  0.1793
 7618W        W25822  17.173   3.838   0.841 -0.1661 -0.2422 -0.1696
 7619W        W25823  14.276   8.654  15.648 -0.0672 -0.0693 -0.1817
 7620W        W25824   4.312   9.867   3.328 -0.0236 -0.3042  0.1879
 7621W        W25825   1.233   6.297  14.861 -0.0658  0.1027 -0.1279
 7622W        W25826   4.678   2.987   4.995 -0.1520  0.1629  0.0612
 7623W        W25827   0.176   9.055   3.763  0.0557 -0.1869 -0.1058
 7624W        W25828   9.608   2.943  17.376  0.1400 -0.0724 -0.0162
 7625W        W25829  15.614  16.876   2.164 -0.1489 -0.2070  0.2813
 7626W        W25830   8.480  16.198  14.989  0.0596  0.1474 -0.1298
 7627W        W25831   9.459   8.584  16.680  0.2309  0.0774 -0.2026
 7628W        W25832  16.690   2.122   2.976 -0.2096 -0.1524 -0.3161
 7629W        W25833  13.838   3.355   1.115 -0.1969  0.1749  0.2817
 7630W        W25834   0.247   2.895  13.104  0.3221 -0.1031 -0.2866
 7631W        W25835  10.358   9.056  11.656  0.2367 -0.0586  0.1332
 7632W        W25836   6.226   1.974  13.140 -0.3467 -0.1703 -0.0750
 7633W        W25837  13.917  16.460  14.175  0.2508 -0.3292 -0.1090
 7634W        W25838  12.608  11.492   5.807  0.2619 -0.0668  0.2901
 7635W        W25839  15.349   0.211   2.732 -0.0051  0.4832 -0.1002
 7636W        W25840   9.398   3.876   4.933  0.0024  0.1971  0.0249
 7637W        W25841   4.263   4.618  15.753  0.1206  0.0703  0.1255
 7638W        W25842   9.543   8.352   3.307 -0.3233  0.0968 -0.1092
 7639W        W25843   6.263  15.368  16.332  0.3009 -0.3268 -0.0576
 7640W        W25844   6.768  13.147   6.311  0.2658 -0.0798 -0.2841
 7641W        W25845  16.035  11.406  16.428  0.0308  0.3041  0.1054
 7642W        W25846   6.570   6.365   3.391 -0.0587  0.0332  0.0586
 7643W        W25847   0.184   3.622  12.457  0.2230  0.0300 -0.1006
 7644W        W25848   4.837   7.186  11.560  0.1048 -0.0766  0.2463
 7645W        W25849  14.306   6.002  16.536 -0.1786  0.0825  0.2604
 7646W        W25850  16.160   2.401  16.695 -0.1027  0.3648 -0.0164
 7647W        W25851   8.152   7.876   3.192  0.0798  0.0151  0.1034
 7648W        W25852   1.866  10.264   1.704  0.2368  0.1382 -0.2043
 7649W        W25853   1.011   7.340   1.137  0.0710 -0.1561 -0.3210
 7650W        W25854  15.898   7.910   4.233  0.1485  0.2303 -0.0273
 7651W        W25855  15.408  10.811  16.395 -0.2019  0.2692  0.2121
 7652W        W25856  16.040  15.166   2.509 -0.1326 -0.2889  0.1040
 7653W        W25857   0.375   2.562  11.805  0.1800 -0.1321 -0.0922
 7654W        W25858  11.257   6.090   0.798  0.0298  0.4563  0.2055
 7655W        W25859  15.373   8.067   4.203 -0.1647  0.0998  0.0446
 7656W        W25860  10.483  15.221   1.174  0.2024  0.0202  0.0882
 7657W        W25861  12.918  10.763   2.219  0.4464 -0.2122  0.3670
 7658W        W25862   1.036  12.203   5.389 -0.0091  0.2178 -0.0203
 7659W        W25863   2.257   3.418   4.285  0.0626  0.0851 -0.4930
 7660W        W25864  16.292   1.337  14.310  0.2237  0.0158 -0.1432
 7661W        W25865  13.144  14.694  13.101 -0.1480 -0.0122  0.0113
 7662W        W25866   1.539   8.939   1.943  0.1844  0.2529 -0.0023
 7663W        W25867  12.639  16.117   5.725  0.0229 -0.2048  0.0505
 7664W        W25868   0.289  16.543  15.600 -0.2581  0.0583 -0.2212
 7665W        W25869   2.883  12.089   4.865  0.0012 -0.0105 -0.2065
 7666W        W25870   5.377   9.652  15.188 -0.0826 -0.3368 -0.1369
 7667W        W25871   3.391  14.191  14.418 -0.3234  0.0944 -0.1795
 7668W        W25872   9.756   4.918   3.760  0.0465  0.1939 -0.1498
 7669W        W25873  11.069   8.754   5.310  0.0680 -0.2025 -0.2233
 7670W        W25874   4.433  16.309  12.760  0.0060  0.0799 -0.1819
 7671W        W25875   1.449   6.180  12.671 -0.2228  0.0085 -0.0120
 7672W        W25876  10.307  13.253   4.966 -0.0845 -0.0359 -0.0042
 7673W        W25877   4.013  17.065   2.411 -0.1864  0.1162 -0.1598
 7674W        W25878  11.581  15.255  14.591 -0.1474 -0.2041 -0.0760
 7675W        W25879  11.811   9.896  17.353 -0.4506  0.0703 -0.0825
 7676W        W25880   2.505  12.643   3.282  0.0709  0.0604  0.1902
 7677W        W25881   4.323  16.624   1.708 -0.3431 -0.2713  0.1762
 7678W        W25882  14.616   7.242  13.991  0.1040 -0.0255  0.0503
 7679W        W25883  13.131   2.264  12.553 -0.0433  0.2103  0.0612
 7680W        W25884   8.364   1.386   1.491  0.0483 -0.3166  0.1594
 7681W        W25885  11.934   8.457  14.180  0.3025  0.0109  0.1631
 7682W        W25886   7.225  11.001   4.828  0.1658 -0.3851  0.0812
 7683W        W25887   5.033  11.853  16.849 -0.3568  0.3357 -0.0109
 7684W        W25888   4.274   7.995   2.274  0.0037 -0.0958 -0.2307
 7685W        W25889  15.162   9.036  15.909  0.1501 -0.1461 -0.2314
 7686W        W25890   9.139   3.166   2.291  0.0048  0.1136 -0.0310
 7687W        W25891   9.136   7.243  11.296  0.1758  0.0374 -0.4880
 7688W        W25892  15.180   2.746   2.447  0.2777 -0.0527 -0.3743
 7689W        W25893  15.344   7.357   3.060 -0.1602  0.0265 -0.1083
 7690W        W25894  16.729   1.376  13.463  0.1914  0.2287 -0.0313
 7691W        W25895  14.292   9.653  12.142  0.1861  0.1223 -0.2176
 7692W        W25896   0.065  10.247   4.527 -0.1445 -0.2179  0.2992
 7693W        W25897   8.811  16.750  14.309  0.0666 -0.0093 -0.1011
 7694W        W25898  15.281  16.756  13.355 -0.3079  0.0564 -0.3017
 7695W        W25899   4.660  13.457  15.606 -0.2364  0.3217 -0.2511
 7696W        W25900  12.870  13.642   4.288 -0.1228 -0.0627  0.1020
 7697W        W25901  14.172   4.132  16.987 -0.2616  0.1433  0.0068
 7698W        W25902  15.609   7.862   2.145 -0.1300  0.0066  0.2280
 7699W        W25903  10.453  11.980   1.426  0.1033  0.2597  0.1931
 7700W        W25904   6.838   7.967  17.026 -0.1718 -0.2740  0.0184
 7701W        W25905   4.271   0.915  14.405  0.1932 -0.0202 -0.0217
 7702W        W25906   5.671   7.293  16.653 -0.0522 -0.0652 -0.1729
 7703W        W25907  14.995   9.614   5.286 -0.0815  0.0105  0.0269
 7704W        W25908  15.719  13.096  14.211 -0.1386 -0.0391 -0.2897
 7705W        W25909  10.085  16.941  12.274 -0.0631  0.0306 -0.2007
 7706W        W25910   2.840  11.592  17.137  0.1022  0.0672  0.0316
 7707W        W25911  10.871  14.732   2.017 -0.2478 -0.1580  0.0791
 7708W        W25912   6.504  12.177  13.166 -0.0784  0.0418  0.1153
 7709W        W25913  14.202  16.146  17.441  0.2247  0.1654  0.0938
 7710W        W25914   5.394  17.185   0.658 -0.1315  0.1289 -0.3793
 7711W        W25915   3.299  13.587   0.757  0.1460  0.1077  0.0782
 7712W        W25916  12.890   6.484   3.799  0.0288 -0.0713 -0.3314
 7713W        W25917  16.131   5.996   4.866 -0.3385  0.3009  0.0108
 7714W        W25918  10.890   2.868  12.854 -0.1484  0.2475 -0.0500
 7715W        W25919  16.615   4.291   5.072  0.4174  0.0358  0.0059
 7716W        W25920   4.159  17.054  13.674 -0.0163 -0.0376 -0.3726
 7717W        W25921  10.533  14.319  12.315  0.0289  0.2753  0.5302
 7718W        W25922   2.921  13.275  15.338 -0.1246  0.1351 -0.4299
 7719W        W25923  17.204   2.274  15.082  0.0686  0.2028  0.0477
 7720W        W25924   5.997   8.393  16.053  0.6004 -0.0906 -0.1338
 7721W        W25925  12.284  11.298  13.894 -0.2329  0.0913  0.0506
 7722W        W25926   8.651   2.381  13.221  0.0832  0.0068  0.1482
 7723W        W25927  16.237   9.483  17.436 -0.0045 -0.1926 -0.3177
 7724W        W25928   3.812  12.378   2.680  0.0216 -0.0031 -0.0647
 7725W        W25929   9.169  15.159  13.397 -0.2597  0.1685 -0.1650
 7726W        W25930   6.238   9.854   0.226  0.3043  0.1656 -0.2633
 7727W        W25931  10.845  12.521   3.314  0.0314  0.2616 -0.0650
 7728W        W25932   8.329  16.165  16.724 -0.0556  0.0268 -0.0930
 7729W        W25933   1.487   5.285   2.829  0.1602  0.0676  0.0609
 7730W        W25934  12.445   4.353   0.407 -0.1276  0.0846  0.2807
 7731W        W25935   3.630  11.494  16.484 -0.2533 -0.1116 -0.1147
 7732W        W25936   2.507   9.562   2.715  0.1566  0.2334  0.0817
 7733W        W25937  13.022   1.516   5.098  0.0031  0.3373  0.0940
 7734W        W25938   5.400   0.652  12.513 -0.0277 -0.1487 -0.1410
 7735W        W25939  15.900  13.993  15.659 -0.2209 -0.0752 -0.0571
 7736W        W25940   6.207   4.922   0.907  0.0834 -0.0412  0.2251
 7737W        W25941  15.269   1.141  13.591 -0.1893  0.0821 -0.3415
 7738W        W25942   5.015  14.797   1.282 -0.0878  0.0334 -0.1366
 7739W        W25943   3.215   1.657  17.289 -0.2723 -0.0486  0.2218
 7740W        W25944   6.161   9.311  16.294  0.3806 -0.0368  0.0003
 7741W        W25945  13.918  14.576  12.671  0.1195 -0.1139 -0.0115
 7742W        W25946   0.247   8.864   2.011 -0.0545  0.1098  0.3059
 7743W        W25947   0.394   3.560  14.253  0.1102 -0.2108 -0.2026
 7744W        W25948  13.487  12.926   4.962 -0.1022  0.0786 -0.1036
 7745W        W25949  15.482  15.225   3.236  0.0565 -0.1610  0.0283
 7746W        W25950   0.960   4.252   3.284 -0.0594  0.4313  0.0934
 7747W        W25951  12.197   1.957   3.954  0.1281 -0.0361 -0.2459
 7748W        W25952  12.128   8.678  13.598 -0.3590  0.0478  0.2405
 7749W        W25953   4.407  10.304   2.558 -0.0268  0.1820 -0.0515
 7750W        W25954   3.366  15.238  15.440  0.0274 -0.0270 -0.1169
 7751W        W25955  10.377  13.102  12.268  0.1859  0.0547 -0.1175
 7752W        W25956   7.974   2.555   3.021  0.2414  0.0717 -0.4731
 7753W        W25957  16.009   6.409   5.160 -0.0252  0.1132  0.0526
 7754W        W25958   9.674   1.117   5.006  0.0653  0.3358  0.0723
 7755W        W25959  11.802  17.213  14.511 -0.6556 -0.0834 -0.2997
 7756W        W25960  16.212  15.835   3.311  0.2627 -0.1944 -0.2219
 7757W        W25961  11.350   0.519   1.250 -0.2041  0.0024  0.1231
 7758W        W25962  12.187   4.530  13.377 -0.2251  0.4272 -0.0938
 7759W        W25963  10.702   9.002  14.270  0.2978  0.5971  0.0212
 7760W        W25964   2.069   2.110  16.903 -0.0273  0.1127  0.1323
 7761W        W25965   8.960   2.654   5.061 -0.2194 -0.2037 -0.1169
 7762W        W25966   4.419   5.944   3.442  0.0554 -0.3494  0.0443
 7763W        W25967  14.436   2.809  17.085  0.1635  0.0637 -0.0171
 7764W        W25968  10.488  16.281   4.131  0.2426 -0.0975 -0.1524
 7765W        W25969  10.199   8.455   4.046  0.0842 -0.2093  0.1009
 7766W        W25970  12.319  12.920   1.430 -0.0180 -0.3764  0.0952
 7767W        W25971   1.036  14.002  16.068 -0.0390  0.0477 -0.0435
 7768W        W25972   3.371  13.546  15.256 -0.1388  0.1331  0.1573
 7769W        W25973   6.021  13.780   5.348  0.2691 -0.2745 -0.1329
 7770W        W25974   0.314  10.744  13.299 -0.0399 -0.4555 -0.1467
 7771W        W25975   0.528  15.460  14.464  0.1334 -0.2047 -0.3925
 7772W        W25976  10.880   5.280  15.057  0.0058 -0.0309  0.0140
 7773W        W25977   8.176   9.648  16.301  0.0203 -0.2414  0.3554
 7774W        W25978   5.582   1.258  13.168 -0.2019 -0.2404  0.2851
 7775W        W25979  14.034   7.144   5.305  0.1696  0.1888 -0.4636
 7776W        W25980   1.789   7.180  16.752  0.0651  0.0864 -0.3319
 7777W        W25981  12.701  12.853   0.514  0.0234  0.3119 -0.3294
 7778W        W25982   1.452   0.143   4.012  0.2934  0.3647 -0.1124
 7779W        W25983   4.236  13.710   6.571  0.0386 -0.1460 -0.0819
 7780W        W25984   7.549   9.089  16.327  0.2264 -0.0286  0.2275
 7781W        W25985   0.826  10.815  15.409  0.0843  0.1911 -0.0192
 7782W        W25986   6.719   1.928   0.898  0.0275 -0.3336 -0.1461
 7783W        W25987  16.482   9.089  17.230 -0.2697 -0.1170  0.1033
 7784W        W25988   7.095  10.869   2.735  0.3417 -0.0417  0.0436
 7785W        W25989  13.029   4.707   2.447 -0.0172  0.0104  0.1107
 7786W        W25990   4.145  16.936   3.065 -0.1680  0.2810 -0.2064
 7787W        W25991   8.145   1.714   4.538 -0.0442 -0.3433 -0.0901
 7788W        W25992  15.606   4.700   0.501  0.1869 -0.0171 -0.3461
 7789W        W25993  12.703  14.687  13.360 -0.0267  0.0442 -0.0549
 7790W        W25994  12.866   8.442  13.188 -0.0102  0.1063  0.2893
 7791W        W25995   8.539  16.281   3.129 -0.2158 -0.1779  0.0200
 7792W        W25996   5.261   2.732  14.294  0.0292 -0.2135  0.3275
 7793W        W25997  12.208  14.671  14.067 -0.1464  0.2118  0.0270
 7794W        W25998   1.028  13.977  17.345  0.1074  0.0076 -0.1995
 7795W        W25999   1.919   3.398  17.294  0.0717 -0.2334  0.0623
 7796W        W26000   1.901   9.245   0.164  0.2304  0.1543  0.1891
 7797W        W26001   4.874   4.897   1.548  0.2314 -0.0022  0.0678
 7798W        W26002  11.303  10.242   1.281 -0.1055 -0.0207 -0.1301
 7799W        W26003   6.132   8.441  11.681 -0.1247 -0.3764  0.0380
 7800W        W26004   3.252   5.601   5.751 -0.1611 -0.1092  0.2997
 7801W        W26005  15.277  13.133   3.053  0.2521  0.1154 -0.2069
 7802W        W26006   2.398   2.142  17.340  0.0598 -0.4549  0.1035
 7803W        W26007  16.626  16.413   1.030 -0.1754  0.0518 -0.1218
 7804W        W26008  14.909   2.889  16.540  0.2339 -0.0069 -0.1872
 7805W        W26009   4.519  14.044   0.239 -0.0535 -0.0798  0.0381
 7806W        W26010   3.386   7.702  14.504 -0.0039 -0.0254 -0.4137
 7807W        W26011   4.658  16.617  11.915 -0.1537 -0.3783 -0.0278
 7808W        W26012  15.507  10.281  14.560  0.0999 -0.0830  0.0576
 7809W        W26013   9.136  16.332  16.257 -0.0165  0.2080 -0.0226
 7810W        W26014   9.507  10.098   3.664 -0.0515 -0.0967  0.3224
 7811W        W26015   5.467   1.735  11.810  0.0188  0.3350 -0.1989
 7812W        W26016   3.395  15.790   1.036  0.0632  0.1735 -0.0056
 7813W        W26017  16.094  17.202  13.827 -0.1897 -0.3881 -0.1386
 7814W        W26018  16.466  13.802   4.754 -0.2972 -0.1040  0.1627
 7815W        W26019   8.747  16.807   1.086  0.2664  0.1423  0.1215
 7816W        W26020   0.639   1.321   1.568 -0.0128  0.1954 -0.1416
 7817W        W26021  12.921  11.657   5.492 -0.2011 -0.0132  0.0871
 7818W        W26022  15.056   2.789   1.961 -0.1517  0.3559 -0.1426
 7819W        W26023  14.922  15.439   2.040 -0.2569 -0.3822 -0.0704
 7820W        W26024  13.904   9.695   0.807 -0.1124  0.2049  0.0915
 7821W        W26025   9.024   7.713  12.618  0.0182 -0.3263 -0.0503
 7822W        W26026  13.297  17.020  16.622 -0.0404 -0.0240 -0.2350
 7823W        W26027   2.383  17.336   0.236 -0.1460  0.0738  0.1158
 7824W        W26028   5.735   5.092   2.300  0.0610  0.2207 -0.0528
 7825W        W26029  13.508   7.823   0.300  0.1992 -0.0386  0.2838
 7826W        W26030  15.562   0.200   1.964 -0.0841 -0.0013  0.0425
 7827W        W26031  14.207  11.869  17.413 -0.1493 -0.1131  0.2932
 7828W        W26032   0.641   8.120   4.827  0.0553 -0.0551  0.0424
 7829W        W26033  10.716   5.657  13.887 -0.2502  0.1959 -0.3209
 7830W        W26034   2.503   6.516  15.682  0.0272  0.0424  0.2712
 7831W        W26035  17.235   1.515  16.835  0.6509 -0.1160 -0.1037
 7832W        W26036  11.170   6.996   1.959  0.1071 -0.0425  0.1779
 7833W        W26037   9.991   7.318  13.383 -0.1958  0.0719  0.2654
 7834W        W26038   0.665  15.984   0.263  0.0671 -0.0759  0.0165
 7835W        W26039  14.620   3.946   0.679 -0.0652  0.3760 -0.0629
 7836W        W26040  13.611   5.709   3.536  0.0493  0.0429 -0.1980
 7837W        W26041  12.657   5.429  14.322 -0.3465  0.0089 -0.1840
 7838W        W26042   6.656   9.399   5.241  0.0494 -0.0707 -0.2362
 7839W        W26043  14.451  13.873   5.378  0.1228 -0.1753  0.3002
 7840W        W26044   3.826   8.088   0.361 -0.1078  0.2974 -0.0136
 7841W        W26045  11.172   4.650  13.456 -0.0374  0.0950 -0.0273
 7842W        W26046  12.386  13.405   3.718 -0.2584  0.3500  0.2640
 7843W        W26047   0.660  10.711   4.419  0.1791  0.0689  0.0725
 7844W        W26048  14.984   0.856   0.895  0.1098  0.1207 -0.0548
 7845W        W26049   2.976   1.172   1.272 -0.1785  0.2263  0.0593
 7846W        W26050  14.194   3.973   3.390 -0.2873  0.2088  0.2113
 7847W        W26051   5.199   1.770   0.708 -0.2971 -0.0238  0.1710
 7848W        W26052  15.904   5.974  15.845 -0.0949 -0.2469  0.1525
 7849W        W26053   4.133   3.167  14.403 -0.3368 -0.0497 -0.3872
 7850W        W26054   4.577  10.067   2.112  0.0707 -0.0924 -0.0807
 7851W        W26055   9.534  16.255   6.240  0.4349  0.2614 -0.1359
 7852W        W26056   1.142   8.844  15.569 -0.2082 -0.0465 -0.3121
 7853W        W26057   9.552   1.443  16.783 -0.0862 -0.0806  0.0716
 7854W        W26058   5.031  16.012   4.624 -0.1393 -0.1208 -0.1688
 7855W        W26059  17.261   2.572  12.089 -0.4950 -0.0514 -0.3015
 7856W        W26060   0.919   8.257   3.621 -0.2571  0.0954 -0.2041
 7857W        W26061   9.905  13.568  15.034 -0.0201 -0.5185  0.2264
 7858W        W26062   2.840  10.592   4.639  0.1065  0.0071 -0.3315
 7859W        W26063   6.722  11.378   1.580  0.2768 -0.1576 -0.0550
 7860W        W26064  10.916   3.257   3.287 -0.0908  0.2870 -0.0171
 7861W        W26065  15.456  12.390   2.105  0.1449  0.0178  0.0072
 7862W        W26066  16.564   0.589  15.107  0.0341 -0.1222 -0.2389
 7863W        W26067  15.998   2.889  16.497  0.4023  0.2052  0.2553
 7864W        W26068   6.257  10.819  12.028 -0.1040  0.2181 -0.1221
 7865W        W26069  13.461  11.785  12.866  0.1346 -0.1444  0.0816
 7866W        W26070   4.364   9.732   4.120  0.4379  0.1478 -0.0397
 7867W        W26071  12.408   7.733  13.689  0.0788 -0.2345  0.0390
 7868W        W26072  17.083   4.446   1.454  0.0803  0.1043 -0.1640
 7869W        W26073   1.873   3.679   1.794  0.2213 -0.0467 -0.1911
 7870W        W26074   9.179  15.969   0.398 -0.1242 -0.0119  0.0821
 7871W        W26075  15.586   8.881  13.391  0.2901  0.0065  0.3669
 7872W        W26076   9.210   1.070  13.260  0.4015 -0.2028  0.5741
 7873W        W26077  11.675  12.601  17.325  0.2237 -0.0002  0.0197
 7874W        W26078   4.320  14.327  13.981 -0.2528  0.1005 -0.3431
 7875W        W26079  14.927  15.865  15.670 -0.1311 -0.1722  0.1604
 7876W        W26080  15.101   5.671   3.286  0.0691  0.2280 -0.1104
 7877W        W26081   3.932   8.353  15.850 -0.0502 -0.0539  0.3545
 7878W        W26082  17.088   1.913  11.873 -0.0184 -0.0507  0.1174
 7879W        W26083   9.973  13.248   2.346  0.4072 -0.0050 -0.2156
 7880W        W26084  12.589   2.612  11.786 -0.2041  0.0342  0.0520
 7881W        W26085  11.756  12.092  15.044  0.0860 -0.0211  0.1426
 7882W        W26086   2.440   1.937   5.450  0.0592 -0.0790 -0.1232
 7883W        W26087  11.276   2.115   4.229  0.0647  0.3844 -0.1547
 7884W        W26088   6.994  12.681  14.302  0.2452 -0.1204 -0.0457
 7885W        W26089   1.361   3.040  15.388  0.1853  0.0383 -0.1206
 7886W        W26090  11.040   2.700  13.561  0.2061 -0.1893  0.0466
 7887W        W26091   0.370   0.115  15.591 -0.0401 -0.1638  0.0516
 7888W        W26092  12.263   4.981  16.097  0.1893 -0.1142 -0.1656
 7889W        W26093  10.576   7.135   0.692  0.0484  0.0328 -0.0272
 7890W        W26094  16.518   9.076  14.817 -0.1291 -0.4397 -0.1002
 7891W        W26095  10.347   4.496  12.086 -0.2897 -0.0680 -0.2457
 7892W        W26096  17.128   1.691   5.220  0.3323 -0.4002 -0.0898
 7893W        W26097   5.722  13.533   0.412  0.1571  0.0295  0.3546
 7894W        W26098   0.781   8.992   2.628 -0.1478 -0.1884 -0.0897
 7895W        W26099   3.977  15.499   2.150 -0.1406 -0.1519 -0.1853
 7896W        W26100   9.799  13.992   3.933  0.2738  0.0394  0.2022
 7897W        W26101   5.226   8.017  14.214 -0.2095 -0.1482  0.2279
 7898W        W26102  11.026   7.945   3.935 -0.0678  0.1419 -0.0562
 7899W        W26103   2.285   5.241   3.386 -0.1857  0.1085  0.1345
 7900W        W26104  11.613  13.920   1.989 -0.0067 -0.3060 -0.0577
 7901W        W26105   5.693  16.716  16.912  0.1829 -0.2544  0.0364
 7902W        W26106   8.927   7.849  15.256  0.0999  0.2602 -0.0143
 7903W        W26107  11.336   2.029  16.212 -0.0742  0.2297 -0.1333
 7904W        W26108   9.071  10.315   0.756 -0.1883  0.2629 -0.1628
 7905W        W26109   7.537   5.219  12.423 -0.2997 -0.0586 -0.3110
 7906W        W26110  11.804  10.510  15.344  0.1238 -0.0461  0.2647
 7907W        W26111   6.500   9.988   2.740 -0.0004 -0.0362  0.4331
 7908W        W26112   5.440  16.803   5.115 -0.0650 -0.0735 -0.5409
 7909W        W26113  17.020   9.309   0.320  0.0093  0.2017 -0.0687
 7910W        W26114  15.273   5.448   2.907  0.4260  0.3104 -0.1571
 7911W        W26115   0.283  13.026  16.283  0.1126 -0.2459  0.0024
 7912W        W26116  10.018   5.449  14.520 -0.0674 -0.0533  0.2117
 7913W        W26117   3.804   2.055  11.224 -0.2094  0.1005 -0.0901
 7914W        W26118  12.124  12.433   3.017 -0.0687 -0.2252  0.3887
 7915W        W26119  14.387   1.120   4.694  0.1140  0.2271 -0.2205
 7916W        W26120   4.661   0.443  14.154  0.0890 -0.0165 -0.0394
 7917W        W26121   2.428   2.290   3.978 -0.0659  0.2681 -0.2324
 7918W        W26122   7.259   4.035  13.428  0.0491  0.2574 -0.0749
 7919W        W26123   6.905   8.288   1.882  0.0134  0.1114 -0.0781
 7920W        W26124  15.793  10.187  15.603 -0.0892  0.0054 -0.4107
 7921W        W26125  12.054   1.187   3.637  0.1390 -0.0697 -0.1515
 7922W        W26126   3.277   2.155  17.525 -0.3900  0.2773 -0.3929
 7923W        W26127  17.024  15.209   0.209  0.5598  0.1203  0.0503
 7924W        W26128  11.123  13.903  12.968 -0.0278 -0.3188 -0.0642
 7925W        W26129   5.605  16.565  15.867 -0.2730 -0.0649 -0.0869
 7926W        W26130   2.365  14.596  16.192  0.1752  0.0413  0.0411
 7927W        W26131   9.246   4.874  13.904  0.0865 -0.0895 -0.1242
 7928W        W26132   2.674   2.568  15.533 -0.0988  0.0830  0.3601
 7929W        W26133   2.616   5.646   3.583 -0.2393  0.1097  0.1109
 7930W        W26134   5.167   2.340   1.676  0.2100 -0.2419 -0.1242
 7931W        W26135  11.922   4.587   1.105  0.0406 -0.1255 -0.4587
 7932W        W26136   7.441   2.213  15.940 -0.3812 -0.2004 -0.2012
 7933W        W26137   5.443  10.276  12.940  0.1160  0.0301 -0.2741
 7934W        W26138  13.498   1.867   0.117  0.0534 -0.0073  0.0097
 7935W        W26139  10.995   9.467  15.961 -0.1303 -0.1583  0.3176
 7936W        W26140   9.985   2.350   1.563 -0.1542 -0.2278  0.1286
 7937W        W26141  12.522   2.228   2.971 -0.2042 -0.2362 -0.0607
 7938W        W26142   7.763   7.739  14.189 -0.0886  0.0942  0.0782
 7939W        W26143   7.981   2.140   5.317  0.0709  0.2878  0.0304
 7940W        W26144   1.452  12.375   1.377  0.2521  0.2818  0.0558
 7941W        W26145   6.934   7.843   2.300  0.2463  0.1469 -0.2259
 7942W        W26146   2.128  10.654  13.291 -0.0600  0.0936  0.1008
 7943W        W26147   3.914   8.413   2.080 -0.0882 -0.0797 -0.1286
 7944W        W26148  16.322  13.034  12.624  0.0739 -0.0483  0.2768
 7945W        W26149   1.272  12.810  15.445  0.0335  0.1550  0.2159
 7946W        W26150   0.359  10.444  15.950 -0.1862 -0.0403 -0.1232
 7947W        W26151   0.920  13.974   3.825 -0.2649 -0.0121  0.1004
 7948W        W26152   1.198  14.293  14.360  0.1154 -0.0005  0.0518
 7949W        W26153   6.044  14.450   0.562 -0.0059  0.0950  0.0768
 7950W        W26154  14.379   9.125  17.220  0.4387  0.1522 -0.5065
 7951W        W26155  12.443   3.095   5.554  0.0896 -0.0195 -0.0863
 7952W        W26156  13.850   8.963   4.832  0.0081 -0.0301  0.0820
 7953W        W26157   2.523  15.680   5.144 -0.0946 -0.1523 -0.2343
 7954W        W26158  11.184  11.397  15.725  0.3813 -0.0420 -0.3674
 7955W        W26159   8.119   7.072   5.348  0.1288  0.1209  0.0188
 7956W        W26160   3.715  16.245   5.256  0.2869 -0.2483 -0.0625
 7957W        W26161  10.723  14.181   2.202  0.3100 -0.0237  0.2920
 7958W        W26162  12.162  14.035   5.509 -0.0312 -0.1224 -0.3401
 7959W        W26163  12.977   5.975   5.444 -0.1853  0.0282 -0.1747
 7960W        W26164   1.903   8.440   2.455  0.0654 -0.3988  0.2372
 7961W        W26165  10.437  15.636   2.170 -0.1808 -0.1361 -0.1682
 7962W        W26166   9.692  15.692  15.609  0.1286  0.1017  0.0410
 7963W        W26167   1.704   4.577   2.270 -0.1357  0.1435 -0.2101
 7964W        W26168   5.841   9.734   3.272 -0.3526  0.2148  0.0697
 7965W        W26169   6.597   4.903  13.602 -0.2112  0.0681  0.0205
 7966W        W26170  10.223   8.371   2.679  0.1462  0.0711  0.3539
 7967W        W26171   2.584  11.543   2.623 -0.0863  0.2390  0.0616
 7968W        W26172  12.038   5.628   0.451  0.4739  0.0827 -0.0299
 7969W        W26173  16.168   8.726  14.786 -0.0370  0.0044  0.0668
 7970W        W26174  13.399   2.426   2.050  0.1013  0.1133  0.0570
 7971W        W26175   1.760  13.670   1.021 -0.0284 -0.1406 -0.4441
 7972W        W26176  11.101  10.423   0.859 -0.0563  0.3800 -0.3930
 7973W        W26177   9.597  12.442  15.800 -0.1503  0.0788  0.0082
 7974W        W26178  13.478  10.582  16.655  0.3261  0.1040 -0.1567
 7975W        W26179  11.579  17.191  12.847 -0.0233  0.1398 -0.0576
 7976W        W26180  11.648  10.071   4.074  0.0293 -0.0882 -0.5765
 7977W        W26181   0.719   4.375   4.093 -0.3291  0.0419  0.3411
 7978W        W26182   4.916   8.484  16.002 -0.2747 -0.0285  0.2925
 7979W        W26183   1.540  14.629  15.038 -0.2508  0.1146 -0.2037
 7980W        W26184  13.622  14.627  15.460  0.1503 -0.1185  0.0479
 7981W        W26185   5.265  11.569  15.341 -0.0854  0.0287 -0.0095
 7982W        W26186  11.371  11.388   3.500 -0.0534  0.3593 -0.1867
 7983W        W26187   4.713  10.321   1.079  0.2509 -0.0804  0.1153
 7984W        W26188  16.499  10.948  12.574  0.1095 -0.1565 -0.0508
 7985W        W26189  14.310   3.977  12.449  0.0025 -0.1043 -0.1209
 7986W        W26190  11.202  13.993  14.166  0.0118  0.2294 -0.0213
 7987W        W26191   8.521   5.286  16.139  0.0273  0.1314  0.0362
 7988W        W26192   1.429  10.204  14.273  0.2315  0.3499  0.2302
 7989W        W26193  14.070   5.922   1.757 -0.1707 -0.0819  0.0560
 7990W        W26194  14.630   5.515  15.416 -0.0249 -0.1107 -0.0382
 7991W        W26195   4.565   7.666   4.704 -0.0441  0.1175  0.0971
 7992W        W26196  16.026  13.549  15.499  0.0383 -0.0455 -0.0058
 7993W        W26197   2.948   3.534   0.155  0.0204  0.0048 -0.1624
 7994W        W26198  12.261  14.550  17.289  0.0826 -0.0500  0.0545
 7995W        W26199  10.558   1.025   3.887  0.2468 -0.2068 -0.2303
 7996W        W26200  13.819   4.241  14.164 -0.0289  0.1025  0.3067
 7997W        W26201   2.812  11.722   4.532  0.0637 -0.0355  0.0757
 7998W        W26202   8.407  12.741   3.776 -0.1115  0.1404 -0.2123
 7999W        W26203   6.347   7.304  13.747  0.4303  0.2076  0.3642
 8000W        W26204  15.156   1.823  12.044 -0.1661  0.0155 -0.0921
 8001W        W26205  11.431  16.433  16.172 -0.0260  0.0794  0.0693
 8002W        W26206   3.166   9.432  14.729  0.0076  0.1770 -0.0131
 8003W        W26207   8.678   6.582  12.305 -0.1476 -0.1432  0.3472
 8004W        W26208   2.658   0.050   4.338  0.1890  0.0493  0.1575
 8005W        W26209   8.235   7.350   3.741 -0.3479  0.1456  0.1411
 8006W        W26210   0.113   6.795   2.093 -0.1415 -0.1899  0.3298
 8007W        W26211   0.098  11.099  12.845 -0.3686  0.1284 -0.0579
 8008W        W26212  15.628   2.659  14.563 -0.0529 -0.0086 -0.0721
 8009W        W26213  15.803   0.935  13.518  0.0969  0.2220  0.1505
 8010W        W26214  14.279   1.914   1.134  0.0526 -0.0073 -0.0619
 8011W        W26215   5.800   1.907   0.688 -0.0778  0.0896  0.1634
 8012W        W26216   9.071  16.437   1.434  0.1825 -0.1550 -0.2044
 8013W        W26217   1.422   9.422   3.661 -0.3885  0.1030 -0.1020
 8014W        W26218  11.512   2.902  16.128  0.0858 -0.0449  0.0041
 8015W        W26219  12.220   5.937  15.769  0.0945 -0.1400 -0.1034
 8016W        W26220  12.946  16.281  14.038  0.2438  0.1026 -0.0597
 8017W        W26221  13.177  13.972   2.858  0.0302 -0.0787  0.3736
 8018W        W26222  11.338   9.240   1.591  0.1240  0.0255 -0.0068
 8019W        W26223  14.593   5.410   5.106 -0.0268  0.1568  0.2165
 8020W        W26224   9.407  12.460  12.919  0.0804  0.1522 -0.0292
 8021W        W26225  11.561   6.564  14.590  0.1459 -0.1075  0.3810
 8022W        W26226  16.576   3.873   1.550 -0.2740 -0.0158 -0.1063
 8023W        W26227   9.851  10.253  16.122 -0.3960 -0.2190  0.0015
 8024W        W26228  13.054  11.267   4.077 -0.1035  0.2821  0.0130
 8025W        W26229   2.653   6.121   2.524  0.0058 -0.3219 -0.1852
 8026W        W26230   8.780  13.310  12.461  0.1590 -0.0298  0.4247
 8027W        W26231  11.136   1.331  12.188  0.2342  0.1055 -0.2488
 8028W        W26232  16.151   7.626   5.766 -0.0162  0.2262 -0.1155
 8029W        W26233   1.789   3.182   1.836  0.2824 -0.2487  0.0862
 8030W        W26234   5.697   1.374   4.711 -0.2501 -0.3442  0.2880
 8031W        W26235   4.019   6.690   5.107 -0.0246 -0.2301 -0.0706
 8032W        W26236  12.037   5.981  13.098  0.1059  0.0519 -0.1255
 8033W        W26237  10.922   2.945  16.129 -0.1593  0.0815  0.0164
 8034W        W26238  11.393  10.220  16.588  0.1122  0.1551  0.0469
 8035W        W26239  10.553  14.671   3.042  0.0057  0.0415  0.1279
 8036W        W26240   7.293   1.151  15.596 -0.0539 -0.1301 -0.1643
 8037W        W26241   4.782   8.262   0.649  0.1689 -0.1234  0.1682
 8038W        W26242   8.620   7.239   0.189 -0.2261  0.2779  0.1137
 8039W        W26243   8.888  14.504  14.949 -0.0745  0.0079 -0.0750
 8040W        W26244   6.046   3.657  12.314  0.0685 -0.0783  0.1081
 8041W        W26245  15.653  12.014  13.801 -0.1919 -0.0431  0.0066
 8042W        W26246   9.028   5.581   3.694 -0.1798  0.0517 -0.0769
 8043W        W26247  14.293   9.051   2.528 -0.0152  0.1347 -0.0671
 8044W        W26248   7.895   8.111  11.924 -0.0143 -0.1353 -0.1514
 8045W        W26249  17.015   0.527   0.038 -0.0456  0.1367 -0.0361
 8046W        W26250  16.163   8.428  16.089  0.0524  0.0577 -0.2992
 8047W        W26251  16.066   4.402   5.951  0.0253 -0.2444  0.3258
 8048W        W26252   0.913  16.808  12.512  0.3069 -0.1867 -0.1844
 8049W        W26253   3.622   2.754   2.223 -0.2173  0.1605 -0.0004
 8050W        W26254  11.474   1.661   3.984  0.3352 -0.1419 -0.0339
 8051W        W26255   5.831   0.681  15.584  0.0280  0.0134 -0.1502
 8052W        W26256   3.913  13.688  16.045 -0.1561 -0.4434 -0.1424
 8053W        W26257  12.864  10.525  14.155  0.1758  0.1684  0.1029
 8054W        W26258  15.963  12.299   4.058  0.0152 -0.0183  0.3819
 8055W        W26259  14.908  16.647   3.449 -0.0269  0.0531 -0.1736
 8056W        W26260  13.610  11.531  15.150 -0.1355  0.1172 -0.0727
 8057W        W26261   8.378   6.135   5.576 -0.0075 -0.2743  0.3558
 8058W        W26262  13.003   8.189  16.297  0.0065  0.0520  0.0711
 8059W        W26263   7.633   1.538   1.974 -0.0846  0.2248  0.0108
 8060W        W26264  16.361   8.616  16.495  0.2799  0.3111  0.2983
 8061W        W26265  16.204  14.515  14.482 -0.0445  0.2371  0.4297
 8062W        W26266   8.365   2.259   2.882 -0.2725 -0.1083 -0.1148
 8063W        W26267   4.245  16.244   5.665 -0.0046 -0.0746  0.2021
 8064W        W26268  17.102  13.768   3.383  0.0646 -0.0504  0.1658
 8065W        W26269   1.486  14.600  14.057 -0.0032 -0.0401 -0.4411
 8066W        W26270   6.481  12.224   1.427 -0.0661  0.0033 -0.0254
 8067W        W26271   3.969   2.840   2.596  0.0118 -0.0582  0.0659
 8068W        W26272  15.854   6.500  12.171 -0.4242  0.5416 -0.1094
 8069W        W26273   8.411   6.927   3.873 -0.2675  0.0850 -0.1691
 8070W        W26274   4.836   1.646   0.383 -0.1493 -0.0467  0.1050
 8071W        W26275  12.322   1.584  12.209  0.1554  0.1298 -0.1197
 8072W        W26276   6.549  11.457   0.326 -0.0016 -0.0108  0.1441
 8073W        W26277   2.839   6.054   0.292 -0.2191  0.1307 -0.2016
 8074W        W26278   0.948  11.071  15.921 -0.0199 -0.1072 -0.2620
 8075W        W26279   0.529  12.207   2.694 -0.0124 -0.0996  0.2599
 8076W        W26280  11.471  12.150  13.733  0.1537  0.1726 -0.4420
 8077W        W26281  10.793  13.777   2.671  0.1342 -0.0160  0.0396
 8078W        W26282  10.767  16.360  14.842 -0.3302 -0.2042  0.0526
 8079W        W26283  12.882  13.617  14.314 -0.1342  0.2322  0.1166
 8080W        W26284  10.726  10.005  12.448 -0.0331 -0.1690  0.1051
 8081W        W26285   2.123   9.373   4.218  0.0617  0.0596 -0.0081
 8082W        W26286   9.488   9.116  15.389 -0.1703 -0.1435 -0.2968
 8083W        W26287  13.957  10.091  17.477 -0.0546 -0.0901 -0.1960
 8084W        W26288   5.591   9.079   0.981  0.0006 -0.2699  0.2513
 8085W        W26289   1.648  15.153  16.603  0.3599  0.0353  0.2544
 8086W        W26290  10.908  12.084   3.557 -0.1056  0.1718  0.0859
 8087W        W26291  14.758  13.607   2.544 -0.4189  0.1974  0.4311
 8088W        W26292  10.117  16.614   0.934  0.1748 -0.0353 -0.1314
 8089W        W26293  17.219   8.193  12.935  0.0278 -0.1315 -0.0531
 8090W        W26294   9.250   3.907  13.931  0.0828 -0.0567 -0.0244
 8091W        W26295   2.315   1.824  14.530  0.0124 -0.1463  0.1113
 8092W        W26296  13.030  10.374   1.948 -0.0109  0.0269 -0.1157
 8093W        W26297  10.098  10.488   4.385 -0.1470 -0.2533 -0.2277
 8094W        W26298   4.873   9.609  16.754 -0.2139 -0.2371  0.0439
 8095W        W26299   2.616   3.799  16.173  0.1062 -0.1760  0.0951
 8096W        W26300   0.966   6.212  16.279  0.0449  0.0368  0.0564
 8097W        W26301   4.374   0.971  13.423  0.1311 -0.1991 -0.1387
 8098W        W26302   1.639   2.187   1.871  0.0732  0.2654  0.0531
 8099W        W26303   0.124   5.977   3.260 -0.0579  0.1837 -0.1573
 8100W        W26304   4.408   4.926   5.963  0.1497  0.0519  0.0039
 8101W        W26305  10.610  10.259   4.325  0.1325  0.0539  0.0199
 8102W        W26306   7.026   9.149  16.536  0.1834 -0.0290 -0.2407
 8103W        W26307  15.905   4.210  15.246  0.0535 -0.0242  0.1273
 8104W        W26308   4.884   5.560  17.100  0.2403 -0.3700  0.0050
 8105W        W26309   4.207   8.456   4.791 -0.0152  0.1372  0.2645
 8106W        W26310   7.586   4.251   1.012  0.0244  0.1929 -0.2313
 8107W        W26311  10.224   6.238   0.404  0.0647  0.2118  0.1753
 8108W        W26312  13.898   5.840  14.857  0.1268  0.3752 -0.0748
 8109W        W26313   9.079   1.804  12.513  0.0843  0.2796  0.1974
 8110W        W26314  14.956  14.633   0.480 -0.0404 -0.0510 -0.2698
 8111W        W26315   0.941   1.722  15.943 -0.0649 -0.1869 -0.0206
 8112W        W26316   7.640  12.056  14.607  0.1456  0.1947  0.5948
 8113W        W26317  11.536  11.172   0.784 -0.0440 -0.0328 -0.0544
 8114W        W26318   0.418   6.853  14.786 -0.2207 -0.0221  0.0087
 8115W        W26319   1.385  13.826   0.123  0.3065  0.0029  0.0455
 8116W        W26320   8.186   5.970  12.941  0.1676 -0.0222  0.0653
 8117W        W26321   2.377  15.583  14.261  0.4721 -0.0072  0.0118
 8118W        W26322   4.985   1.769  14.434 -0.0335 -0.3308  0.0371
 8119W        W26323  10.865   3.675   4.110  0.0865 -0.0481  0.0043
 8120W        W26324  13.148   2.986   0.656  0.0614 -0.0891 -0.0265
 8121W        W26325  12.987   9.136   4.822 -0.5591 -0.2463 -0.1764
 8122W        W26326  12.763  12.615  16.114 -0.3284 -0.1943 -0.3880
 8123W        W26327   3.338   9.502   2.171 -0.0524 -0.0881  0.0398
 8124W        W26328  15.425  16.544   2.639 -0.2302  0.1474 -0.1094
 8125W        W26329   5.999   1.847  14.148  0.0225 -0.0468  0.0644
 8126W        W26330  13.194   8.583   2.965 -0.0858 -0.1432 -0.1811
 8127W        W26331   6.009   5.440   4.400 -0.1303 -0.1087 -0.1464
 8128W        W26332  14.042   7.591  12.184  0.0250 -0.1350 -0.0417
 8129W        W26333  13.767   9.753   2.394  0.1055 -0.1028 -0.1782
 8130W        W26334   5.694  15.565   2.625  0.2652  0.0015 -0.3112
 8131W        W26335  13.618   8.681  15.307 -0.0496  0.5065  0.0100
 8132W        W26336   9.399   4.596  16.778  0.1285  0.2004  0.2660
 8133W        W26337   8.748   2.492   0.849 -0.2819 -0.1190  0.0203
 8134W        W26338   9.778  13.648  15.537 -0.0562 -0.0018 -0.0840
 8135W        W26339   2.826   7.959  15.125 -0.1754  0.4762  0.0276
 8136W        W26340   9.608  10.509  12.230  0.2241 -0.1449  0.0330
 8137W        W26341  15.678   3.741  15.167 -0.2687  0.0535 -0.0812
 8138W        W26342   5.692  12.653  12.458 -0.1412  0.1679 -0.1874
 8139W        W26343  11.005   3.285  15.625 -0.1699  0.1293 -0.0870
 8140W        W26344   3.091  14.107  15.664  0.0543  0.0866  0.0300
 8141W        W26345  16.007  15.068  14.522  0.0686 -0.1361  0.2975
 8142W        W26346  12.875  12.508   0.818  0.0079  0.4320 -0.1912
 8143W        W26347   1.771   7.525   3.569 -0.1108 -0.1522  0.0530
 8144W        W26348  14.689  13.198  15.371 -0.0912  0.0983  0.0969
 8145W        W26349   6.741  13.707  15.960 -0.2050  0.1450  0.2072
 8146W        W26350  14.415  10.555  16.283 -0.1761 -0.3749 -0.5097
 8147W        W26351   2.522  15.588  17.461 -0.1945 -0.1709  0.0232
 8148W        W26352  12.711   0.771   5.190  0.0371  0.0947  0.0958
 8149W        W26353  16.330   9.008   1.028 -0.2520  0.1831 -0.2863
 8150W        W26354  12.562   9.776   1.033 -0.2109  0.2586 -0.2750
 8151W        W26355   3.495  16.447  17.013 -0.0868  0.2172  0.2599
 8152W        W26356   2.975   5.949  17.272  0.0572  0.2062  0.0883
 8153W        W26357  11.767  12.207  13.327  0.1912 -0.1456  0.0873
 8154W        W26358  14.918   2.976  13.336  0.0045  0.0318  0.1039
 8155W        W26359   8.917  15.507  12.992  0.3995  0.2871 -0.3704
 8156W        W26360   5.651  12.233  14.108  0.2350  0.0445 -0.0027
 8157W        W26361  16.879   9.285   2.118 -0.1570  0.0216  0.1242
 8158W        W26362  10.433   0.850  16.771 -0.0845 -0.1213  0.1884
 8159W        W26363   8.911  13.390   1.948 -0.3383 -0.0335 -0.1635
 8160W        W26364  10.062  17.203  14.781 -0.0429  0.0630  0.0459
 8161W        W26365  12.601   6.597  15.315 -0.3143 -0.0356 -0.2597
 8162W        W26366  15.595  12.030   1.590 -0.2147 -0.1262 -0.1164
 8163W        W26367  14.347  12.044  16.388  0.0410  0.0422  0.0246
 8164W        W26368   3.685   0.279  14.998 -0.1700  0.1636 -0.0309
 8165W        W26369  10.437  12.315  17.131 -0.0487 -0.0324  0.2127
 8166W        W26370   0.798  16.506  15.305  0.1614 -0.1808 -0.1296
 8167W        W26371  13.809  17.133  12.417  0.2285  0.3046  0.2652
 8168W        W26372   7.138  14.922   1.096 -0.2951  0.0493  0.0125
 8169W        W26373   7.665   3.935  14.419  0.0391  0.3163  0.1555
 8170W        W26374   3.687   4.462  15.503 -0.4350  0.0651  0.1363
 8171W        W26375  13.649  12.020  14.917  0.3615 -0.1674 -0.0181
 8172W        W26376   3.565  13.625   4.903  0.1015 -0.3091 -0.1270
 8173W        W26377   1.561  10.395   6.148 -0.1441  0.1082 -0.1889
 8174W        W26378  11.993  14.742  15.931  0.2132 -0.1915 -0.1695
 8175W        W26379   2.070   5.539  13.500 -0.0783 -0.1264 -0.3352
 8176W        W26380   6.382   0.968   4.061 -0.0913 -0.0364 -0.2475
 8177W        W26381   5.092  10.620   4.370  0.0875 -0.2087  0.0769
 8178W        W26382  14.010   3.679  17.308 -0.1764 -0.0458  0.0480
 8179W        W26383   8.127   4.403  15.689  0.2001 -0.1278 -0.0115
 8180W        W26384  16.030   5.968   4.118  0.1324 -0.0035 -0.2057
 8181W        W26385   4.663  17.081   1.744 -0.0461 -0.0728 -0.0776
 8182W        W26386  10.409   0.012  17.373 -0.3492  0.1293  0.1452
 8183W        W26387  10.685   8.004   4.868  0.1486  0.0802 -0.1943
 8184W        W26388   5.659  13.343  17.406 -0.0614 -0.0845  0.1149
 8185W        W26389  15.929  11.577   1.375  0.2712  0.2052 -0.2861
 8186W        W26390  16.824   2.445  13.944 -0.7467  0.1598 -0.1018
 8187W        W26391  16.489  14.876  16.021  0.3012 -0.2669 -0.3716
 8188W        W26392   0.738   0.853  12.475  0.0168 -0.2031 -0.3950
 8189W        W26393   5.005   0.186  14.460 -0.1910  0.1051  0.1508
 8190W        W26394   1.655  15.287  12.891  0.0868 -0.0095 -0.1032
 8191W        W26395   3.510   1.212   2.119 -0.2053 -0.5445  0.0317
 8192W        W26396   5.691   0.510  14.845 -0.2797 -0.1754 -0.1801
 8193W        W26397  13.063   4.491  15.401 -0.0978 -0.3477  0.0293
 8194W        W26398   0.668   5.180  13.441  0.2414  0.2914 -0.1256
 8195W        W26399   8.586   0.447   4.747 -0.1755 -0.3775 -0.1285
 8196W        W26400   0.113   4.306   1.798  0.2186  0.2154  0.1844
 8197W        W26401  13.271   0.374   2.502 -0.4051  0.1128  0.0970
 8198W        W26402   2.442   5.995   2.975  0.0820  0.0443  0.1925
 8199W        W26403   2.176   1.306   1.095  0.2457 -0.1119 -0.1323
 8200W        W26404  15.680   8.331  14.172 -0.1558  0.2051  0.0111
 8201W        W26405  10.864  13.741  15.931 -0.2116  0.0195  0.1609
 8202W        W26406  15.372   7.298   1.476 -0.2712 -0.2168  0.0696
 8203W        W26407  13.061   0.464   3.918 -0.2017 -0.1103  0.3107
 8204W        W26408   8.072  11.489  14.341  0.3484  0.2056 -0.1761
 8205W        W26409   8.973   8.113  12.967 -0.2321 -0.0178 -0.0516
 8206W        W26410   3.097  16.955   0.055 -0.1248  0.0882  0.2136
 8207W        W26411   2.815   9.216  16.495 -0.0634  0.0957 -0.0761
 8208W        W26412   9.363  13.473  14.902  0.1374 -0.0156 -0.0796
 8209W        W26413  14.812   2.392   2.235  0.2098 -0.0929  0.3186
 8210W        W26414   0.039  14.194  14.865 -0.0068  0.0053  0.2652
 8211W        W26415  11.763   5.174  15.976 -0.0062  0.0131  0.0288
 8212W        W26416   7.757  14.377   1.638 -0.0778 -0.3402  0.2135
 8213W        W26417  12.675  15.654  12.800 -0.0391  0.3361 -0.2953
 8214W        W26418  10.967   2.880   1.016  0.1422 -0.0188  0.0138
 8215W        W26419   7.318   6.823   2.282 -0.1142  0.1545 -0.0890
 8216W        W26420   2.659   7.396   0.682 -0.0357 -0.0298 -0.1441
 8217W        W26421   5.705   6.547  11.859  0.3227  0.1000  0.0865
 8218W        W26422  11.741   4.189  15.587  0.2356 -0.1608 -0.0893
 8219W        W26423  12.478  10.046   0.613 -0.0791  0.0651 -0.0861
 8220W        W26424  13.782  16.657  16.895  0.0476  0.0794 -0.3607
 8221W        W26425   8.134  13.890  17.432  0.0915 -0.0622 -0.0713
 8222W        W26426   6.457   8.409   4.752  0.0456  0.0274 -0.1915
 8223W        W26427   2.938   5.270  16.220 -0.3717  0.0389 -0.0259
 8224W        W26428  15.585   0.766  15.356  0.3760  0.1322 -0.1144
 8225W        W26429  13.207  17.035  15.078  0.4028  0.1557 -0.0642
 8226W        W26430   6.671   9.580   1.580 -0.3706  0.2432  0.0730
 8227W        W26431   5.696   9.568   0.134 -0.1936  0.3125  0.0899
 8228W        W26432   4.964  15.181  16.528 -0.0243 -0.2968  0.1405
 8229W        W26433   8.117  17.108   3.967  0.2414 -0.1121 -0.3706
 8230W        W26434  13.005   8.113   0.125 -0.0555 -0.1950 -0.0109
 8231W        W26435   7.710   8.760  16.656  0.2889 -0.0188  0.2893
 8232W        W26436   8.276  17.325  16.849  0.0334 -0.2970 -0.1218
 8233W        W26437   3.720  17.160   0.962 -0.1584  0.4260  0.0852
 8234W        W26438  14.368   0.138   2.537  0.1132 -0.0729  0.1325
 8235W        W26439   9.661  10.728  15.502  0.0021  0.1889  0.1552
 8236W        W26440   5.422   0.518   4.224  0.0176 -0.0392 -0.0953
 8237W        W26441   7.450   3.111  13.741  0.2591  0.1877 -0.0829
 8238W        W26442   6.495   5.251  14.627  0.0479 -0.0422 -0.1667
 8239W        W26443  12.214  15.480  16.326  0.2291  0.1052  0.1276
 8240W        W26444  15.246   8.489   3.808  0.4185 -0.1583  0.0151
 8241W        W26445  13.718  17.267   4.287 -0.4042 -0.1565  0.2382
 8242W        W26446   1.493   0.228  12.657  0.2718  0.2574 -0.1116
 8243W        W26447  15.936  16.401   5.257 -0.3184 -0.0275 -0.0088
 8244W        W26448   4.465  11.047  16.719  0.1481  0.1815 -0.3541
 8245W        W26449  16.592   9.513   2.962 -0.0239 -0.2537  0.1520
 8246W        W26450  14.372   0.904  12.883  0.0294 -0.0681  0.0124
 8247W        W26451  14.450  17.235  14.609  0.0580 -0.0045  0.0307
 8248W        W26452  14.267  11.327  14.637  0.0224 -0.1579  0.0564
 8249W        W26453  14.547   4.125  16.026 -0.1144 -0.3776  0.0464
 8250W        W26454   4.229   6.702   0.210 -0.1409  0.1309  0.0843
 8251W        W26455   8.837   5.684   0.696  0.0759  0.1098 -0.1061
 8252W        W26456   3.654   2.243  12.503 -0.0291 -0.0916  0.0425
 8253W        W26457  13.102   5.451  12.096 -0.0986 -0.2793 -0.0083
 8254W        W26458   9.128   1.819  14.381 -0.0769  0.1716  0.3365
 8255W        W26459  13.360   7.397  13.332 -0.2146 -0.1684  0.0383
 8256W        W26460   7.278   2.940   4.515 -0.0496 -0.2833  0.1686
 8257W        W26461  11.782   3.303  14.445  0.1834 -0.2017 -0.0042
 8258W        W26462   9.879   6.567  13.075  0.0946 -0.2875  0.1313
 8259W        W26463   5.562  16.678  16.408 -0.3254  0.0452 -0.0356
 8260W        W26464  13.997  14.850   1.995  0.0680  0.0639 -0.2683
 8261W        W26465   0.008  10.158  15.326  0.0778  0.1703 -0.1010
 8262W        W26466   7.916  14.324   0.135  0.3668  0.2014  0.0530
 8263W        W26467   0.744  12.919   3.334  0.2294  0.1789  0.0380
 8264W        W26468   4.018   1.719  13.670 -0.1184 -0.1040 -0.0553
 8265W        W26469   3.519   9.154  16.164  0.1580 -0.2478 -0.3592
 8266W        W26470   9.281  12.352   3.297  0.1352 -0.0369  0.1997
 8267W        W26471   1.387   9.216   0.501 -0.1538 -0.0733 -0.3217
 8268W        W26472   4.523   0.113  16.987  0.1409  0.4619 -0.2635
 8269W        W26473   3.138  15.072  17.097 -0.1793 -0.2071 -0.1919
 8270W        W26474   0.527  17.307   5.503  0.2158  0.0547 -0.2731
 8271W        W26475  13.152  13.532   2.462 -0.1510 -0.0249  0.1469
 8272W        W26476  14.851   9.995   0.461  0.1524  0.0765 -0.1961
 8273W        W26477   1.890   0.958  13.749  0.1262 -0.2218  0.0335
 8274W        W26478  12.910  14.394  14.769  0.0445  0.0397 -0.0108
 8275W        W26479   8.215   5.041   2.868 -0.0521  0.1673  0.0598
 8276W        W26480   2.711  12.652   0.570  0.0703  0.0393 -0.1619
 8277W        W26481   2.317   4.340  16.890 -0.0512 -0.0371 -0.1618
 8278W        W26482   3.208  16.691  12.579 -0.3000  0.2794  0.0184
 8279W        W26483  16.442   4.992  16.685  0.0711  0.1134  0.0055
 8280W        W26484  17.231  16.667  14.152 -0.3767 -0.1963  0.0720
 8281W        W26485   8.509   9.612  13.465 -0.3084 -0.1885  0.2792
 8282W        W26486   3.120   7.370   2.688  0.0850  0.1814  0.2027
 8283W        W26487   8.855  14.675  17.253  0.2627  0.1061 -0.1586
 8284W        W26488   4.346   4.673  12.559  0.1288  0.1942  0.1536
 8285W        W26489   2.883   6.838  14.971 -0.2917 -0.0259  0.0038
 8286W        W26490  10.582  11.481   2.406  0.0040  0.0788 -0.0243
 8287W        W26491  11.345   5.501  15.828  0.0817 -0.1762  0.0794
 8288W        W26492   1.933  10.839   2.374 -0.0903  0.2999 -0.0167
 8289W        W26493   4.382   5.043   2.923  0.0131 -0.1380 -0.3126
 8290W        W26494  13.553   0.187   3.898  0.0621 -0.1937 -0.0967
 8291W        W26495   0.687   1.176  15.679  0.3283 -0.4238 -0.1215
 8292W        W26496   7.978  10.783  16.887 -0.0346  0.1914  0.3460
 8293W        W26497   9.787  14.539  13.023 -0.0290  0.1590 -0.1607
 8294W        W26498   6.539   2.432   1.188 -0.2117  0.3623 -0.2105
 8295W        W26499  11.550  11.872   5.311  0.0337 -0.1602 -0.2698
 8296W        W26500  15.048   5.315   2.067  0.1660 -0.2282 -0.2057
 8297W        W26501  14.960  12.176   1.369  0.0482  0.0133  0.0551
 8298W        W26502   9.948  12.978  15.105 -0.4816  0.1326 -0.0700
 8299W        W26503   0.806  13.036  12.218 -0.1226  0.0466 -0.1140
 8300W        W26504   3.885   3.486   0.853  0.0574 -0.2596  0.1309
 8301W        W26505  12.335  16.572   0.094  0.1924 -0.0436  0.0010
 8302W        W26506  16.193   4.733  12.359  0.1462  0.1183  0.3211
 8303W        W26507  15.976  12.397   1.142 -0.0702 -0.3238 -0.1024
 8304W        W26508   2.140  10.904  13.794 -0.0159 -0.0277  0.0463
 8305W        W26509   2.701  13.918   1.789 -0.0822  0.0672  0.0475
 8306W        W26510  10.387  14.758   2.105  0.2127 -0.1987 -0.0355
 8307W        W26511  12.717  14.587  11.968 -0.0110 -0.3481 -0.2274
 8308W        W26512  12.013   4.301  14.536  0.0897 -0.1268 -0.1468
 8309W        W26513   3.824   5.581   0.692  0.0877 -0.2534  0.1638
 8310W        W26514  16.196   0.002   5.045  0.1153 -0.0117 -0.1805
 8311W        W26515   6.812  12.831   4.699  0.1062 -0.0487 -0.2344
 8312W        W26516   7.769   2.122   1.717 -0.2800 -0.2599 -0.2167
 8313W        W26517   6.811  11.500  14.713  0.1315  0.0816 -0.0364
 8314W        W26518   1.808   5.010  12.023 -0.0587 -0.2029  0.0538
 8315W        W26519   9.538   7.034   2.078 -0.2041 -0.1506 -0.0972
 8316W        W26520  13.214   7.842  15.650  0.2116 -0.5202  0.1215
 8317W        W26521  10.507   6.610  12.392 -0.1425  0.1783  0.1577
 8318W        W26522   3.393  16.247   0.724  0.0259 -0.1987 -0.1397
 8319W        W26523   8.094   2.637   0.555 -0.1091 -0.0249 -0.2133
 8320W        W26524  10.289   5.784  14.818  0.2202 -0.1752  0.1764
 8321W        W26525   3.074   8.137   0.198  0.3041  0.1712  0.1741
 8322W        W26526   1.400   8.898  17.015 -0.2257  0.2129  0.2300
 8323W        W26527  17.057  14.789  16.088  0.1253 -0.1837 -0.0142
 8324W        W26528  14.900   3.642   5.129 -0.3487 -0.1387 -0.1536
 8325W        W26529   4.918   2.813   5.428 -0.0597 -0.0458 -0.1585
 8326W        W26530   4.701  11.162   2.824 -0.1850 -0.2034 -0.2770
 8327W        W26531  15.099   2.758   4.524 -0.1754  0.0451 -0.0862
 8328W        W26532  10.080  13.582  17.005 -0.0543 -0.2915 -0.2300
 8329W        W26533  15.749  14.970   0.438 -0.1086 -0.4194 -0.1698
 8330W        W26534  12.943   9.173  16.446 -0.2008 -0.0539  0.2631
 8331W        W26535   3.521   6.789   4.633 -0.4149 -0.1653  0.1852
 8332W        W26536   0.358   0.967   0.670  0.1080 -0.3048  0.3451
 8333W        W26537   1.186  10.825  13.810 -0.1553 -0.0460  0.1805
 8334W        W26538   2.577  14.724   0.135 -0.2196 -0.1081  0.1608
 8335W        W26539   0.350   1.300   4.061 -0.0889 -0.0276 -0.0533
 8336W        W26540  14.867   7.178   1.392  0.0269 -0.0349 -0.2365
 8337W        W26541   5.589   7.159  17.159  0.2942 -0.0822 -0.0597
 8338W        W26542   7.646  13.080   6.261 -0.0829 -0.1213 -0.0931
 8339W        W26543  16.871  15.922  17.216 -0.0590 -0.3120 -0.0045
 8340W        W26544   3.000   3.597  14.454 -0.1124 -0.0458  0.4524
 8341W        W26545  10.685   4.606   5.821  0.1326 -0.0053 -0.1298
 8342W        W26546   7.316  13.692   0.635  0.1037  0.1694  0.1449
 8343W        W26547   3.313   4.817   0.922 -0.3683  0.0073 -0.4052
 8344W        W26548  13.198   3.352  15.068 -0.3115  0.1074 -0.3569
 8345W        W26549   2.479   9.307  12.952 -0.2041  0.0413  0.3386
 8346W        W26550  10.650   9.805   2.480 -0.1975  0.2972  0.0752
 8347W        W26551  16.895   9.243  12.413 -0.0586  0.0761 -0.2456
 8348W        W26552  15.654   1.341   4.124 -0.0921 -0.0302  0.0914
 8349W        W26553  12.043  10.567   1.717  0.3066 -0.1989  0.2156
 8350W        W26554  10.838   6.404   3.067 -0.1800  0.1484  0.0718
 8351W        W26555  11.136   8.263   1.694  0.1538  0.0739  0.0557
 8352W        W26556   8.172  13.188   4.529 -0.3468  0.1048 -0.1917
 8353W        W26557   5.810   1.796   3.153  0.1570  0.2424  0.1611
 8354W        W26558   5.528   5.064  16.705 -0.3013 -0.2524  0.1808
 8355W        W26559  16.810   3.870  13.628  0.3460  0.0662 -0.0102
 8356W        W26560  10.162  12.406   1.117  0.1553 -0.0273  0.0089
 8357W        W26561   3.138  12.388   5.394  0.0291 -0.0679  0.0519
 8358W        W26562  10.977   4.259  14.653  0.5250  0.0071 -0.0447
 8359W        W26563   7.959   2.063   3.120  0.0722 -0.1653  0.0917
 8360W        W26564   3.382   4.958  16.238  0.0049  0.0775  0.1139
 8361W        W26565  13.266  15.668   5.319  0.1928  0.0814 -0.0492
 8362W        W26566   6.899   6.800  15.836  0.3193 -0.0940 -0.0263
 8363W        W26567  13.967   4.022  15.398  0.0479 -0.1051  0.2691
 8364W        W26568  15.374   4.734  14.570 -0.1463  0.1849  0.1477
 8365W        W26569   0.965   9.679  17.311  0.0863 -0.1974  0.0364
 8366W        W26570   5.376   4.347  17.285 -0.1481 -0.1314 -0.2327
 8367W        W26571  14.186  11.293  13.148  0.0295 -0.0664  0.0801
 8368W        W26572  13.395   9.101   5.152 -0.3400 -0.0884 -0.0177
 8369W        W26573   8.168   5.593   3.314  0.0184  0.2825  0.1043
 8370W        W26574  11.604   5.539   5.350 -0.4228 -0.0079  0.1137
 8371W        W26575   1.380  10.871   2.277 -0.0789 -0.0648  0.1347
 8372W        W26576   6.415   4.364   3.678 -0.2648  0.0159 -0.2475
 8373W        W26577  16.666   6.095  12.548 -0.1463  0.0603  0.1728
 8374W        W26578   7.025   7.983   0.439 -0.3755  0.2351 -0.0198
 8375W        W26579   5.353  16.875   2.265  0.3672 -0.1838 -0.1094
 8376W        W26580   3.252   5.493  12.894 -0.1173 -0.0968  0.1851
 8377W        W26581  14.317  14.230   4.654  0.1521 -0.0517 -0.0060
 8378W        W26582  15.474   3.517   2.654 -0.0212 -0.2369  0.1773
 8379W        W26583  12.876  16.207  15.498 -0.1428  0.0476 -0.0719
 8380W        W26584   8.906   3.893   2.748 -0.1673 -0.1414 -0.1480
 8381W        W26585   5.826   4.306  17.046  0.1066  0.0506  0.1372
 8382W        W26586  13.080   0.498   2.998 -0.0315 -0.0133  0.2580
 8383W        W26587   7.993   3.801  12.205 -0.2449 -0.1042  0.1070
 8384W        W26588  16.748   9.174  16.279  0.0663  0.1863 -0.2063
 8385W        W26589  13.265   8.380  15.060 -0.3911  0.1408 -0.0447
 8386W        W26590  11.357  13.938   1.262  0.1865  0.0938 -0.3448
 8387W        W26591   6.498   5.049  14.115 -0.1782 -0.1034 -0.3648
 8388W        W26592  14.506   0.316   3.791 -0.0631  0.0584 -0.1821
 8389W        W26593   2.323   6.623   4.762 -0.0616 -0.0022 -0.2962
 8390W        W26594   4.694  14.712   2.600 -0.0811 -0.1304 -0.1481
 8391W        W26595  10.276   0.330   4.858 -0.2621  0.0699 -0.2008
 8392W        W26596  11.599   4.689   2.063 -0.3567  0.0099  0.0288
 8393W        W26597   3.717  10.245   2.523  0.1379  0.3453 -0.0589
 8394W        W26598   7.643   9.187   2.534 -0.1677 -0.1819  0.0446
 8395W        W26599  16.535   2.404  15.284  0.2677  0.0393  0.2180
 8396W        W26600   8.781  16.281  12.563  0.1229 -0.1202  0.0884
 8397W        W26601   1.221   8.210   2.452 -0.0926  0.1206 -0.2496
 8398W        W26602  15.174  10.659  15.546  0.1433  0.0161 -0.0513
 8399W        W26603  13.403  11.771  17.171 -0.1610 -0.1992  0.3127
 8400W        W26604   0.616   3.452  15.641 -0.0405  0.2731  0.0129
 8401W        W26605   1.014   2.201  14.088  0.0542 -0.0107 -0.0619
 8402W        W26606  16.263  15.173  17.152 -0.0001  0.0047 -0.0495
 8403W        W26607  12.054   2.815   5.428  0.1997  0.4032  0.1061
 8404W        W26608   3.342   6.887   0.128 -0.0470  0.0215  0.1380
 8405W        W26609  17.036   9.867   5.101  0.4620  0.1001  0.0477
 8406W        W26610  13.649  11.746  12.267  0.1265  0.3287 -0.0662
 8407W        W26611  13.673   4.593   5.500 -0.0287  0.2414 -0.0311
 8408W        W26612   4.888  13.473  14.395 -0.0397  0.2116  0.1789
 8409W        W26613  14.735   9.470  17.068 -0.1890  0.0607 -0.2702
 8410W        W26614   0.482  14.185  15.602 -0.0276  0.4016  0.1105
 8411W        W26615  10.182  11.769   0.376 -0.0690  0.1912  0.0048
 8412W        W26616   5.105   5.065  13.483  0.1939  0.3206  0.0046
 8413W        W26617   3.856  11.948  15.843 -0.1427  0.0123  0.0878
 8414W        W26618   8.412   3.525  16.702  0.2541  0.0185  0.0370
 8415W        W26619  11.733   1.631  13.194  0.0578  0.0798  0.2734
 8416W        W26620   5.875   3.434  15.523  0.4826 -0.1477  0.3034
 8417W        W26621  12.954  13.977   0.710 -0.4384  0.3212 -0.0851
 8418W        W26622   8.716   0.867   4.485  0.3482 -0.1719 -0.0547
 8419W        W26623   8.312   7.196   1.914 -0.1706 -0.0688 -0.0470
 8420W        W26624   3.674  13.888  12.231 -0.2377 -0.2260 -0.0597
 8421W        W26625  15.146   2.205   4.531  0.0706 -0.0428 -0.2752
 8422W        W26626   0.496   3.165   4.471  0.1972  0.0515  0.1811
 8423W        W26627  13.875   6.705   2.131 -0.2824  0.1843 -0.1144
 8424W        W26628  11.478  11.418   1.785  0.0358  0.0183  0.0974
 8425W        W26629   6.295  13.692  14.016  0.2250  0.0768  0.0902
 8426W        W26630  12.589  13.830   1.579  0.2041  0.0793 -0.0829
 8427W        W26631  16.542   6.846   3.540  0.0039  0.0811  0.0321
 8428W        W26632  16.514  11.645   1.035  0.0642 -0.0813 -0.1977
 8429W        W26633   3.721  14.043  17.528  0.1658  0.0751  0.1677
 8430W        W26634   5.150  15.723   1.090  0.0121 -0.2414  0.2112
 8431W        W26635   3.741  16.258  15.123 -0.3055  0.1299 -0.1397
 8432W        W26636   3.276  11.394   0.430 -0.0175 -0.0926 -0.0481
 8433W        W26637   5.530   5.463  14.627 -0.0852 -0.3884 -0.0981
 8434W        W26638  15.212  15.324  15.918  0.0988 -0.4033  0.1295
 8435W        W26639  15.081   9.939  17.045  0.1748 -0.3073  0.1016
 8436W        W26640  10.710   6.405  15.801 -0.1907 -0.0770 -0.2832
 8437W        W26641   8.540   9.847   2.792 -0.0573  0.0738 -0.0424
 8438W        W26642   7.771  15.598  16.116  0.0050 -0.4120  0.3063
 8439W        W26643   9.496  12.319   2.185  0.1329 -0.1699  0.1213
 8440W        W26644  11.911   0.955   5.476 -0.0031  0.1952 -0.1991
 8441W        W26645  11.414   8.142  12.352 -0.1057 -0.1038  0.3297
 8442W        W26646   1.254   3.005   1.558 -0.1787 -0.0429 -0.0149
 8443W        W26647  13.943   9.641  16.177 -0.2791  0.0557  0.2801
 8444W        W26648   9.715   3.395  12.351  0.1700 -0.0151  0.1143
 8445W        W26649   2.521  16.644   4.196 -0.1411 -0.1187  0.0725
 8446W        W26650   4.602  11.411   4.458 -0.0219 -0.0919 -0.2800
 8447W        W26651   6.361  16.598   4.100 -0.4235 -0.1523 -0.2902
 8448W        W26652   8.533  14.207   2.479  0.0117  0.0832  0.1565
 8449W        W26653   8.344   0.663  16.628  0.0577  0.3282 -0.1697
 8450W        W26654   4.472  13.580  16.051 -0.0068  0.2416  0.1573
 8451W        W26655   0.618   4.605  12.643 -0.0297 -0.1752  0.0505
 8452W        W26656  11.537  16.423  15.088 -0.1184  0.1442  0.2025
 8453W        W26657  13.800   5.098   1.265  0.0408 -0.1400  0.1419
 8454W        W26658  11.498   4.593  13.082 -0.3973  0.1327 -0.1699
 8455W        W26659  14.509   5.250   4.625 -0.2896 -0.0044 -0.0081
 8456W        W26660  16.837   2.178   1.867  0.0175 -0.1268 -0.1184
 8457W        W26661   3.242   8.967   0.883 -0.0315  0.2998 -0.1252
 8458W        W26662   0.098   1.371  13.990  0.0776 -0.0041 -0.3513
 8459W        W26663  12.361   6.419   4.680 -0.0489  0.0119 -0.2269
 8460W        W26664   4.926  11.757   1.985  0.1923 -0.0306  0.1746
 8461W        W26665  16.438   1.944   4.419 -0.1766  0.1252 -0.1181
 8462W        W26666   9.117  13.431   2.430  0.2279 -0.0337  0.1013
 8463W        W26667   0.159  14.042  17.117  0.1812 -0.0682 -0.1300
 8464W        W26668  13.242  16.717   0.308  0.1910 -0.1663  0.1022
 8465W        W26669   1.006  12.945   1.488 -0.0808 -0.0129  0.1507
 8466W        W26670   6.361   8.437   5.314 -0.0345  0.0023 -0.0133
 8467W        W26671  11.123   4.900   1.833 -0.1494 -0.0816  0.0313
 8468W        W26672   2.527  14.509   4.860  0.0646  0.1904  0.0297
 8469W        W26673  12.854  16.948   5.582 -0.0667  0.1739  0.0194
 8470W        W26674   6.611  13.187   5.358 -0.1726  0.0682  0.2816
 8471W        W26675  10.058  11.873   0.920  0.2441 -0.1233  0.2224
 8472W        W26676   0.147  12.080  16.290  0.1137  0.2221  0.0390
 8473W        W26677   5.889   7.160   1.697 -0.2136 -0.1487 -0.3515
 8474W        W26678   6.521  11.801  14.206 -0.0512 -0.1271 -0.4010
 8475W        W26679  12.176   0.012  16.832  0.2613  0.0701 -0.1496
 8476W        W26680  14.140   8.779  15.107 -0.3459  0.0944  0.0788
 8477W        W26681  13.834  13.339  12.350 -0.0051 -0.0895  0.4826
 8478W        W26682  16.392   5.559   1.512 -0.0317 -0.1156 -0.0013
 8479W        W26683   4.098   5.200  17.260 -0.1952 -0.0171 -0.2279
 8480W        W26684  13.060  12.081  13.133 -0.1159 -0.2663  0.3163
 8481W        W26685   6.104   6.861  14.400  0.1201  0.0626  0.3464
 8482W        W26686   2.281  15.205  12.953  0.0866 -0.2168 -0.0080
 8483W        W26687   8.265  11.832   4.155 -0.1514  0.0809  0.0192
 8484W        W26688   6.049  10.227  13.485 -0.3056  0.3810 -0.2351
 8485W        W26689  14.247   7.235   2.971  0.0687  0.1898  0.0128
 8486W        W26690   7.401   2.936  15.135  0.1303  0.0701  0.0380
 8487W        W26691  15.014   0.067   3.943 -0.1824 -0.0718 -0.1007
 8488W        W26692  12.001   3.229  17.266 -0.1462  0.4532  0.1161
 8489W        W26693   2.665   0.804   1.147 -0.0557  0.2988 -0.1915
 8490W        W26694  15.142   3.339  13.594 -0.0023  0.0395  0.0103
 8491W        W26695   8.099   0.683   3.583  0.3756  0.2135 -0.1266
 8492W        W26696  11.270   9.969  16.122  0.1052  0.3637  0.1113
 8493W        W26697  14.219  13.117  16.737 -0.1652  0.2540 -0.1013
 8494W        W26698   9.161   2.424  13.380 -0.0089 -0.0624  0.4333
 8495W        W26699   1.407   0.922  17.143  0.0773 -0.1097  0.3126
 8496W        W26700   1.534   3.099  12.535  0.2544 -0.1347  0.3362
 8497W        W26701  12.463  10.892   2.762  0.1448  0.0357 -0.0456
 8498W        W26702   5.477   3.337   4.922 -0.3096  0.2774  0.2227
 8499W        W26703  13.534  11.363  14.172  0.2588  0.4223 -0.2020
 8500W        W26704  11.673   7.197   2.293 -0.1126 -0.2537  0.1529
 8501W        W26705   2.596   0.593   5.164 -0.0304  0.2071  0.0510
 8502W        W26706   6.171   1.837  12.525 -0.1999  0.0928 -0.2416
 8503W        W26707   3.027   8.084  15.862 -0.1771 -0.1104 -0.0245
 8504W        W26708   9.950   5.799   4.947  0.0169 -0.0033  0.3488
 8505W        W26709  11.361   5.653   5.782 -0.1395 -0.1873  0.1451
 8506W        W26710   2.114  15.745  13.720  0.0776 -0.2490 -0.1070
 8507W        W26711   7.361   9.797  13.649 -0.1226  0.0980 -0.2501
 8508W        W26712  10.049   0.992   0.940 -0.2040 -0.2173 -0.2545
 8509W        W26713   8.633   7.839   4.377 -0.0380 -0.1858 -0.0292
 8510W        W26714  10.246   0.100   0.334 -0.0645 -0.4272 -0.0377
 8511W        W26715   4.251   3.987  13.123 -0.0118  0.1781 -0.1574
 8512W        W26716   6.890  11.004   1.226 -0.1483 -0.0682 -0.3513
 8513W        W26717  14.030  10.180  12.675 -0.0901 -0.1309 -0.2643
 8514W        W26718   4.104   0.376  14.777 -0.1048  0.0587 -0.2044
 8515W        W26719  10.746  13.325  12.079  0.2718  0.1007 -0.2075
 8516W        W26720  10.326  15.396   3.572  0.0643 -0.2312 -0.1577
 8517W        W26721   6.995  15.481  16.415 -0.5083  0.1205 -0.2368
 8518W        W26722   4.091   4.741  13.660  0.1527 -0.1776  0.0239
 8519W        W26723   5.029   6.269   2.048 -0.3214  0.1314 -0.0355
 8520W        W26724   7.832   2.488   4.977  0.1348  0.0095 -0.1123
 8521W        W26725   5.538   4.688  15.769  0.0998 -0.2615 -0.0247
 8522W        W26726  14.794   5.804   1.236  0.0954 -0.1932  0.0583
 8523W        W26727   8.173  11.048  14.699  0.1473 -0.2621 -0.0391
 8524W        W26728   3.199   5.291   3.698  0.2157  0.0793  0.0242
 8525W        W26729  13.254   9.335   4.271 -0.1060  0.4031 -0.2411
 8526W        W26730   6.062  10.759  14.660 -0.1318 -0.1775  0.0862
 8527W        W26731   1.716   4.192   5.061  0.0251  0.0032 -0.0792
 8528W        W26732   4.339  11.841  15.693  0.0256 -0.0585  0.0946
 8529W        W26733   7.888   4.680   4.884  0.2609  0.1078 -0.0339
 8530W        W26734   3.924  11.335   5.060  0.1349 -0.4467  0.0614
 8531W        W26735   4.256   7.982  16.154 -0.2271 -0.2322  0.1653
 8532W        W26736  15.356   4.881   5.183 -0.1018 -0.1061  0.2445
 8533W        W26737   7.496   0.017   3.407 -0.0653 -0.1153 -0.3091
 8534W        W26738  11.851  17.252   3.524  0.0116  0.1087 -0.1732
 8535W        W26739   4.195  16.048   0.265  0.1113  0.2505  0.1598
 8536W        W26740  10.958   7.542  13.925 -0.0385 -0.0821  0.0015
 8537W        W26741   3.724   1.883   5.051  0.1335 -0.1031 -0.2896
 8538W        W26742  12.336   6.470   1.486  0.0952  0.2144  0.0494
 8539W        W26743   3.076  14.635   0.355  0.0006  0.0872 -0.2963
 8540W        W26744  13.497   6.777   1.801 -0.0873 -0.3451 -0.1540
 8541W        W26745   4.279   7.509  15.286  0.1436  0.0667 -0.0253
 8542W        W26746   0.557   4.627   4.480  0.0459 -0.3035  0.0226
 8543W        W26747  12.403   2.964   1.222  0.0561  0.3232  0.4626
 8544W        W26748  14.306  16.189  14.162 -0.0064 -0.0358  0.2187
 8545W        W26749  13.482  13.937   0.703  0.0361 -0.0938 -0.0602
 8546W        W26750   6.516  12.214   4.703  0.2226  0.1174  0.1823
 8547W        W26751   2.185   7.912   2.470 -0.0384 -0.1234 -0.2228
 8548W        W26752   8.834  10.132   2.523  0.0074 -0.0061  0.0551
 8549W        W26753  15.164   5.343   5.216  0.1704 -0.0352  0.2111
 8550W        W26754   3.038   2.045  13.058  0.1473 -0.1952 -0.0540
 8551W        W26755  13.423   9.581  16.373  0.1349  0.2427 -0.1298
 8552W        W26756  13.394  13.662   0.248  0.1212  0.2159  0.1828
 8553W        W26757  10.254  16.244   5.269  0.2125  0.0522  0.3048
 8554W        W26758   3.890  15.515   2.656 -0.2499  0.0804  0.1269
 8555W        W26759   7.476   6.662   5.909  0.0945 -0.0283  0.1613
 8556W        W26760  15.724  16.805   3.629 -0.1105  0.0174  0.1946
 8557W        W26761   0.042  15.217   3.513 -0.0138 -0.0985 -0.4846
 8558W        W26762  16.716  10.185  12.546  0.0705  0.1917 -0.0199
 8559W        W26763   6.314   0.353  14.934 -0.1321  0.1393  0.0351
 8560W        W26764   4.143  12.859  14.324  0.0877 -0.3313  0.1499
 8561W        W26765   6.672   7.042   4.137  0.2949  0.1485  0.1198
 8562W        W26766  13.677   7.729  14.561  0.2376 -0.0306 -0.4252
 8563W        W26767   0.229  12.549  13.325  0.2247  0.0989 -0.1625
 8564W        W26768  16.793   9.097   2.669  0.0264 -0.0541 -0.0591
 8565W        W26769   6.545   1.722   3.280  0.0773 -0.0027 -0.1361
 8566W        W26770   0.541   0.399  13.713 -0.1187  0.1478  0.0426
 8567W        W26771   5.546   8.451  17.495 -0.0245  0.0707  0.0860
 8568W        W26772  13.200   0.956  15.404 -0.2647 -0.0158  0.2287
 8569W        W26773   9.291   9.978  16.834 -0.3335 -0.1043 -0.0484
 8570W        W26774  10.843   1.149  15.651  0.0202  0.0815  0.1660
 8571W        W26775   0.428  11.786  15.916  0.3075  0.0675  0.4999
 8572W        W26776   1.265   7.158   2.453  0.1332 -0.1995 -0.2166
 8573W        W26777   4.398   6.889  13.404  0.0688 -0.0565 -0.1201
 8574W        W26778  12.315  10.060   2.519  0.3460 -0.1408  0.0332
 8575W        W26779   9.961  11.759   1.420  0.2068 -0.1239 -0.0211
 8576W        W26780  15.584   4.848  16.266  0.0842  0.3571  0.1898
 8577W        W26781   0.173  11.063   2.377  0.0760  0.0091 -0.1931
 8578W        W26782  11.283   1.039  12.838 -0.2084  0.1509  0.2013
 8579W        W26783  11.048   9.314  15.485  0.2969  0.2193 -0.1415
 8580W        W26784   5.738  17.110  16.588 -0.1455  0.0370 -0.1773
 8581W        W26785   1.816   1.640  15.877 -0.3496  0.2411  0.1415
 8582W        W26786   4.592   3.725   1.736  0.1077 -0.1784  0.0207
 8583W        W26787   5.229   9.615   0.352 -0.2804 -0.0612 -0.1201
 8584W        W26788   7.550  16.627   2.632 -0.2261 -0.3205 -0.0465
 8585W        W26789  15.711   0.726   2.838 -0.0703  0.0678  0.1413
 8586W        W26790   5.240  17.128  14.716 -0.3985  0.0907 -0.2312
 8587W        W26791  12.386   2.595   0.709  0.0497  0.0528 -0.0041
 8588W        W26792   7.280   6.172  12.547  0.3437 -0.1021 -0.1253
 8589W        W26793  17.143  13.263   3.136  0.1696 -0.2697  0.0186
 8590W        W26794  16.406   5.414  17.123  0.2250 -0.0516  0.1523
 8591W        W26795   4.880   0.513   0.005 -0.0653  0.0487  0.0793
 8592W        W26796   7.429  10.418  15.989  0.2486 -0.0383 -0.0896
 8593W        W26797   4.088  11.424   5.870  0.1328 -0.1204  0.3422
 8594W        W26798  11.299  12.157   2.634  0.3089 -0.2558  0.0811
 8595W        W26799   8.266  12.268   5.339 -0.0565 -0.0243  0.2575
 8596W        W26800   0.943   7.835   1.333 -0.1552  0.2183 -0.2832
 8597W        W26801   2.813   2.417  17.509  0.1360 -0.1385 -0.3313
 8598W        W26802   6.566   2.878  14.106  0.0156 -0.1239  0.0685
 8599W        W26803   9.928  16.232  15.777 -0.0727  0.0627  0.2928
 8600W        W26804   0.309   9.506   4.001 -0.1133  0.2370 -0.3842
 8601W        W26805  11.015  17.031  14.409  0.1608  0.1640 -0.3014
 8602W        W26806   4.659   5.099  15.426 -0.0861  0.3854  0.1394
 8603W        W26807  10.615   2.791   4.520  0.0118 -0.2003  0.1538
 8604W        W26808   1.002   3.438   2.886 -0.2529  0.1322 -0.3964
 8605W        W26809   7.109  12.895   1.913  0.0843 -0.2671  0.1283
 8606W        W26810   6.798   2.804   0.522 -0.0521  0.1391  0.2876
 8607W        W26811   6.908   1.909  15.106  0.1371  0.0228  0.1788
 8608W        W26812  12.632   3.701   2.021 -0.1737 -0.3927 -0.2096
 8609W        W26813  12.348  16.179  17.082 -0.0066  0.3799  0.5199
 8610W        W26814  12.251  16.065   2.145 -0.1205  0.2906  0.1511
 8611W        W26815   4.426  15.997  14.990  0.0370  0.0585  0.1709
 8612W        W26816   3.873   9.490   2.943 -0.0200 -0.0703 -0.1979
 8613W        W26817   6.780   3.971   2.200  0.3936  0.1709  0.1439
 8614W        W26818   5.461  11.531   2.789 -0.0938 -0.1090 -0.3675
 8615W        W26819   0.957   4.963  12.573 -0.1569 -0.0373  0.0578
 8616W        W26820  11.280   0.845  15.499  0.0873  0.0938 -0.0901
 8617W        W26821   3.909  10.842  16.694 -0.1893 -0.0046 -0.3501
 8618W        W26822  11.826  10.150   2.624  0.1970 -0.3526 -0.0316
 8619W        W26823   4.344   2.634   3.564 -0.1045  0.5177 -0.1674
 8620W        W26824   0.930  14.933   3.887  0.1001 -0.0119  0.1598
 8621W        W26825   7.641   8.135  15.048 -0.0088 -0.1675 -0.1646
 8622W        W26826   5.237   4.338   3.384 -0.0480  0.2106  0.0631
 8623W        W26827  15.091  11.970   5.024  0.2400 -0.1593  0.0194
 8624W        W26828   8.844  17.036   2.709  0.0879 -0.2263 -0.0994
 8625W        W26829   3.409   0.046  13.986 -0.0365 -0.1026  0.1115
 8626W        W26830  14.467   3.707  14.354  0.3570  0.0558  0.0160
 8627W        W26831   9.968  10.653  17.180 -0.1330 -0.2197  0.0227
 8628W        W26832   2.108  17.190  13.092  0.0250  0.2107  0.2008
 8629W        W26833   4.321   5.079  11.792  0.3342 -0.1126  0.1083
 8630W        W26834  11.312   9.886   4.711  0.3203  0.0016  0.0927
 8631W        W26835   6.790  11.371  14.225 -0.1920 -0.1238  0.0810
 8632W        W26836  13.692   8.093  14.911  0.2971 -0.1942 -0.0921
 8633W        W26837   1.658   4.886   3.223  0.1100 -0.3085  0.2517
 8634W        W26838  11.633  12.004  14.207  0.0401 -0.0669 -0.0023
 8635W        W26839   7.112   4.002   3.995  0.1008 -0.1185  0.1563
 8636W        W26840  10.563  12.264  12.481  0.0196 -0.2430 -0.3839
 8637W        W26841   6.780   4.343  13.307  0.0750  0.2099 -0.1921
 8638W        W26842  14.715   7.834   2.461  0.2382  0.1016  0.1597
 8639W        W26843   4.639   4.097  12.677 -0.0991  0.0734 -0.0427
 8640W        W26844   0.823   9.789  15.524  0.0421  0.1330  0.0268
 8641W        W26845   5.080  12.536  15.632 -0.2080  0.2433 -0.0480
 8642W        W26846   4.040   8.100   3.559  0.3317  0.0541 -0.1595
 8643W        W26847  12.298   2.352  17.174  0.0084 -0.2085  0.0001
 8644W        W26848   7.717  15.973  14.539  0.3660  0.0589  0.0658
 8645W        W26849   7.501   3.676  15.759 -0.2688 -0.0338 -0.1501
 8646W        W26850   9.321   3.578   4.036  0.3691  0.0169  0.0787
 8647W        W26851   3.563   3.806   3.923 -0.1782 -0.0055  0.1090
 8648W        W26852   9.604  11.087   4.980  0.0745  0.0707 -0.1333
 8649W        W26853   7.618   6.591   4.104  0.2216  0.0912  0.1616
 8650W        W26854  14.757   1.363   2.185  0.1825  0.3938 -0.3471
 8651W        W26855   1.401   4.401   0.481  0.0699 -0.0980  0.1639
 8652W        W26856   8.703  14.252   1.990 -0.0928 -0.2870 -0.1988
 8653W        W26857   3.695   8.758  16.464  0.0690  0.1422  0.5062
 8654W        W26858  14.468   0.567  16.993  0.1166 -0.1626 -0.2528
 8655W        W26859   7.136  15.675   4.800  0.3285 -0.0092  0.1705
 8656W        W26860  15.431   7.414   5.256 -0.2991 -0.2556 -0.1477
 8657W        W26861  17.130  11.675   4.944  0.1746  0.0910  0.1241
 8658W        W26862  15.966   0.642   4.609 -0.2189 -0.0364  0.1920
 8659W        W26863  11.228  13.075   0.345 -0.1351 -0.2394 -0.0092
 8660W        W26864   8.963   3.051  15.053 -0.1540 -0.1226 -0.0826
 8661W        W26865  10.875   3.128  16.775  0.1756  0.0938 -0.1280
 8662W        W26866   6.321   8.032   0.189 -0.2123 -0.1735 -0.3100
 8663W        W26867   7.209   5.650  14.237 -0.2880 -0.0919 -0.4011
 8664W        W26868   0.524   8.680  14.058  0.2429 -0.0326  0.1193
 8665W        W26869  13.891  10.921   2.047 -0.2277  0.1817 -0.2126
 8666W        W26870   3.885  15.214   1.689  0.0867  0.2247 -0.0278
 8667W        W26871   4.852   1.540  14.873  0.4104  0.2700 -0.0873
 8668W        W26872  15.235   2.636   0.809 -0.1192  0.0447 -0.1273
 8669W        W26873   6.029  12.849  17.368 -0.1740  0.1198 -0.1190
 8670W        W26874   4.239   9.071  15.563 -0.1089 -0.0604  0.0740
 8671W        W26875   8.574  10.305  13.453 -0.3624 -0.5455  0.1306
 8672W        W26876  12.047   4.032   4.920 -0.2485 -0.3126 -0.0098
 8673W        W26877   4.687  10.111  13.688  0.3483 -0.1132  0.1035
 8674W        W26878  13.983   0.855   4.584  0.1760 -0.1927 -0.2304
 8675W        W26879   4.970  13.412  16.094 -0.3637 -0.2179 -0.2723
 8676W        W26880  13.696  13.333   4.767 -0.2858 -0.1502  0.1606
 8677W        W26881  15.099   0.133  17.466 -0.2795  0.0443  0.0058
 8678W        W26882   4.280   3.698  12.705  0.0306  0.2689  0.0316
 8679W        W26883  16.042   5.352  14.812 -0.1140  0.0797 -0.1670
 8680W        W26884  16.688   1.988   5.218 -0.1133 -0.0648  0.0922
 8681W        W26885   9.769  12.963  14.246 -0.1572  0.2015  0.1863
 8682W        W26886   2.579  11.253   3.009  0.0343  0.0043 -0.1102
 8683W        W26887   3.815   3.966  15.463  0.1237 -0.2454 -0.0212
 8684W        W26888  14.837  10.490  12.352 -0.2415 -0.0163  0.2836
 8685W        W26889   2.195   8.868   0.030 -0.0869 -0.0070 -0.2322
 8686W        W26890   3.282  11.130   3.832  0.0619  0.1672 -0.0715
 8687W        W26891  10.045   0.506  16.744  0.2124  0.0489 -0.1374
 8688W        W26892   1.042   0.197   0.166 -0.0369  0.2262  0.0068
 8689W        W26893  16.481  13.663  17.077 -0.0868 -0.0213  0.1544
 8690W        W26894   0.947   5.029   0.313 -0.0573  0.0490  0.0965
 8691W        W26895  14.242   3.396  13.887  0.0304  0.1696 -0.0098
 8692W        W26896   5.327   5.748   2.761 -0.1573  0.0244  0.0486
 8693W        W26897   8.725  12.529   0.091 -0.3536  0.0755  0.0825
 8694W        W26898   5.342  10.206   0.393  0.1382 -0.0528 -0.2060
 8695W        W26899  16.377   8.182   2.961 -0.2065 -0.1483  0.2154
 8696W        W26900   0.487   2.817  12.688 -0.0455 -0.0697  0.0473
 8697W        W26901   1.020  10.938   1.850 -0.0236  0.1701 -0.0197
 8698W        W26902  17.309   4.882   1.288  0.3060 -0.1478 -0.1591
 8699W        W26903   5.785  10.303   1.225 -0.0457 -0.0756  0.0265
 8700W        W26904  14.232   1.445   5.604 -0.1655 -0.3069  0.0582
 8701W        W26905   0.446   1.550  15.922 -0.2221 -0.0216  0.1819
 8702W        W26906  12.394   8.579  16.272 -0.3830 -0.2993 -0.0153
 8703W        W26907   4.177  10.823  15.781 -0.0879  0.5164  0.1227
 8704W        W26908  17.027   3.523   3.525  0.0872  0.2349  0.1310
 8705W        W26909  12.427  14.107  12.163 -0.1013  0.0980  0.0475
 8706W        W26910   3.536  14.168   1.670  0.0178  0.0243  0.1771
 8707W        W26911  15.473   2.474   0.386  0.4347  0.1507  0.0622
 8708W        W26912   9.481   1.717  14.854  0.0786 -0.1693  0.1024
 8709W        W26913  15.881   5.124   5.094  0.3567  0.4680  0.1399
 8710W        W26914  11.555   1.402  17.283  0.2093 -0.0862  0.0974
 8711W        W26915   8.323   4.003  15.726 -0.1808 -0.2428 -0.1069
 8712W        W26916   0.878  10.030  14.351  0.0327  0.0426 -0.1121
 8713W        W26917  10.875   8.782  14.813  0.0160 -0.0590  0.4284
 8714W        W26918  14.607  10.039  12.495 -0.0606 -0.0737 -0.3585
 8715W        W26919   9.881   5.919   3.684  0.1432  0.0950  0.0945
 8716W        W26920  16.503   6.020   1.341 -0.1559  0.0816 -0.1248
 8717W        W26921  15.627  15.129  14.017 -0.2254  0.0813 -0.1459
 8718W        W26922  14.888  15.681  13.647  0.0695 -0.0508  0.0678
 8719W        W26923  10.746   9.966  16.202 -0.0015 -0.0021 -0.3138
 8720W        W26924  11.950   8.593   2.384  0.1722 -0.1314  0.0864
 8721W        W26925  13.362   6.709   0.287  0.0639  0.0871 -0.1066
 8722W        W26926   9.289  11.119   3.974 -0.0754  0.1421 -0.1553
 8723W        W26927  14.232  15.462   4.792  0.0192  0.1102  0.3623
 8724W        W26928  14.705   1.841  15.828  0.2479 -0.1312  0.2954
 8725W        W26929   2.964   0.422   3.469 -0.0214 -0.3158 -0.0285
 8726W        W26930  12.090  13.511  16.511 -0.1234  0.2842 -0.0520
 8727W        W26931   0.411  16.228   4.060 -0.1605  0.1109  0.2500
 8728W        W26932  12.669   0.039   2.259 -0.1535 -0.0297 -0.0780
 8729W        W26933   4.844  16.541   5.728 -0.2069 -0.0895  0.0403
 8730W        W26934   0.269   6.533   0.275 -0.0166 -0.0969  0.1017
 8731W        W26935  12.402  14.263   2.543  0.0926 -0.1179 -0.0371
 8732W        W26936  16.606   1.031  15.479 -0.0674 -0.0783 -0.0093
 8733W        W26937  15.718   2.191   2.567 -0.4346  0.0075 -0.0847
 8734W        W26938   7.728   3.238  13.376  0.1282  0.0562  0.2248
 8735W        W26939  15.839   3.495   3.074  0.1548 -0.2082  0.0283
 8736W        W26940   1.856  15.662   5.286 -0.2228 -0.2554 -0.2507
 8737W        W26941   6.499  17.341   5.435  0.0629  0.2911  0.1246
 8738W        W26942   7.594  15.626  17.183  0.1277  0.3608  0.2073
 8739W        W26943   3.233  13.283  14.538 -0.1389 -0.1710  0.1240
 8740W        W26944   3.631   6.322   4.835  0.1697  0.0943  0.0547
 8741W        W26945  13.046   9.416  17.342  0.1407 -0.0222 -0.0063
 8742W        W26946  12.572  11.072  14.346  0.0347 -0.0087 -0.2285
 8743W        W26947   0.807   8.035  12.886  0.1320 -0.2654  0.0363
 8744W        W26948  17.250   6.727  12.046  0.0617 -0.0626  0.2670
 8745W        W26949   2.010   1.654   5.624 -0.1793 -0.1885  0.0705
 8746W        W26950   9.288  10.830  11.841 -0.3884 -0.0305  0.1168
 8747W        W26951  16.901  12.588   0.646 -0.3644  0.1417  0.4335
 8748W        W26952   0.170   9.677   5.777  0.0927 -0.1391 -0.1335
 8749W        W26953   2.165   8.049   0.783  0.0525  0.0656 -0.0420
 8750W        W26954  10.571   8.710   5.320 -0.0254  0.1990 -0.0830
 8751W        W26955   5.481   9.485  16.689 -0.2968 -0.2949 -0.1173
 8752W        W26956   9.105  12.159  15.796  0.0473 -0.1591 -0.2735
 8753W        W26957   0.477   4.181   3.671 -0.2234  0.2496  0.0679
 8754W        W26958  12.821   8.895   2.085 -0.1572 -0.0258  0.0056
 8755W        W26959   5.965   7.746  15.375  0.3261 -0.0408  0.2689
 8756W        W26960   8.760  17.237  16.877  0.4086  0.1407  0.1142
 8757W        W26961   5.531   4.558   2.179  0.0086  0.4354 -0.0664
 8758W        W26962   7.904   2.384   6.293  0.1147 -0.1233 -0.0927
 8759W        W26963  12.641   1.252   5.176 -0.0657  0.1570 -0.0862
 8760W        W26964  10.342   0.492  12.843  0.0740  0.0381  0.0174
 8761W        W26965  13.400   0.345   3.431 -0.1119 -0.1343  0.0751
 8762W        W26966   9.436   0.895  15.026  0.0013 -0.2372  0.1150
 8763W        W26967   6.547  10.037   1.725 -0.3183  0.0719  0.0944
 8764W        W26968   5.155   1.006  13.012 -0.1849 -0.1822  0.1361
 8765W        W26969   9.786  15.866  16.576  0.1159 -0.0201 -0.1584
 8766W        W26970   6.260  14.483   4.247 -0.0671  0.0908 -0.0720
 8767W        W26971   1.710   5.718   5.713 -0.1084 -0.0873  0.0711
 8768W        W26972  11.312   1.583  12.785  0.1119 -0.0002  0.1195
 8769W        W26973  10.690  14.027  14.458  0.3090  0.1747  0.0854
 8770W        W26974   1.472   0.034   2.445  0.1671 -0.1066  0.1984
 8771W        W26975   4.730  11.855   4.659 -0.2660 -0.0256  0.0634
 8772W        W26976  15.785  16.932  13.538  0.2663  0.0602 -0.0360
 8773W        W26977   5.233  15.339   1.392 -0.3640 -0.0969 -0.0680
 8774W        W26978   0.136   6.781   2.597 -0.0966  0.1827 -0.2402
 8775W        W26979  13.924   0.456  15.266  0.1802  0.0316 -0.2134
 8776W        W26980  12.326   8.872   3.360 -0.1310  0.3084 -0.2186
 8777W        W26981   4.876  16.020  12.568  0.1546  0.1788  0.0308
 8778W        W26982   6.898   8.915   2.994  0.1289 -0.0510  0.0394
 8779W        W26983  16.138   1.156   4.805  0.0356  0.1143  0.1410
 8780W        W26984   2.081   0.581  12.736 -0.0724 -0.1109 -0.3425
 8781W        W26985  14.376  10.975   2.387  0.0708 -0.0364  0.1747
 8782W        W26986   5.279  11.971   4.615 -0.0477 -0.1140  0.1934
 8783W        W26987  16.103   3.090   2.998  0.0663  0.0603  0.1643
 8784W        W26988  16.366   3.129   4.215  0.0418 -0.1030  0.1764
 8785W        W26989   1.548   2.439   4.903 -0.2404  0.0379 -0.1994
 8786W        W26990   7.460   6.257  15.532  0.1019 -0.2020 -0.3507
 8787W        W26991   0.544  12.022   3.431 -0.0114 -0.1738  0.2788
 8788W        W26992   8.307  11.824   0.275 -0.0710 -0.1447 -0.2078
 8789W        W26993  13.602   8.884   2.756  0.1543 -0.1456 -0.0555
 8790W        W26994  16.387   9.053   4.866 -0.0223  0.2535  0.0649
 8791W        W26995  16.391  15.971  15.311  0.1007 -0.0207 -0.2234
 8792W        W26996  17.152   8.340   5.422  0.0638  0.0187 -0.1230
 8793W        W26997  12.030  11.395  16.017  0.1965 -0.0879 -0.0444
 8794W        W26998   2.207   0.291   2.296  0.0035 -0.0918 -0.0944
 8795W        W26999   4.127  17.218   4.969 -0.2100  0.0116 -0.1791
 8796W        W27000   5.198   6.371   0.009 -0.2618 -0.1826  0.2853
 8797W        W27001  13.219   6.134   3.852  0.2206  0.1943  0.3361
 8798W        W27002  12.122   6.101   0.688 -0.0306  0.0465  0.2570
 8799W        W27003  12.502  12.138   3.036  0.0637  0.2986 -0.0169
 8800W        W27004   8.348   3.558  13.687 -0.1617  0.0077  0.1727
 8801W        W27005   1.660  10.400   2.643  0.0826 -0.1139  0.0608
 8802W        W27006  15.180  12.551   0.072 -0.0722 -0.2781  0.3225
 8803W        W27007  10.935   3.404   1.160 -0.1399 -0.1570 -0.0422
 8804W        W27008   9.093   4.358   3.613  0.0421 -0.2233 -0.2236
 8805W        W27009  16.710   4.147  14.830 -0.2736  0.0371 -0.0493
 8806W        W27010   6.570   7.015  14.280 -0.1931 -0.2088  0.2834
 8807W        W27011   6.204   3.089  17.153  0.1571  0.0782  0.2381
 8808W        W27012   9.924  15.510   4.605  0.0488  0.1661  0.3005
 8809W        W27013   6.160   2.262  13.890  0.2705  0.1199 -0.0004
 8810W        W27014   8.978  14.116  16.259 -0.1343  0.2159 -0.0051
 8811W        W27015   5.285   7.305  17.501 -0.0043 -0.3952 -0.0294
 8812W        W27016  10.182   6.784  14.771  0.0485 -0.3126 -0.2197
 8813W        W27017   1.942   1.089  14.297  0.1556  0.0918 -0.1871
 8814W        W27018  16.731   5.421   4.772  0.2353 -0.2567  0.1157
 8815W        W27019  16.554   7.389  13.371  0.0245 -0.1275 -0.1796
 8816W        W27020   6.914   8.430   2.495  0.1111  0.0288 -0.0187
 8817W        W27021  11.564   8.950  14.759  0.2054 -0.0769 -0.0015
 8818W        W27022   9.512   4.042  15.765  0.2254 -0.1505 -0.0960
 8819W        W27023   0.590  16.262   1.454 -0.0103 -0.0206 -0.2463
 8820W        W27024  15.643   5.535  16.700 -0.0036 -0.0808 -0.3487
 8821W        W27025   2.572   8.837  13.757  0.0095  0.0912 -0.0895
 8822W        W27026   1.901   1.524  14.456  0.1703  0.2275  0.1676
 8823W        W27027   0.542   0.657   1.538  0.0288  0.4572  0.2535
 8824W        W27028   9.813   2.964  16.049 -0.1067 -0.0542  0.0812
 8825W        W27029   2.328   0.846   5.491 -0.0531  0.1181  0.0538
 8826W        W27030  16.472   5.885  16.949  0.2176 -0.1346  0.0410
 8827W        W27031  17.286   2.762   2.778 -0.0987  0.0842 -0.1145
 8828W        W27032   0.117  11.380   1.409  0.1600 -0.2664  0.0410
 8829W        W27033   9.358  13.625  12.270 -0.2542 -0.0372  0.0133
 8830W        W27034  11.617  14.779   2.604  0.0752  0.2461 -0.1481
 8831W        W27035  15.730  13.916   2.753 -0.1694 -0.1483 -0.0964
 8832W        W27036  10.936  14.284   2.970 -0.2002  0.1571 -0.1887
 8833W        W27037  14.567   7.394   4.622  0.0401 -0.0017 -0.1057
 8834W        W27038   2.719   6.338  13.435 -0.0433 -0.2738 -0.0194
 8835W        W27039  12.028   5.251  12.028  0.0044 -0.0673  0.1213
 8836W        W27040  12.482   5.760   0.871 -0.1110  0.0244 -0.0699
 8837W        W27041   7.123  16.064  17.329 -0.0461 -0.2504 -0.4102
 8838W        W27042   0.981   7.231   3.816  0.0728 -0.1831 -0.2033
 8839W        W27043  12.990  16.645   3.174  0.3929 -0.1176 -0.0596
 8840W        W27044   1.485  10.641   1.774  0.0337 -0.1503  0.1116
 8841W        W27045   1.879  11.451  17.229  0.0162 -0.0069  0.1098
 8842W        W27046   4.691   4.402  14.165  0.2898  0.0928  0.2530
 8843W        W27047  11.164  10.912  14.288  0.2145 -0.0078 -0.1293
 8844W        W27048  11.081  12.353  12.547 -0.1731  0.2481 -0.1433
 8845W        W27049   0.467   9.925  15.243  0.1079 -0.0750  0.3978
 8846W        W27050  16.586   1.498  13.918  0.0415 -0.1003  0.0505
 8847W        W27051   3.658   6.365  14.647  0.0794 -0.0347  0.0102
 8848W        W27052   3.528  17.213   3.801 -0.0916 -0.0704 -0.2529
 8849W        W27053  16.976  14.636  13.142 -0.1319 -0.0271 -0.0892
 8850W        W27054   5.987  12.846   4.168 -0.0199 -0.1270 -0.1662
 8851W        W27055   5.054   2.151   0.002 -0.0560 -0.0203 -0.2748
 8852W        W27056  11.331   4.582   0.972 -0.5847 -0.3001 -0.1574
 8853W        W27057   7.000   3.436  12.550  0.2164  0.0885 -0.0923
 8854W        W27058  13.940   0.190   3.475  0.1929  0.1823 -0.3307
 8855W        W27059  13.363   7.548  16.046  0.1012 -0.1411 -0.1223
 8856W        W27060   1.325  16.446   1.038  0.0477 -0.1104  0.3206
 8857W        W27061  11.396   9.456  13.368  0.1915 -0.0700  0.1105
 8858W        W27062  14.084   8.476   4.925 -0.0168  0.0515  0.1651
 8859W        W27063   2.283  12.482  14.482  0.1989 -0.1409  0.0894
 8860W        W27064  14.108   8.060   4.605 -0.1849  0.0985  0.0170
 8861W        W27065   7.280  15.517  13.815  0.0922  0.3405  0.2248
 8862W        W27066   8.920   9.900   0.994  0.0761  0.3798 -0.0706
 8863W        W27067  16.276  16.614   2.804 -0.1141 -0.3674 -0.1647
 8864W        W27068   7.275   3.739   0.816  0.0309  0.1475 -0.0503
 8865W        W27069   0.005   8.063   4.600 -0.1620 -0.1915  0.1887
 8866W        W27070   8.414  13.036   0.909 -0.0630 -0.1271 -0.1583
 8867W        W27071   8.206   7.965  12.415  0.0423  0.1350  0.0689
 8868W        W27072   3.926  13.997  13.480 -0.3727 -0.1590  0.2018
 8869W        W27073  16.521   6.188   2.959  0.0252  0.1683 -0.1343
 8870W        W27074  13.798   8.906  16.851  0.2377  0.2961 -0.1218
 8871W        W27075  16.448   9.888  16.739  0.0321 -0.3861  0.1930
 8872W        W27076  15.625   4.062   0.948 -0.2568 -0.0164  0.0967
 8873W        W27077   2.420   0.840   4.664 -0.1930 -0.0586 -0.0665
 8874W        W27078  13.450   7.958  16.346  0.1915 -0.2995  0.2585
 8875W        W27079   7.891   2.828  15.340 -0.1435  0.0304  0.1191
 8876W        W27080   6.356   8.430   0.983 -0.3423  0.2356 -0.2253
 8877W        W27081  14.553   4.205  14.494 -0.2765 -0.1290 -0.3627
 8878W        W27082   2.761   5.873  13.165  0.2532 -0.2740  0.1729
 8879W        W27083  16.301   4.012  13.459 -0.0003  0.1853 -0.1368
 8880W        W27084  15.594   5.418   5.531 -0.1038 -0.3692  0.0733
 8881W        W27085  13.624   3.230  17.249  0.0368  0.4084 -0.0948
 8882W        W27086   2.431   5.578   4.170 -0.2602 -0.4119 -0.0796
 8883W        W27087   6.052   7.938   1.769 -0.1549  0.2197  0.0687
 8884W        W27088  14.926   5.131  15.482  0.2958 -0.2376  0.1258
 8885W        W27089   7.673   9.461  12.671  0.0638  0.0011  0.0578
 8886W        W27090   4.477   7.785  13.116 -0.1744 -0.0606 -0.0311
 8887W        W27091   4.897   7.451   2.991 -0.0660 -0.1115 -0.0942
 8888W        W27092   1.881   8.334   5.244  0.0377 -0.1091  0.0199
 8889W        W27093  12.661  15.237   5.440  0.0526 -0.0664  0.4747
 8890W        W27094  15.469   7.655  13.786  0.0273  0.1929 -0.2023
 8891W        W27095  11.112  14.515  14.125 -0.0500  0.0549  0.0187
 8892W        W27096  12.270  15.735   4.486 -0.0461 -0.1307 -0.0975
 8893W        W27097  15.589  15.880   0.976 -0.0790 -0.3367 -0.2019
 8894W        W27098   2.184   6.214  15.253 -0.1135 -0.0880 -0.0454
 8895W        W27099   8.098  10.422  13.305 -0.0787 -0.1714  0.1380
 8896W        W27100   4.196   2.565  17.407  0.2132 -0.3095  0.0106
 8897W        W27101   6.290  15.275   2.000 -0.1916 -0.1225  0.3200
 8898W        W27102   3.145   6.220   0.754  0.3045 -0.2774  0.2614
 8899W        W27103  14.667   1.542  12.915  0.0512 -0.1553 -0.1092
 8900W        W27104   6.733   1.646  17.244  0.0523  0.1760 -0.0298
 8901W        W27105   7.235   7.392   4.882 -0.1566  0.2942 -0.1853
 8902W        W27106  15.699  14.236   5.459  0.1307  0.0315  0.1767
 8903W        W27107  12.817  14.497   2.274 -0.0361  0.0822 -0.3658
 8904W        W27108   5.767   4.687   5.122  0.0209 -0.1144  0.1198
 8905W        W27109  15.052   6.030   2.831 -0.0962  0.0731  0.4399
 8906W        W27110  15.780  15.113   5.009  0.1777  0.1186  0.3984
 8907W        W27111  11.171  11.594  17.032  0.1472 -0.0718 -0.0218
 8908W        W27112  11.062   9.775  16.559 -0.1000 -0.1000  0.0081
 8909W        W27113   9.011  14.355   2.393 -0.2751  0.1887 -0.1696
 8910W        W27114   8.396   4.738  16.536 -0.3057  0.3257 -0.0408
 8911W        W27115  13.311  11.242   3.592 -0.1147 -0.0905  0.0361
 8912W        W27116  10.341   3.346   4.950 -0.0450  0.1491  0.0473
 8913W        W27117   1.613   7.973   2.164  0.1912  0.0647  0.1370
 8914W        W27118  16.470  10.357   1.441  0.1215  0.0228 -0.0894
 8915W        W27119   6.475   9.060   3.137 -0.2797 -0.2056 -0.1334
 8916W        W27120  14.974   7.662   4.441 -0.0702 -0.0434  0.0078
 8917W        W27121   3.119  16.516   4.109 -0.0683  0.1822  0.1038
 8918W        W27122   9.923  12.365  17.148 -0.0113 -0.2964  0.4052
 8919W        W27123  10.620   4.363  14.212  0.4066 -0.1990 -0.1094
 8920W        W27124   9.110   4.195   2.430 -0.4507  0.1693  0.0643
 8921W        W27125   9.287   6.514   4.289 -0.2483  0.1011  0.1224
 8922W        W27126  10.052   3.801   4.547  0.1986  0.2808  0.1530
 8923W        W27127  13.704   5.333  17.005  0.1233 -0.3035 -0.0935
 8924W        W27128  11.248  16.537   2.684  0.0100 -0.0681  0.0554
 8925W        W27129   7.042   5.211  12.351  0.1423 -0.0346 -0.2985
 8926W        W27130   6.738  12.946  13.497 -0.2523 -0.0336  0.1881
 8927W        W27131   3.326   8.595   2.801  0.3980 -0.0869 -0.2348
 8928W        W27132   1.170   2.763  13.560 -0.1024  0.2451 -0.1475
 8929W        W27133   9.107  14.284   0.702 -0.1945 -0.3198  0.1052
 8930W        W27134   1.913  10.046   2.416  0.2158 -0.3665  0.0048
 8931W        W27135  16.242   7.961  15.404  0.1383  0.1337 -0.0397
 8932W        W27136   5.810  13.985  11.759 -0.0709  0.1604  0.2376
 8933W        W27137   6.905   0.322  13.590 -0.0029 -0.3851 -0.0824
 8934W        W27138   1.318   6.041   1.075 -0.2109  0.0399  0.0340
 8935W        W27139   4.324   4.185  16.192 -0.2791 -0.0242 -0.0610
 8936W        W27140  10.928   7.272  17.438 -0.1323  0.2712  0.3119
 8937W        W27141   2.282   4.220   4.964 -0.1260  0.0136 -0.0824
 8938W        W27142  10.169  13.039  16.373  0.1552 -0.1434 -0.4173
 8939W        W27143  12.154   5.607  14.448 -0.2310  0.4055 -0.2308
 8940W        W27144   7.297   2.953  14.330  0.0509  0.0117  0.1823
 8941W        W27145   5.275  10.292   5.165  0.0462  0.1313  0.0633
 8942W        W27146   4.461  10.302  14.129 -0.0949 -0.1569  0.2537
 8943W        W27147   2.587   2.589  12.892  0.1831 -0.4073  0.0600
 8944W        W27148   7.211   3.422   4.654  0.2579  0.4456  0.0248
 8945W        W27149  13.050   1.134   1.728 -0.3118 -0.1786  0.0309
 8946W        W27150  15.810  10.777   1.934  0.0148 -0.2036  0.2866
 8947W        W27151   6.833  10.425   1.938  0.0451 -0.0663 -0.1084
 8948W        W27152   1.646  13.887   5.207  0.0215 -0.0039 -0.0250
 8949W        W27153   7.739   4.486  16.052 -0.0147 -0.0473 -0.0092
 8950W        W27154  14.678  16.106   4.664  0.4577 -0.1995  0.1734
 8951W        W27155   9.585   9.620  15.608 -0.4106  0.2173 -0.0453
 8952W        W27156  13.246   9.729  15.948 -0.1084 -0.0885  0.2259
 8953W        W27157   2.870   1.885   0.044 -0.0770 -0.2263 -0.2581
 8954W        W27158   7.530  16.644   3.851  0.0637  0.1374  0.1781
 8955W        W27159  17.100  17.069   4.153  0.0024 -0.1264  0.0106
 8956W        W27160  16.140  13.414  14.053 -0.4976  0.0095  0.0588
 8957W        W27161  11.756   2.425   1.816  0.0017 -0.5755 -0.3593
 8958W        W27162   9.430  11.429   1.584  0.0964  0.0768  0.0284
 8959W        W27163   3.040  16.606   0.691  0.2938 -0.0535  0.0784
 8960W        W27164   2.578  10.545   0.026  0.0642 -0.0255 -0.1954
 8961W        W27165  11.520  13.063   1.329 -0.0364 -0.2048 -0.0004
 8962W        W27166  12.795   9.339   3.226  0.3806  0.0328 -0.0895
 8963W        W27167   0.505  15.895  17.100  0.0625 -0.1332  0.2955
 8964W        W27168   5.286   5.789   3.595 -0.2135  0.1060  0.0031
 8965W        W27169   8.511   3.520  14.288 -0.0686 -0.2448  0.2110
 8966W        W27170   5.148   5.544  14.935 -0.0030 -0.2484 -0.1058
 8967W        W27171  10.657   4.005   3.682  0.1843 -0.2852  0.0132
 8968W        W27172  12.033   9.233   0.483 -0.1795 -0.1270  0.2727
 8969W        W27173   4.139   1.068   5.761  0.0211  0.1968 -0.0202
 8970W        W27174   7.528  12.355   3.672 -0.1560  0.1964  0.0401
 8971W        W27175   9.118  12.732  17.299 -0.0736 -0.2605  0.2615
 8972W        W27176   8.782   2.044   0.165 -0.0003  0.1962 -0.1864
 8973W        W27177   2.812  16.843   3.334  0.2032 -0.2043  0.0255
 8974W        W27178   3.054   6.563   1.094  0.0376  0.0875 -0.2384
 8975W        W27179   8.539   7.035   2.876  0.0321  0.4925 -0.0207
 8976W        W27180   0.771   6.484  14.891 -0.1379 -0.0630 -0.1128
 8977W        W27181   7.421   0.887  13.101  0.1366 -0.1400  0.1277
 8978W        W27182   5.921  13.446  16.074 -0.0772 -0.1424 -0.2014
 8979W        W27183  16.852   0.382  16.078  0.0891 -0.2121  0.2833
 8980W        W27184  16.001   3.398  12.918  0.2652 -0.1945  0.0506
 8981W        W27185   9.864   4.316  12.133 -0.0012 -0.0073  0.1403
 8982W        W27186   9.594   0.129   2.532 -0.1594  0.0941  0.0153
 8983W        W27187   7.241   1.682  17.249  0.1513 -0.1221 -0.1328
 8984W        W27188   3.703  12.261  14.998 -0.3667 -0.0018 -0.2550
 8985W        W27189  16.726   3.801   5.124 -0.1839 -0.2727 -0.0210
 8986W        W27190  15.004  13.876  12.654  0.1148 -0.3096 -0.1698
 8987W        W27191  11.480   9.783  16.892  0.0696 -0.0405  0.0321
 8988W        W27192   4.954  11.165  16.579 -0.4063  0.1159  0.1380
 8989W        W27193   2.501   1.389   3.663 -0.3060 -0.1724  0.0378
 8990W        W27194  12.504  16.478  13.807  0.1925 -0.2062 -0.0341
 8991W        W27195   2.723  13.790  15.791 -0.0296  0.0717 -0.1431
 8992W        W27196  13.056   1.305  16.980  0.1246  0.1006  0.1073
 8993W        W27197   6.685  11.788   1.212 -0.2828 -0.2946  0.1743
 8994W        W27198   7.771  17.295  16.659 -0.0518  0.0576  0.0274
 8995W        W27199   4.065  14.476   5.437 -0.0121  0.0418  0.0945
 8996W        W27200   7.149   5.129  13.369 -0.0660 -0.0274 -0.1470
 8997W        W27201  10.685  13.116  13.154 -0.2904  0.1914  0.4371
 8998W        W27202   7.203  11.156   2.264  0.2949 -0.0271 -0.3899
 8999W        W27203  14.255  10.241   1.971 -0.0468  0.1507 -0.0499
 9000W        W27204  10.911  10.273  16.969 -0.0107 -0.1251 -0.2032
 9001W        W27205   1.175   9.589   1.895 -0.0420 -0.1522  0.0042
 9002W        W27206   4.465  13.180  12.514  0.0455 -0.1074 -0.0580
 9003W        W27207   6.702   3.625  15.245 -0.0661 -0.1235 -0.1763
 9004W        W27208   0.996   1.208   3.374  0.0712 -0.0331  0.3513
 9005W        W27209  16.515  10.058  12.998 -0.0183  0.0148 -0.1458
 9006W        W27210  14.243   6.436   6.047  0.4137  0.2294 -0.4875
 9007W        W27211   1.669   0.646   0.692 -0.0731  0.1524 -0.2552
 9008W        W27212   2.927  13.020  12.292 -0.0261  0.2449 -0.1866
 9009W        W27213   4.164  12.832   5.365  0.1058  0.5264 -0.0168
 9010W        W27214  17.177   0.672  13.647 -0.2183 -0.0769  0.3916
 9011W        W27215   0.059   1.420   2.802 -0.1022 -0.2222 -0.1842
 9012W        W27216   3.513  14.279  12.687  0.1607 -0.1279 -0.0229
 9013W        W27217  14.024  15.182   5.354 -0.2487  0.0378  0.0510
 9014W        W27218  12.767   6.658   4.792 -0.2453  0.1415  0.2115
 9015W        W27219   8.049   9.819   3.960 -0.0696 -0.0898  0.0031
 9016W        W27220   0.210  10.301  13.727  0.1817 -0.0335  0.0202
 9017W        W27221   0.009   6.367   4.142 -0.1391  0.0087 -0.2323
 9018W        W27222   1.884  11.455  15.959  0.0480  0.1101 -0.2867
 9019W        W27223  13.770  16.872  14.427  0.1999  0.1758 -0.2241
 9020W        W27224   5.365  13.242   0.602  0.1312  0.0785 -0.1660
 9021W        W27225   8.081   2.708   0.009 -0.1191 -0.0499  0.1531
 9022W        W27226  11.044   1.791   1.844  0.0068 -0.1048  0.1963
 9023W        W27227   0.482  12.212   4.611  0.1081 -0.0680 -0.3273
 9024W        W27228   6.506  15.895   1.095 -0.0598  0.1723 -0.0459
 9025W        W27229  13.911  12.320   4.054 -0.0324 -0.2514  0.0101
 9026W        W27230  11.931  17.007  16.243 -0.3444  0.2235  0.0832
 9027W        W27231  12.526   6.885  16.044 -0.4012  0.0684 -0.2889
 9028W        W27232  14.654   8.753   4.344 -0.3452 -0.0827  0.0743
 9029W        W27233   0.303   3.838  13.773  0.0305 -0.1420 -0.2523
 9030W        W27234  10.987  15.928   3.997  0.0305  0.1042 -0.0185
 9031W        W27235   0.795  15.130   1.898  0.0962  0.1613  0.0498
 9032W        W27236  17.229  14.125  15.385  0.1886  0.0124 -0.1123
 9033W        W27237   1.534   7.302  15.856 -0.0197 -0.1295 -0.2815
 9034W        W27238   4.651   3.398  14.739  0.2413  0.1539  0.2576
 9035W        W27239  13.164   3.393  14.393 -0.1656  0.1335  0.4288
 9036W        W27240   7.208  12.526   4.589 -0.1859  0.0723 -0.0233
 9037W        W27241   5.732  16.344   5.095  0.0805 -0.0795 -0.2783
 9038W        W27242  15.969  10.722   0.919  0.6152 -0.3285 -0.3544
 9039W        W27243  10.037  15.787  14.922 -0.1066  0.1434 -0.0528
 9040W        W27244  12.683   4.075   3.733  0.1953 -0.5666  0.0047
 9041W        W27245   9.818   4.833   2.916  0.0208  0.3713  0.1419
 9042W        W27246   7.620   8.696  17.321 -0.1005 -0.1983  0.1713
 9043W        W27247   7.753  14.744  14.098 -0.1275  0.0290  0.2261
 9044W        W27248  13.186   2.233  14.057 -0.2387  0.0829  0.1501
 9045W        W27249   0.332  13.946  13.350  0.0836  0.1508 -0.0483
 9046W        W27250   3.428  12.029   4.778  0.0494  0.1701  0.0857
 9047W        W27251   3.044   2.017   1.271  0.0131  0.0284  0.0591
 9048W        W27252  12.876   8.339  14.626 -0.0157  0.0946  0.1924
 9049W        W27253   2.063  10.647  14.237 -0.0656  0.1453  0.0395
 9050W        W27254   0.541   7.048   2.310  0.1680 -0.1092 -0.1720
 9051W        W27255   6.358   2.136  14.861  0.1073  0.0480 -0.0697
 9052W        W27256  15.933   0.524  14.231 -0.0022 -0.2779 -0.2903
 9053W        W27257  10.953  14.645  12.346 -0.1378  0.1088 -0.0745
 9054W        W27258   3.963  16.657   2.684  0.0486 -0.2026  0.6453
 9055W        W27259   1.373   0.393  13.213 -0.1949  0.0759  0.1466
 9056W        W27260   4.385  11.557  15.245 -0.0640  0.1059 -0.1559
 9057W        W27261  12.118  12.391   0.139  0.2251  0.0335  0.1126
 9058W        W27262  16.464   7.579   4.942 -0.4011  0.0023  0.1638
 9059W        W27263  13.437   4.967  15.154  0.0661 -0.0727 -0.0689
 9060W        W27264   9.607  10.472  16.936 -0.1569 -0.0299  0.0223
 9061W        W27265   8.237  11.436   4.798 -0.0277 -0.1286  0.0658
 9062W        W27266  13.736   8.164  12.477 -0.2509 -0.2496 -0.0004
 9063W        W27267   7.155   6.302  16.491  0.0634  0.2037 -0.0734
 9064W        W27268   9.596  14.884  13.801  0.0363  0.1751 -0.1562
 9065W        W27269  11.567  13.917  15.561 -0.1988 -0.0281  0.1702
 9066W        W27270   3.611   7.070  15.284 -0.4298  0.0198  0.2063
 9067W        W27271  12.015   9.016   0.933 -0.0573 -0.0142  0.1759
 9068W        W27272  14.781   1.892   4.734  0.1248  0.1291 -0.0928
 9069W        W27273  15.686   5.812  14.231 -0.3844 -0.5164 -0.4162
 9070W        W27274   2.596  13.986   4.724  0.1570 -0.2839  0.2950
 9071W        W27275  14.205  16.920   0.879  0.0404 -0.2207  0.1340
 9072W        W27276  17.313  10.729  13.915  0.0532  0.0256 -0.0210
 9073W        W27277   1.369  10.620   0.778 -0.0160  0.0292 -0.2855
 9074W        W27278  14.766   0.442  15.981 -0.0190  0.0132 -0.1458
 9075W        W27279   5.690   0.389   3.745 -0.0527  0.1196  0.1061
 9076W        W27280  16.365   3.694   1.059 -0.0261 -0.1522  0.0852
 9077W        W27281   2.155  15.449  16.536 -0.0821  0.0309 -0.0648
 9078W        W27282   8.503  15.604  14.779 -0.1547  0.1255 -0.0992
 9079W        W27283  14.265  11.603   4.163 -0.2681  0.2533 -0.4412
 9080W        W27284   3.790  10.620  14.987 -0.3226  0.2448  0.1961
 9081W        W27285   5.863   3.758   3.396 -0.2111  0.1602 -0.2123
 9082W        W27286   3.332   5.415   4.237  0.0904 -0.1932 -0.1017
 9083W        W27287   6.954   9.493   3.872  0.2392  0.0391 -0.2056
 9084W        W27288   4.173   7.979   4.600  0.0417  0.0490  0.0036
 9085W        W27289   6.123   2.684   2.374 -0.1560 -0.0455  0.0770
 9086W        W27290   1.434   3.764   2.738 -0.0351 -0.1168 -0.2272
 9087W        W27291   7.036  16.703   0.426  0.0152 -0.1422  0.0002
 9088W        W27292  16.849  10.589  12.735 -0.1021  0.2085 -0.2398
 9089W        W27293  10.721  14.073  15.002 -0.0134 -0.1481 -0.1272
 9090W        W27294   5.912   3.581  16.462  0.1046 -0.2083  0.3879
 9091W        W27295   0.286   8.088   2.656  0.0735  0.4371  0.1543
 9092W        W27296  11.018   0.054   5.814  0.0381 -0.0446  0.0248
 9093W        W27297  14.114   0.477   2.875 -0.0536 -0.0907 -0.1679
 9094W        W27298   7.456   1.152  14.410  0.1214  0.3171  0.1495
 9095W        W27299   2.447  13.872   0.322 -0.0843  0.0342  0.3655
 9096W        W27300  12.048   9.918  13.824 -0.0641  0.0900  0.0387
 9097W        W27301   1.129   9.673  15.994 -0.0700 -0.0603 -0.0019
 9098W        W27302  13.006   0.180  14.869 -0.2080 -0.0340  0.3286
 9099W        W27303  16.626   7.308   4.067 -0.0300 -0.4048  0.0510
 9100W        W27304   3.694  10.305   3.845 -0.2216 -0.1896 -0.1612
 9101W        W27305   9.805  11.058  16.250 -0.1515  0.0716  0.0341
 9102W        W27306  15.948   0.290   2.987  0.1762 -0.0676 -0.3551
 9103W        W27307  10.464   2.286   0.074 -0.1424 -0.1331  0.3953
 9104W        W27308  16.821   8.208   4.410  0.2655  0.0254  0.1998
 9105W        W27309  14.500  14.404  14.893  0.0648 -0.1662  0.2124
 9106W        W27310  13.139  15.690   4.754  0.1017 -0.2081 -0.0946
 9107W        W27311  14.618  11.909   5.079  0.1436 -0.4488 -0.1320
 9108W        W27312   5.053   6.087  12.255  0.0005  0.1780  0.1374
 9109W        W27313   9.292  15.011  14.225  0.1978  0.3020  0.0955
 9110W        W27314  16.317   3.790  12.094 -0.0045 -0.0685 -0.1550
 9111W        W27315  15.869   7.366  16.813  0.1403 -0.2211 -0.0690
 9112W        W27316   4.425   2.529  15.741 -0.2023  0.0167 -0.0341
 9113W        W27317   1.037   4.373  14.255  0.0410 -0.3459  0.0930
 9114W        W27318   0.118  15.069  15.198  0.0839 -0.3572 -0.1418
 9115W        W27319   5.094  10.077   3.814  0.1301  0.2010  0.1149
 9116W        W27320   9.687   3.248   4.725  0.0357 -0.1517  0.5255
 9117W        W27321   0.725   1.225  12.882  0.1639 -0.0643 -0.2026
 9118W        W27322  16.263   5.810   6.199  0.1130  0.0794 -0.2090
 9119W        W27323   0.438   8.502  17.197  0.1717  0.1149 -0.1069
 9120W        W27324   8.066  13.492   3.973  0.0484  0.0708  0.0635
 9121W        W27325  12.355   5.951  17.101 -0.3573 -0.0386  0.0307
 9122W        W27326  13.914   4.145   5.417 -0.2451  0.3225 -0.4251
 9123W        W27327   2.628  11.636   4.977 -0.1303  0.1525  0.2124
 9124W        W27328   1.638   9.321   5.387  0.1965  0.1740  0.1108
 9125W        W27329  11.413  14.913  13.982  0.2391 -0.2262 -0.2130
 9126W        W27330   4.303  14.087   5.163  0.3303  0.2072 -0.2467
 9127W        W27331  10.234   7.131   4.072 -0.1782 -0.1541  0.0704
 9128W        W27332  16.493   0.678   3.961 -0.0669 -0.2831  0.2743
 9129W        W27333   8.207  10.216   3.670  0.1024 -0.0629  0.0869
 9130W        W27334   9.538  12.200   0.971 -0.1977  0.3489  0.3760
 9131W        W27335   8.042   1.165  14.446 -0.1944 -0.0166  0.1975
 9132W        W27336  15.492   1.333  14.134  0.1214  0.0963  0.0643
 9133W        W27337   0.074   1.349  15.257 -0.0499  0.3198  0.2143
 9134W        W27338   9.287   7.612  17.109 -0.0586 -0.1607  0.1969
 9135W        W27339  17.145   5.194  15.737  0.0440 -0.0463 -0.1736
 9136W        W27340   6.072  13.879   1.816  0.3262  0.2231 -0.4089
 9137W        W27341  11.529   9.080  13.862 -0.0848 -0.2490  0.2203
 9138W        W27342  16.484   7.342  12.642  0.0756  0.2102 -0.0243
 9139W        W27343  15.998   2.700   4.344 -0.2203  0.0920 -0.1101
 9140W        W27344   6.021  10.381  16.097 -0.0214  0.0283  0.0184
 9141W        W27345   8.161  16.813  14.108  0.2002  0.3793  0.0006
 9142W        W27346  14.484  14.068   3.243 -0.1615 -0.0346  0.0774
 9143W        W27347  15.250   7.980  12.979 -0.0479 -0.0066 -0.0072
 9144W        W27348  16.106   1.337   3.225 -0.1246  0.1113  0.0505
 9145W        W27349   7.003  12.008   3.815  0.2632 -0.1882  0.2468
 9146W        W27350   2.256   1.172  13.409  0.1754  0.0763  0.0277
 9147W        W27351  11.722  15.021   3.077 -0.0636 -0.3668 -0.2276
 9148W        W27352  11.237   4.125   1.234  0.3015  0.0052 -0.1998
 9149W        W27353   2.175   7.504   4.502  0.3592  0.0745 -0.3123
 9150W        W27354   2.524   9.320   0.862  0.1559  0.3474 -0.0396
 9151W        W27355  16.033  11.556  13.982 -0.2753 -0.0114  0.2238
 9152W        W27356   1.245  11.069   3.795 -0.1710 -0.0378  0.0591
 9153W        W27357   6.508   3.720  12.101  0.0831 -0.0658 -0.0731
 9154W        W27358   6.392  13.068   3.759  0.3156 -0.3055  0.3101
 9155W        W27359  13.011  14.560  16.167  0.1136 -0.1541 -0.0126
 9156W        W27360   6.255   5.618  17.008 -0.5391  0.0181  0.1238
 9157W        W27361   1.970   9.578  17.012  0.2278  0.0103  0.1679
 9158W        W27362   0.163   4.277  16.628  0.1159  0.0836 -0.4027
 9159W        W27363  14.949  11.288  12.435 -0.3312  0.0181 -0.2042
 9160W        W27364   3.498   6.414   1.096 -0.3434 -0.0833  0.0176
 9161W        W27365  11.751   4.366  13.613  0.1059  0.1027 -0.3059
 9162W        W27366  14.938  12.183   1.986  0.1029 -0.1423 -0.0528
 9163W        W27367   4.691   3.581   5.004 -0.1850  0.2304 -0.0518
 9164W        W27368  13.330   8.919  14.127  0.0497 -0.0185 -0.0023
 9165W        W27369   7.379  12.075   2.910  0.0494  0.0335  0.0299
 9166W        W27370  10.491   1.398  14.182 -0.0409  0.2100  0.0542
 9167W        W27371   7.449   5.469  12.866 -0.1788  0.1203  0.0929
 9168W        W27372  14.751   4.629   1.643 -0.0392 -0.1525  0.1554
 9169W        W27373  15.206   0.875  12.672 -0.0079  0.0400  0.5191
 9170W        W27374  14.674   6.688  17.332 -0.0645  0.0211  0.1967
 9171W        W27375   2.956   6.628   0.376 -0.2049  0.0223  0.4104
 9172W        W27376   8.906   2.949  17.162  0.1075 -0.1563 -0.0423
 9173W        W27377  14.790   6.748  13.820 -0.1384  0.1755  0.2474
 9174W        W27378  10.037  15.590  12.641 -0.2646  0.2534  0.1365
 9175W        W27379  14.343   5.860   2.738 -0.1357 -0.2664  0.0562
 9176W        W27380  13.789   8.245   2.133 -0.0625  0.3450  0.1106
 9177W        W27381   9.619   0.819  13.297 -0.1032 -0.0163  0.0163
 9178W        W27382  13.416   1.411  11.566 -0.0745 -0.0940  0.2336
 9179W        W27383   4.710   0.811  12.790  0.0406 -0.1141 -0.0869
 9180W        W27384   9.934   9.717  17.436 -0.0292  0.1416  0.2867
 9181W        W27385  12.341   0.493   5.389  0.0929 -0.2003 -0.1267
 9182W        W27386   9.627  15.614  12.918 -0.1475 -0.0979 -0.0069
 9183W        W27387  15.835   5.741   4.584  0.0245  0.1232 -0.2624
 9184W        W27388   9.640  14.615  14.236 -0.0985 -0.1687  0.0612
 9185W        W27389  15.494   1.922   1.605  0.2743  0.2560 -0.2140
 9186W        W27390  15.905  14.621  16.192  0.1554 -0.1334 -0.1478
 9187W        W27391  14.119  16.007   4.728  0.0333  0.0370  0.1752
 9188W        W27392   7.257  13.149  15.650  0.4988  0.2661  0.1382
 9189W        W27393  15.876   7.080   2.982  0.0688 -0.0209 -0.3360
 9190W        W27394   1.787  13.105  15.271  0.1621  0.0197  0.1347
 9191W        W27395   1.515  12.188  15.092 -0.4876 -0.0745  0.2116
 9192W        W27396   6.746   3.590   1.686  0.0439 -0.2079  0.0319
 9193W        W27397   3.955   3.515   0.018  0.2476 -0.0455  0.1408
 9194W        W27398   2.242   1.908   3.663 -0.0464  0.3181 -0.0842
 9195W        W27399  11.732  15.338   3.667  0.1039 -0.2582  0.1401
 9196W        W27400   5.174   4.794  17.028  0.0604  0.1514 -0.1774
 9197W        W27401  10.776  13.602  14.871  0.2386 -0.1961  0.0447
 9198W        W27402   9.360  14.017  15.814 -0.0161  0.0872  0.0140
 9199W        W27403   2.851   3.749  15.382  0.0227 -0.1297  0.2702
 9200W        W27404  10.724   4.311  15.547 -0.0702  0.2404  0.0546
 9201W        W27405   4.256  12.118  14.896 -0.3678 -0.3915 -0.1205
 9202W        W27406  10.848   8.508   0.031  0.1380 -0.2117  0.0156
 9203W        W27407   8.266   1.911   5.631 -0.1630 -0.1623 -0.2479
 9204W        W27408   5.143   5.748  14.421 -0.0270 -0.2585 -0.4827
 9205W        W27409   0.577   6.827  15.318 -0.1212  0.0243 -0.1618
 9206W        W27410   9.784  14.032  12.824 -0.1303 -0.2489 -0.0535
 9207W        W27411  15.445   9.201   5.380 -0.3740  0.0644  0.1218
 9208W        W27412  15.299  17.207  12.486 -0.1400 -0.2073  0.1658
 9209W        W27413  11.622   3.863   1.866 -0.0789  0.3208  0.0868
 9210W        W27414  12.986   2.445   4.663 -0.1175  0.2859  0.2734
 9211W        W27415  16.920   1.341   2.627  0.3038  0.0712  0.0855
 9212W        W27416  12.092  14.137  13.954 -0.1173  0.2207  0.1835
 9213W        W27417   2.540   6.367   1.500 -0.1133  0.0347  0.0351
 9214W        W27418  14.369  15.999   1.349  0.0276  0.0909 -0.1201
 9215W        W27419   0.707   9.619   1.080  0.0687  0.0897  0.0580
 9216W        W27420   5.097  13.332   1.012 -0.1960  0.0458 -0.1135
 9217W        W27421   8.174   7.209  15.446 -0.2253 -0.0479 -0.1754
 9218W        W27422   3.244  12.561   3.602  0.0192 -0.0818 -0.2881
 9219W        W27423   3.416  13.233   0.358  0.0975 -0.2926 -0.0981
 9220W        W27424  12.104  14.799   1.643  0.0078  0.0868  0.1706
 9221W        W27425   2.934   4.709   2.728  0.0644  0.2123  0.1543
 9222W        W27426  12.462  15.574   2.094  0.1242  0.0662  0.2327
 9223W        W27427  10.002  16.500  12.953 -0.2797 -0.2235 -0.0516
 9224W        W27428   9.887   2.528  12.786  0.1258  0.0641  0.0874
 9225W        W27429   1.859   2.031   4.869  0.0760 -0.2177  0.1063
 9226W        W27430  12.082  16.325  15.073  0.2474 -0.2241  0.0384
 9227W        W27431   9.500  12.842  17.017 -0.3357 -0.0398 -0.0227
 9228W        W27432  16.105   0.046  17.212  0.1396  0.1273  0.0366
 9229W        W27433  13.701   6.612  12.534  0.2134 -0.1318  0.1203
 9230W        W27434  12.027  17.005  17.220 -0.0846  0.0683 -0.2323
 9231W        W27435  12.550  15.065   3.305  0.0445  0.1286 -0.0526
 9232W        W27436   1.915  15.178   2.823  0.0819 -0.1368 -0.3662
 9233W        W27437  11.051  15.933  16.438  0.1118 -0.2996 -0.1588
 9234W        W27438   0.758   4.379  17.278  0.0919  0.0481  0.1467
 9235W        W27439  14.294  12.289   2.584  0.0140  0.1306 -0.0356
 9236W        W27440   5.908   2.906  13.239  0.2170  0.0130 -0.1660
 9237W        W27441   4.095   4.586   3.515  0.0621 -0.0125 -0.1373
 9238W        W27442  16.891  11.024  15.337 -0.1935  0.0008 -0.2613
 9239W        W27443  11.013   0.348  11.288  0.0716 -0.0290 -0.2360
 9240W        W27444  10.739  13.819  13.995 -0.0918  0.2414  0.0986
 9241W        W27445   2.481   1.102  14.499  0.2664 -0.0956  0.1996
 9242W        W27446   5.238   6.665  14.579 -0.3488  0.3150  0.0623
 9243W        W27447  10.985  15.416  12.125 -0.4071 -0.0354 -0.1915
 9244W        W27448   5.652   3.830   4.976 -0.3093 -0.2414  0.1126
 9245W        W27449   6.176  13.400   0.603  0.0171 -0.1165 -0.1530
 9246W        W27450  12.729   2.543  14.091  0.1162 -0.3056  0.2332
 9247W        W27451   5.592  13.359  15.201 -0.0632  0.1146  0.0005
 9248W        W27452  13.178  13.976   2.156  0.1185  0.0683  0.0956
 9249W        W27453  12.719   3.330   5.185  0.0388 -0.1616  0.1114
 9250W        W27454  15.008   4.343   0.131 -0.1322 -0.1364 -0.3942
 9251W        W27455   2.753   5.086  15.740  0.2804 -0.0164  0.1171
 9252W        W27456  14.753   2.677   5.456  0.0455 -0.2647 -0.1041
 9253W        W27457   9.137   3.966   1.977  0.0850  0.1819  0.0105
 9254W        W27458  15.243  13.503  13.004  0.1180 -0.2253 -0.0615
 9255W        W27459  16.105   1.545   3.685  0.3004 -0.1100 -0.0229
 9256W        W27460   1.063  16.651   3.960 -0.0506  0.0781  0.1385
 9257W        W27461   9.702   8.044   1.414 -0.2298  0.3454  0.0836
 9258W        W27462   9.963   8.988   0.305 -0.1139  0.3418 -0.1703
 9259W        W27463   6.094   4.133  12.691 -0.1541  0.2914 -0.0115
 9260W        W27464  15.511  14.397   3.559 -0.0135  0.1403  0.1681
 9261W        W27465   9.232   9.871  12.871  0.0009  0.2079 -0.0385
 9262W        W27466  17.125   9.821   2.164 -0.1260 -0.2017 -0.1119
 9263W        W27467  15.595  16.703  14.285  0.0135 -0.1298 -0.1243
 9264W        W27468  13.219   1.905   3.363  0.2024 -0.3344 -0.3440
 9265W        W27469   8.673   3.960  17.437  0.0625 -0.1603  0.1147
 9266W        W27470   6.206   9.166   2.701  0.3451 -0.0295  0.0376
 9267W        W27471   4.100   8.879   2.429  0.0605  0.0948  0.1916
 9268W        W27472  13.466   0.224   4.673 -0.0859 -0.3079 -0.0922
 9269W        W27473   7.890   8.917   0.256 -0.3171  0.1767  0.0592
 9270W        W27474   7.147  15.460  17.446  0.4654 -0.1153  0.2429
 9271W        W27475  15.613   6.591   4.923 -0.0603 -0.2355  0.3717
 9272W        W27476  15.745   4.373  12.415  0.1281  0.3529 -0.3290
 9273W        W27477   1.227   4.877  16.676 -0.0512 -0.1321  0.0896
 9274W        W27478   4.570   6.956  13.880  0.1576  0.2202 -0.2221
 9275W        W27479  16.880   2.502  17.381 -0.1861 -0.3043  0.1244
 9276W        W27480   7.561   8.590  13.998  0.1664 -0.1516  0.2438
 9277W        W27481   9.390  13.415   1.752  0.2216  0.0426  0.3159
 9278W        W27482  15.382   5.728  12.444 -0.0639  0.0752  0.0629
 9279W        W27483   7.055  11.184   3.458  0.4260  0.0901 -0.0189
 9280W        W27484   2.547  11.054  12.404  0.1866 -0.3621 -0.1321
 9281W        W27485  10.158   0.864  17.213  0.0455 -0.2269 -0.1882
 9282W        W27486   6.736   1.216  16.721  0.0923  0.2403 -0.0953
 9283W        W27487   6.047   3.352   0.702  0.2173 -0.1428  0.0077
 9284W        W27488   3.542  16.349  12.885 -0.0264  0.0543 -0.0789
 9285W        W27489   9.273  16.977   2.471 -0.4827  0.0510  0.2908
 9286W        W27490  15.607  11.654   2.831  0.0284 -0.2190  0.2075
 9287W        W27491  13.552  14.444  13.161 -0.3434 -0.3624  0.0403
 9288W        W27492   3.010   9.382   0.618 -0.1950  0.0965  0.1361
 9289W        W27493   3.314  16.394   3.056 -0.3363  0.2353 -0.0234
 9290W        W27494  12.037   4.458   0.094 -0.2074 -0.1330 -0.2344
 9291W        W27495   9.442  13.663   1.313  0.3152  0.0526  0.0183
 9292W        W27496   4.478   6.368  13.200 -0.1399 -0.0255 -0.0732
 9293W        W27497   3.811   0.162  14.436 -0.2418  0.1308  0.2297
 9294W        W27498   2.135   6.505   3.472  0.3289 -0.2002 -0.2962
 9295W        W27499   9.419   0.091   0.496  0.1488 -0.2313  0.0305
 9296W        W27500   3.249  11.347   4.277  0.2999  0.2533  0.0526
 9297W        W27501   4.933  16.770   4.118 -0.1259  0.1776  0.0396
 9298W        W27502   6.992   5.541  11.591 -0.1798  0.3296 -0.2289
 9299W        W27503   4.697   2.306   1.259  0.1910 -0.0275  0.3312
 9300W        W27504   7.043   1.635   0.570  0.3441 -0.1825 -0.2433
 9301W        W27505   5.506   4.513  16.737 -0.0496  0.1891  0.0850
 9302W        W27506  15.443   0.742  13.904  0.0540  0.0264 -0.1354
 9303W        W27507  12.523  17.003  15.170  0.1816 -0.1230 -0.2412
 9304W        W27508  10.780   8.591   4.869 -0.1316  0.1573  0.0110
 9305W        W27509  12.468  15.724  13.240 -0.0660  0.0580  0.0122
 9306W        W27510   2.971  12.851   2.662  0.0385  0.2957  0.0018
 9307W        W27511   7.705   7.399  16.998  0.0362 -0.0908  0.0884
 9308W        W27512  13.896  12.882  14.194  0.0299  0.5553 -0.0781
 9309W        W27513   1.163   2.367   2.161  0.1620 -0.0506  0.0036
 9310W        W27514   4.914  11.222   3.331  0.0827  0.0339 -0.1380
 9311W        W27515   0.454   5.417   2.925  0.4619  0.0850 -0.1160
 9312W        W27516  14.858  11.164   5.858  0.4076 -0.0632 -0.1223
 9313W        W27517  14.516  11.049   4.197  0.1305  0.0581  0.1832
 9314W        W27518   0.201   6.251  15.881  0.1822  0.0869 -0.1462
 9315W        W27519  16.921   0.936   4.088 -0.3734  0.0513  0.0737
 9316W        W27520   4.393  12.236   0.612  0.3143 -0.1200 -0.1508
 9317W        W27521   5.170   8.727   4.394 -0.2335 -0.0652 -0.2944
 9318W        W27522  14.196  12.301  13.221 -0.2341 -0.0896  0.1170
 9319W        W27523  14.309  14.316   1.227  0.1331  0.0490 -0.2730
 9320W        W27524   1.465  12.957  12.818  0.1169  0.0301 -0.1001
 9321W        W27525   6.753  13.365   3.521  0.2406  0.0839  0.0405
 9322W        W27526  12.605  15.576  16.865  0.1336  0.3312 -0.2962
 9323W        W27527   1.928  10.137  14.077 -0.0996  0.5013  0.3709
 9324W        W27528  12.224   1.938  12.866 -0.0257 -0.2041  0.1514
 9325W        W27529   9.563   2.310  13.113 -0.1665  0.1189  0.1406
 9326W        W27530  10.256  12.895  13.192  0.0671 -0.1220 -0.1189
 9327W        W27531   0.959   7.546  12.366  0.1582 -0.3054 -0.1401
 9328W        W27532   2.987   8.778   3.170  0.2801  0.0231  0.2190
 9329W        W27533   9.881  16.523  12.464 -0.1544 -0.0116 -0.3282
 9330W        W27534   9.921   2.543   0.143 -0.1432  0.1282 -0.1097
 9331W        W27535   2.691  12.546  13.532  0.0452 -0.1986 -0.3060
 9332W        W27536   3.497  13.747  14.692 -0.2224  0.0549 -0.0242
 9333W        W27537   0.655   5.545  15.876 -0.0817 -0.0538 -0.0844
 9334W        W27538   9.190  15.202   1.929  0.2141 -0.2250 -0.4048
 9335W        W27539  11.400   7.901  15.682 -0.1325 -0.2780 -0.0634
 9336W        W27540  15.229  12.534  13.826  0.0663 -0.0252 -0.2212
 9337W        W27541   7.107  17.017  12.989 -0.1691  0.0283  0.1484
 9338W        W27542   7.779   2.467  16.670 -0.0105 -0.0991  0.1053
 9339W        W27543   4.674   0.457  12.413  0.2097 -0.2928  0.1288
 9340W        W27544   9.445  12.222   0.374 -0.0551 -0.1695  0.1898
 9341W        W27545  14.349  14.390   5.143  0.2156  0.1493 -0.0946
 9342W        W27546   5.195   7.816  12.571 -0.0886  0.0696 -0.1300
 9343W        W27547  15.142  15.547   0.505 -0.3592  0.1589  0.1784
 9344W        W27548   5.717   5.043   4.546  0.1075 -0.3080  0.1718
 9345W        W27549  11.557   1.928  13.634 -0.1082  0.1866  0.1573
 9346W        W27550   9.784   9.461  15.170  0.2696 -0.0157 -0.4677
 9347W        W27551   5.525  12.926   0.998  0.0310 -0.2612 -0.2208
 9348W        W27552   1.055  11.397   2.943  0.2154 -0.0500  0.2169
 9349W        W27553   7.112  11.976   2.558 -0.0438  0.3982 -0.0292
 9350W        W27554  10.231   6.274   3.658 -0.1106 -0.0042 -0.2883
 9351W        W27555   0.084  12.574  16.096 -0.0504 -0.0355  0.1528
 9352W        W27556   0.232  10.502   2.907 -0.0700  0.1779  0.1025
 9353W        W27557   7.973  15.083   6.227  0.3768 -0.1448 -0.2844
 9354W        W27558   3.516   0.298   1.597 -0.0482 -0.0041  0.1746
 9355W        W27559   2.985   3.727   2.558 -0.0323 -0.0554  0.1206
 9356W        W27560  10.970  12.689  14.408 -0.0186 -0.2031 -0.1459
 9357W        W27561   3.507   7.775  12.879  0.2311  0.0482  0.0187
 9358W        W27562   3.826  11.959   2.353  0.2582 -0.1859  0.0990
 9359W        W27563   5.874  12.071   0.616 -0.2096  0.0949  0.0615
 9360W        W27564   1.433   9.058  16.506  0.0384  0.1505  0.1044
 9361W        W27565  13.369   4.946  15.644  0.1429  0.0631  0.0862
 9362W        W27566   7.591  14.328   3.941 -0.0898 -0.0207  0.0427
 9363W        W27567  10.827   1.943   0.199 -0.0773  0.1892  0.0257
 9364W        W27568   1.638   6.465  14.632  0.2242  0.1835 -0.0388
 9365W        W27569  10.080  16.057   2.203 -0.2894  0.3212  0.1819
 9366W        W27570   6.782   2.046  13.079 -0.1413 -0.1399  0.3960
 9367W        W27571   1.694  14.077  16.772 -0.2771 -0.0811 -0.1428
 9368W        W27572   3.900   0.289   0.226  0.2545 -0.0229  0.2607
 9369W        W27573   3.084   5.246   5.082 -0.2612 -0.0807  0.3005
 9370W        W27574  11.653  12.988  16.517 -0.1838  0.0600 -0.0137
 9371W        W27575   0.658   9.777   4.249 -0.1353  0.0512 -0.2547
 9372W        W27576  11.520   1.181  14.851  0.0863 -0.0373 -0.0149
 9373W        W27577   1.175  14.537  12.873  0.2618 -0.4555 -0.0424
 9374W        W27578  13.044   4.803   3.297 -0.1497 -0.0216  0.0712
 9375W        W27579  15.461  13.431  14.950  0.2254 -0.0623 -0.0612
 9376W        W27580   6.969  16.207  13.428 -0.1815 -0.3914 -0.1923
 9377W        W27581   9.729   7.291  14.475 -0.1387 -0.1232  0.2376
 9378W        W27582   2.480   3.574  12.947 -0.2882  0.0558  0.1046
 9379W        W27583   1.219   0.523  16.308  0.2289 -0.0491 -0.3646
 9380W        W27584   6.205  11.200  15.377  0.0474 -0.1366 -0.1305
 9381W        W27585   1.995   1.728  14.944  0.0670  0.1375 -0.1447
 9382W        W27586  11.139   5.715  14.985 -0.1327 -0.0829 -0.0984
 9383W        W27587   1.598  12.673  17.284 -0.0988  0.3122 -0.1713
 9384W        W27588   5.046   5.359  15.395  0.0204 -0.1154 -0.0928
 9385W        W27589  15.924   1.655   1.510 -0.1807  0.3885 -0.0755
 9386W        W27590   7.627   3.771  16.825 -0.0903 -0.1044  0.0116
 9387W        W27591   6.887  16.285  14.761  0.0700 -0.3967  0.0166
 9388W        W27592   7.285  13.475  14.238  0.1075  0.0143  0.0942
 9389W        W27593  15.390   8.001   0.613 -0.2325 -0.5556 -0.1193
 9390W        W27594   9.968  16.340   4.848 -0.0728 -0.0050 -0.0924
 9391W        W27595   6.389  13.684   3.723 -0.0989 -0.2939  0.0253
 9392W        W27596   9.231  11.338  13.453  0.1774  0.0246  0.1415
 9393W        W27597   3.321   1.006   4.667  0.1732 -0.2057 -0.2891
 9394W        W27598  15.582   4.532  15.079  0.0322 -0.1138  0.1709
 9395W        W27599   9.206  15.363  16.523  0.0479 -0.1466 -0.1353
 9396W        W27600  17.017  17.096   1.341 -0.0028 -0.3623 -0.0598
 9397W        W27601   5.143   9.958   2.245  0.2357 -0.0583  0.0200
 9398W        W27602  14.839   1.955  16.316  0.3015  0.1480  0.4218
 9399W        W27603  13.907  17.295   4.773  0.2612 -0.1220 -0.0697
 9400W        W27604  11.047   2.345  16.612  0.0048 -0.1037  0.1045
 9401W        W27605  10.354  11.018   1.079 -0.3894 -0.0054 -0.2105
 9402W        W27606  11.262   9.771  17.407 -0.0463 -0.1026 -0.1067
 9403W        W27607   5.717   4.506   1.493 -0.0913  0.3068 -0.1670
 9404W        W27608   0.339   0.284   1.261  0.3469  0.3397 -0.0048
 9405W        W27609   2.687  14.437  12.950  0.0284 -0.1908 -0.0438
 9406W        W27610   6.295  12.905  16.831 -0.1459  0.1094 -0.3947
 9407W        W27611   4.564  16.509  16.948  0.0557 -0.2581 -0.1359
 9408W        W27612   6.632   9.273  12.065 -0.1318  0.0452  0.1486
 9409W        W27613  12.036  13.128  16.821  0.1140  0.3459  0.0217
 9410W        W27614  16.424   0.149  13.558  0.0251 -0.3382  0.1446
 9411W        W27615  15.539  10.163   1.746 -0.3796 -0.1597 -0.1527
 9412W        W27616   0.110   7.088   0.889 -0.2253  0.1037 -0.1341
 9413W        W27617  13.073   4.956  16.477  0.1464 -0.0413  0.1205
 9414W        W27618  16.694   2.758   2.771 -0.1456  0.0008  0.0954
 9415W        W27619  15.832  12.410  11.568 -0.0511 -0.1457 -0.1130
 9416W        W27620  16.654  13.651  12.667 -0.2799  0.0015 -0.0944
 9417W        W27621   7.881  14.230   3.495  0.0384  0.0429 -0.0179
 9418W        W27622   6.363   0.858  12.658  0.2487 -0.3229 -0.1967
 9419W        W27623   4.494   3.934   3.815 -0.0397 -0.1283 -0.1302
 9420W        W27624   5.518  14.155   3.840  0.3277  0.0968 -0.0985
 9421W        W27625   0.878   6.315   1.039 -0.0678 -0.2581 -0.0616
 9422W        W27626   9.327  14.753  13.041 -0.1827 -0.1827 -0.0574
 9423W        W27627   7.449   4.537  16.438 -0.0148 -0.1775  0.0696
 9424W        W27628   5.367   9.098   3.786 -0.0531 -0.0477 -0.0559
 9425W        W27629  11.483  13.598  14.375  0.1617 -0.1054  0.1366
 9426W        W27630  15.038  13.509   4.387 -0.0495  0.2702 -0.2380
 9427W        W27631   8.669   8.463  13.342  0.0826 -0.0451 -0.1154
 9428W        W27632   7.644  15.052  16.702  0.1100 -0.2524  0.0522
 9429W        W27633   1.360   2.517  11.042  0.2684  0.0328 -0.0333
 9430W        W27634   6.585   8.579   2.854  0.1154  0.0712  0.2443
 9431W        W27635   0.083   0.929  14.903 -0.1351  0.0618 -0.0887
 9432W        W27636  15.266   6.571  13.938  0.0014  0.1428 -0.0058
 9433W        W27637   0.594   3.504  13.367 -0.0912  0.0289 -0.1113
 9434W        W27638  13.508  15.566  14.187 -0.0016 -0.1128 -0.1111
 9435W        W27639   9.404   9.416   3.807  0.0210 -0.1667 -0.0059
 9436W        W27640   0.469   2.364   1.875  0.2480  0.0382  0.0404
 9437W        W27641  15.850  11.314  14.434 -0.1166  0.1682  0.0062
 9438W        W27642  11.897   1.115  13.457 -0.2287 -0.1188  0.0215
 9439W        W27643   3.582   4.262   3.401 -0.0790  0.2336  0.0600
 9440W        W27644   4.074   9.089   3.233  0.0155 -0.2710 -0.2193
 9441W        W27645  16.473   8.835  14.413  0.3423  0.4130 -0.0444
 9442W        W27646   5.531   1.947  15.292 -0.1243 -0.0341  0.2702
 9443W        W27647   5.909  10.869  12.389 -0.1251  0.0062  0.0145
 9444W        W27648   0.643  13.483  14.031 -0.0085 -0.0357 -0.3354
 9445W        W27649   6.509  14.346  15.477  0.2695  0.2882 -0.1143
 9446W        W27650   6.210   8.747  15.431  0.3325 -0.3059  0.1292
 9447W        W27651   2.269  14.728   1.937 -0.1192 -0.0430  0.3435
 9448W        W27652   3.415   0.408   3.361 -0.0600  0.0420  0.1513
 9449W        W27653   4.470   2.940  13.982 -0.0280  0.1461 -0.1574
 9450W        W27654  11.195  10.223   4.315  0.1356 -0.1561 -0.0632
 9451W        W27655   9.306  10.727  16.513  0.2589  0.1963 -0.1080
 9452W        W27656   6.039  15.216  17.453  0.1663 -0.2553  0.1003
 9453W        W27657   4.523   3.264   1.927  0.1754 -0.0871  0.2463
 9454W        W27658   7.199   5.917  16.187 -0.1476  0.1355  0.3408
 9455W        W27659  13.624  11.960   1.499 -0.2283  0.0335  0.1777
 9456W        W27660  17.114  15.932   4.780  0.1868  0.1091  0.0037
 9457W        W27661   3.237   4.477  16.607  0.2031 -0.0483 -0.1787
 9458W        W27662   7.384   5.289   4.004  0.0534  0.0104 -0.0643
 9459W        W27663   2.273   3.535   1.439 -0.1128  0.3525  0.0845
 9460W        W27664  16.482  13.086   1.820  0.3198  0.1533  0.4061
 9461W        W27665  16.206  12.334   2.424 -0.1334  0.1967 -0.2723
 9462W        W27666   7.701   6.990  13.105 -0.1103 -0.1735 -0.0917
 9463W        W27667  15.015   8.947  14.535 -0.2114  0.0765 -0.1304
 9464W        W27668   2.529  13.845   2.939 -0.2029 -0.1771 -0.1795
 9465W        W27669  13.631   6.504  17.006  0.0022  0.1225  0.0812
 9466W        W27670   1.707   7.169   2.269  0.0814  0.2384  0.0758
 9467W        W27671  16.048  11.379  15.801 -0.0814  0.0506 -0.0567
 9468W        W27672  13.141   0.028   0.957  0.1132  0.1954  0.1757
 9469W        W27673   3.372   7.689  16.626  0.2336  0.3171 -0.2373
 9470W        W27674  14.140  16.119   5.516 -0.1582  0.2191 -0.3622
 9471W        W27675  10.221   4.708  13.974 -0.0561  0.0860 -0.1990
 9472W        W27676  17.022  16.117  13.134  0.0857 -0.1050 -0.1302
 9473W        W27677   3.539  12.011  14.057  0.0708 -0.1732  0.1120
 9474W        W27678  17.234  11.977   2.168  0.0137 -0.2942  0.1051
 9475W        W27679  11.330   1.760  12.354  0.0517  0.0246  0.1023
 9476W        W27680   7.502   3.258   1.613  0.1614  0.3434 -0.1400
 9477W        W27681   4.900   5.393  15.918  0.1455 -0.0327  0.2505
 9478W        W27682  10.334   2.379  16.039 -0.2377 -0.1205  0.0388
 9479W        W27683   6.869   4.145   3.604  0.2233 -0.3530 -0.0828
 9480W        W27684  16.060  11.950  15.317 -0.1092  0.0505  0.1377
 9481W        W27685   8.266   8.633   0.881  0.3608 -0.0667  0.0435
 9482W        W27686  15.561   7.605  14.985 -0.2163  0.0857  0.2115
 9483W        W27687  12.016   7.302   2.649 -0.0252  0.0040  0.0454
 9484W        W27688  13.408  12.303  12.854  0.1047  0.1472  0.2661
 9485W        W27689   1.663  10.697  16.118  0.1797 -0.3221  0.1335
 9486W        W27690  15.825   3.688   2.224 -0.1789 -0.1383  0.2726
 9487W        W27691  16.168   8.923   1.534  0.1763 -0.2230 -0.2540
 9488W        W27692  11.291  13.031   4.209 -0.1752 -0.1237  0.1532
 9489W        W27693  17.065  12.963  16.084 -0.0293  0.1907  0.0756
 9490W        W27694  16.953   5.995  13.034 -0.1222 -0.0865 -0.0544
 9491W        W27695   8.585   2.298  15.732 -0.1701  0.0996 -0.0570
 9492W        W27696  13.854   4.408   2.148  0.0520  0.0708 -0.2174
 9493W        W27697   8.220   2.724   2.246 -0.0608  0.0509  0.1551
 9494W        W27698  16.763  12.145   2.363 -0.0098  0.3681  0.3845
 9495W        W27699  15.916  13.355  16.804 -0.0237  0.1258 -0.4687
 9496W        W27700   0.002  15.634   2.032  0.0918  0.0157  0.1766
 9497W        W27701   4.157   4.781  16.240 -0.0634  0.0001 -0.3434
 9498W        W27702   4.923   7.290   2.162 -0.1255  0.2998  0.0799
 9499W        W27703   1.880  17.056  15.142 -0.0296  0.0229 -0.1919
 9500W        W27704   1.345  16.569   0.160 -0.0235 -0.1060  0.2388
 9501W        W27705   6.232   6.670  15.501  0.0087  0.1459  0.1197
 9502W        W27706  16.051   7.684   4.691 -0.1401 -0.1893  0.1475
 9503W        W27707   2.400  14.444   1.138  0.0513  0.0305  0.1275
 9504W        W27708  17.187   3.127  13.117 -0.2209 -0.1672 -0.1102
 9505W        W27709  12.000  16.982   5.188  0.1735 -0.0078 -0.3195
 9506W        W27710   9.876   3.611   4.973  0.0787  0.2082  0.0211
 9507W        W27711   6.925   0.724  13.231 -0.1707 -0.1055 -0.3752
 9508W        W27712   7.670   2.888   5.420  0.0707  0.2940 -0.3340
 9509W        W27713  14.993   9.376  16.255  0.0781 -0.0587 -0.1830
 9510W        W27714   1.411   8.854   3.777 -0.2807 -0.1187  0.3255
 9511W        W27715  13.973   7.888  15.471 -0.1114  0.0649  0.0705
 9512W        W27716   4.371   5.692   4.083 -0.0353  0.3854  0.3410
 9513W        W27717  11.242   1.463  15.295 -0.0156 -0.0367  0.2294
 9514W        W27718   6.976   5.941  11.244  0.0689  0.1365 -0.0494
 9515W        W27719  12.596  12.402   2.233 -0.0237  0.4040  0.0922
 9516W        W27720  10.799  13.546  16.696  0.2481 -0.0601  0.0672
 9517W        W27721   0.198   5.221  13.490  0.0402 -0.0244  0.3712
 9518W        W27722  15.712  11.506  13.632  0.1615 -0.0572 -0.1247
 9519W        W27723   4.815  15.466  16.164 -0.1185 -0.1404  0.1302
 9520W        W27724  10.363  16.340   0.403  0.0131 -0.5065  0.5080
 9521W        W27725  14.295   6.397   1.923 -0.1760 -0.0591 -0.1964
 9522W        W27726  14.772   5.434  14.546  0.1342 -0.0903 -0.1161
 9523W        W27727  12.323  12.130   3.856 -0.0302  0.0929  0.2510
 9524W        W27728  14.400  15.781  16.004  0.1383  0.1782  0.2672
 9525W        W27729  13.516  10.478  12.366  0.0013  0.0854 -0.0588
 9526W        W27730   8.695   4.140   2.197  0.2516 -0.1361  0.1377
 9527W        W27731   4.037  13.001  13.414  0.0795 -0.2154  0.1349
 9528W        W27732   9.486  14.031   4.854  0.0324  0.0422  0.1152
 9529W        W27733   8.659   9.039   2.352 -0.1479  0.0858 -0.0888
 9530W        W27734   7.934  13.185  16.037 -0.2707 -0.1869  0.3637
 9531W        W27735   2.907  14.894   3.741  0.3722  0.0010 -0.0391
 9532W        W27736  10.025   9.650   3.045  0.1740 -0.1751 -0.0166
 9533W        W27737  16.013  12.326   2.895 -0.0396 -0.2058 -0.2877
 9534W        W27738   8.607   7.592   3.315 -0.1361  0.0625 -0.2561
 9535W        W27739   1.587  12.363  13.270  0.3137 -0.2088  0.1994
 9536W        W27740   7.790  11.857  15.596  0.0475  0.2159 -0.0757
 9537W        W27741   7.914   4.663   1.744  0.1713 -0.0362  0.0053
 9538W        W27742   4.311  15.368   5.292 -0.3571 -0.1820  0.0420
 9539W        W27743   9.295   8.173   2.227 -0.0051  0.0174  0.3805
 9540W        W27744   1.974   8.411   4.600  0.0923 -0.1170 -0.0295
 9541W        W27745   0.696   8.752   2.209  0.0146 -0.1036  0.2274
 9542W        W27746   0.022   7.635  14.705 -0.2645 -0.1465 -0.1391
 9543W        W27747   7.701  14.238   2.971 -0.2286  0.0963 -0.3676
 9544W        W27748   7.288  11.696  14.882 -0.0052 -0.2243 -0.0057
 9545W        W27749  14.063   6.333  16.862 -0.0313  0.0163  0.0646
 9546W        W27750   2.269   9.735   5.240  0.0290 -0.3472  0.1043
 9547W        W27751  11.842   6.329  12.072 -0.0040 -0.1626 -0.0659
 9548W        W27752   2.788   5.689  12.717 -0.0888 -0.2653  0.1170
 9549W        W27753   3.797  16.958   3.403 -0.2910  0.0112 -0.0499
 9550W        W27754   7.230  12.202   4.216  0.3269 -0.1539 -0.0476
 9551W        W27755   2.517   3.356   4.833  0.2574  0.0941 -0.2620
 9552W        W27756  10.020   9.487   1.135  0.1324  0.2982  0.0964
 9553W        W27757   8.860   4.386  14.497  0.1036  0.0701 -0.1354
 9554W        W27758   4.105  11.839   0.406  0.0004  0.1832  0.1427
 9555W        W27759  15.332  11.124   0.854 -0.1300  0.1162  0.0739
 9556W        W27760   0.542  12.596  16.461  0.0353  0.2518 -0.3417
 9557W        W27761  13.899   4.392   3.465  0.0926  0.1146 -0.0109
 9558W        W27762   5.252  13.553  14.022  0.0705 -0.0691  0.1958
 9559W        W27763  11.799   4.124   2.233 -0.1270 -0.0313 -0.0484
 9560W        W27764   2.483  14.274   5.454  0.0326 -0.2189  0.1953
 9561W        W27765  14.225   7.395   0.327 -0.1408 -0.3866  0.1358
 9562W        W27766   4.153   5.824  15.572  0.3000  0.1416  0.0528
 9563W        W27767   9.487   7.709  16.479 -0.0726  0.0244 -0.0741
 9564W        W27768   6.529   6.919   4.646 -0.0715 -0.0505  0.1741
 9565W        W27769   8.466  15.310  16.083 -0.4000 -0.0182  0.0600
 9566W        W27770  13.652   6.983  17.290  0.1589 -0.0405 -0.0084
 9567W        W27771  11.695   7.120  16.630 -0.1199  0.3343 -0.3749
 9568W        W27772   1.216   1.138  16.277  0.1310  0.0754  0.0813
 9569W        W27773   5.391   1.814  16.163 -0.2050  0.0820 -0.3813
 9570W        W27774  11.565   3.705   1.273 -0.0469  0.0728 -0.1645
 9571W        W27775   7.548   6.492  12.810 -0.0864  0.2514  0.2541
 9572W        W27776  16.473   2.457   4.376  0.3284 -0.1384 -0.0641
 9573W        W27777  13.647   4.855   4.089 -0.2511  0.3044 -0.0699
 9574W        W27778   8.343   2.318   0.268 -0.0048  0.2481 -0.1180
 9575W        W27779   5.056  14.943   2.185 -0.0242 -0.0414  0.0590
 9576W        W27780  16.067   9.231   5.347 -0.0892 -0.0336  0.1512
 9577W        W27781   8.969  11.467   2.037  0.3931  0.2193 -0.0122
 9578W        W27782   7.020   3.924  17.040  0.1066  0.2716  0.2060
 9579W        W27783   0.440   1.315  14.913  0.0292 -0.2113 -0.5251
 9580W        W27784   8.970   1.553   0.275  0.1784  0.4326 -0.2167
 9581W        W27785  16.447  16.024   0.759 -0.0581 -0.2022 -0.0302
 9582W        W27786   2.404   8.547  14.279  0.1883  0.0504  0.1890
 9583W        W27787   2.393   3.607  14.591  0.1462 -0.2814 -0.0907
 9584W        W27788  16.604  11.306   0.124 -0.1397  0.0960  0.2165
 9585W        W27789  14.616   8.467   0.615  0.1509  0.1289 -0.1493
 9586W        W27790   4.728  15.557  13.775  0.0944  0.1014  0.1523
 9587W        W27791  16.595  14.945  13.250  0.0635  0.2106 -0.3089
 9588W        W27792   4.067  10.590   4.254  0.0610  0.0980  0.1945
 9589W        W27793   5.019  13.199  16.545  0.2019 -0.2356  0.0683
 9590W        W27794   7.521  17.036  17.068  0.0418  0.0554  0.0350
 9591W        W27795   8.667   3.751   5.451  0.2332  0.0872  0.1715
 9592W        W27796  13.977  13.974   3.481 -0.0147  0.0298 -0.1002
 9593W        W27797   4.536   0.956   1.228  0.0103  0.0997 -0.0688
 9594W        W27798   2.049  10.217  13.593  0.2878  0.0383  0.3032
 9595W        W27799   4.043   4.168  12.726  0.0008 -0.1149  0.2095
 9596W        W27800   6.292   5.424  16.016  0.0429 -0.0053  0.2734
 9597W        W27801   3.967  10.826   3.276  0.1792  0.0094  0.1058
 9598W        W27802   0.995   2.754   1.872  0.1754  0.0532 -0.2372
 9599W        W27803   4.786  10.948   4.652 -0.1745  0.1035 -0.0593
 9600W        W27804  14.133  12.288   1.437  0.0192  0.3022 -0.3072
 9601W        W27805   9.946  13.530   2.886  0.0172 -0.1849 -0.2566
 9602W        W27806   3.971  14.342   1.767  0.3282  0.1955  0.0769
 9603W        W27807   3.523   8.438   0.081 -0.1426  0.1951  0.0597
 9604W        W27808   6.416   8.669   3.938  0.3591  0.2351 -0.2290
 9605W        W27809   9.957   0.541  16.139  0.1086 -0.2156  0.0575
 9606W        W27810  14.519   9.943   1.689 -0.1229 -0.2203 -0.0558
 9607W        W27811  17.100   1.359  13.027 -0.1005 -0.2009 -0.1210
 9608W        W27812  13.855  15.582   4.494  0.2490 -0.0848 -0.0543
 9609W        W27813   5.016   6.178   1.512 -0.3523  0.1485 -0.0830
 9610W        W27814   6.453   1.495   2.823  0.0520 -0.2001 -0.0440
 9611W        W27815  12.019   6.085  14.561  0.1246  0.0017  0.1577
 9612W        W27816  13.292   3.573  16.460 -0.2488 -0.1219 -0.1929
 9613W        W27817  10.703   9.603   3.109  0.2420 -0.0405 -0.1366
 9614W        W27818  12.522   4.345  13.749  0.0067  0.0414 -0.1654
 9615W        W27819  16.287  10.442  15.710  0.0547  0.2221  0.4784
 9616W        W27820   2.896  14.235  14.333 -0.2278 -0.3162  0.1402
 9617W        W27821  17.131   4.267  12.384  0.0510 -0.0940  0.0043
 9618W        W27822  15.099  16.378  15.584 -0.0719  0.0518 -0.0133
 9619W        W27823  14.418   3.057  16.620 -0.0612 -0.0104 -0.1041
 9620W        W27824   3.255   5.855  14.831 -0.0475  0.0054  0.2620
 9621W        W27825   3.493   3.279   4.218  0.0293 -0.0175  0.0115
 9622W        W27826   9.167   4.916  17.193  0.0009  0.1374 -0.0870
 9623W        W27827   6.370   2.131  14.307 -0.1964  0.2099 -0.1172
 9624W        W27828   9.121  11.090  16.876  0.0181  0.0351  0.1427
 9625W        W27829   8.916   7.714  15.707  0.0734  0.3160  0.0311
 9626W        W27830   9.412  12.778  16.217  0.1133 -0.0017 -0.3058
 9627W        W27831   3.163   7.744   4.115 -0.2565  0.1297 -0.0249
 9628W        W27832  15.843   8.039  12.914  0.0216 -0.0548  0.0030
 9629W        W27833  16.703  17.033   3.809  0.0124  0.0766  0.3769
 9630W        W27834   3.754  16.824   0.605  0.0882 -0.2494  0.3140
 9631W        W27835  14.007  15.693   0.538 -0.0450 -0.3226  0.1705
 9632W        W27836   5.182   4.449   3.850  0.0552  0.0080 -0.0113
 9633W        W27837  10.119   5.539   2.508 -0.1450  0.1717  0.1014
 9634W        W27838  15.971   7.756  12.516  0.1991  0.0849 -0.0944
 9635W        W27839  14.981  10.914   2.994  0.1517  0.0456 -0.0532
 9636W        W27840  13.547  11.320   2.048 -0.1569  0.1318 -0.1681
 9637W        W27841   4.522  15.611   0.352  0.1411  0.1323 -0.3416
 9638W        W27842  13.466  15.835  13.177 -0.2480 -0.2545 -0.0943
 9639W        W27843  15.555  16.388  12.895  0.2362 -0.2687  0.2404
 9640W        W27844   1.789   1.810  13.128 -0.0362 -0.3156  0.0185
 9641W        W27845   0.102   0.669   2.051  0.0630 -0.0720  0.1274
 9642W        W27846   5.657   1.616  17.347 -0.1780  0.0747  0.3302
 9643W        W27847   8.571  11.198   1.184  0.2885  0.2349 -0.0983
 9644W        W27848  13.998   2.092   4.050  0.2627  0.2366  0.1607
 9645W        W27849   4.739  14.813   0.204 -0.0682 -0.1221  0.0919
 9646W        W27850   2.981  13.542   3.381  0.3314  0.0109 -0.1028
 9647W        W27851  10.839  13.069  17.061  0.0158 -0.1435  0.0353
 9648W        W27852   1.351   0.290  13.711  0.0997 -0.2114  0.1242
 9649W        W27853   8.242   5.947   0.761 -0.0552  0.0155  0.0676
 9650W        W27854   5.941   8.235   4.555 -0.1289  0.1303 -0.1430
 9651W        W27855   5.615   8.972   4.255  0.1535 -0.3196  0.0007
 9652W        W27856   7.979  11.829   5.482 -0.3176  0.0356 -0.2967
 9653W        W27857   9.637  13.748  14.583 -0.1678 -0.1327  0.0939
 9654W        W27858   8.415  14.498  15.061  0.0425  0.0483 -0.0060
 9655W        W27859   1.326  15.371   2.602 -0.0826  0.0226 -0.1209
 9656W        W27860   6.466   4.602  12.983  0.1797  0.0558  0.0248
 9657W        W27861   7.455  12.096   1.358 -0.2036  0.2225  0.0139
 9658W        W27862  13.244  10.454   0.593 -0.2584 -0.0770 -0.0147
 9659W        W27863  14.352  14.635  12.955  0.1041  0.0893  0.1708
 9660W        W27864   9.014   9.932  11.622 -0.3112 -0.0960 -0.1387
 9661W        W27865  12.571   7.716  12.720  0.0109 -0.2670 -0.3870
 9662W        W27866   2.411   9.940  15.860  0.1605  0.1099  0.0993
 9663W        W27867  17.005   7.113  12.529 -0.0897 -0.1344 -0.1882
 9664W        W27868   5.230   5.320   3.893 -0.0530 -0.2949 -0.3583
 9665W        W27869   2.159   0.964  12.269 -0.1620 -0.0006  0.1468
 9666W        W27870  11.398  14.830  11.876  0.3709  0.1451  0.0346
 9667W        W27871   2.150  16.181  12.848 -0.0663  0.3269 -0.0120
 9668W        W27872   6.581  17.026   3.843 -0.0245 -0.3941  0.1458
 9669W        W27873  14.355   4.678  16.146 -0.0466  0.0852 -0.0355
 9670W        W27874   9.152   8.576   0.848 -0.4312  0.0772  0.1258
 9671W        W27875   4.818   3.140  12.419 -0.1100  0.2822 -0.0707
 9672W        W27876   9.939  15.783  16.119 -0.0241 -0.4365  0.0265
 9673W        W27877  14.173   1.530  14.974  0.1845  0.1153  0.2348
 9674W        W27878  13.083   1.352  12.567 -0.1766 -0.0557  0.2401
 9675W        W27879   4.473  10.544  12.206  0.2169 -0.0910 -0.1302
 9676W        W27880   0.890   8.942  14.723  0.0490  0.0632  0.0860
 9677W        W27881   1.520   0.717   1.892 -0.0157 -0.0367 -0.2947
 9678W        W27882   6.016   8.351   2.093  0.0212  0.1055  0.0598
 9679W        W27883  14.381   4.951   2.147 -0.0846 -0.2038 -0.0216
 9680W        W27884  11.166  12.720   1.416  0.2788 -0.0480 -0.0255
 9681W        W27885  14.415  15.681  15.008 -0.1677  0.1858  0.1278
 9682W        W27886   4.367  10.301  15.789 -0.0317  0.2965  0.1994
 9683W        W27887   9.714   9.759  12.881 -0.2043 -0.1759 -0.2311
 9684W        W27888   7.287  15.437  16.819  0.2060 -0.0522  0.0182
 9685W        W27889  10.695  10.921  16.915 -0.0576  0.0959  0.2769
 9686W        W27890   6.643   4.300  14.724  0.1125 -0.1135  0.1577
 9687W        W27891   7.122  11.895   1.781  0.1269 -0.0630  0.2279
 9688W        W27892   4.452   6.891  16.653 -0.4244 -0.1855 -0.3560
 9689W        W27893   7.227  16.780   1.827 -0.2000 -0.2569  0.0186
 9690W        W27894  12.589   0.338  14.593 -0.1329 -0.3436  0.2061
 9691W        W27895   8.174  16.534  16.435 -0.1177  0.1932 -0.0798
 9692W        W27896  16.666  16.681  16.320 -0.0279 -0.0772 -0.4994
 9693W        W27897   3.435   3.459   2.676  0.1936 -0.1117 -0.3605
 9694W        W27898   3.791  12.394   3.722  0.0252 -0.0699  0.1873
 9695W        W27899   8.216   1.212   3.579  0.0542  0.0427 -0.0935
 9696W        W27900   9.340   0.457   1.385  0.3987 -0.3180  0.2061
 9697W        W27901   6.605  16.712   2.612  0.0554  0.1862  0.0952
 9698W        W27902  16.561   6.757  16.895  0.0782  0.1805 -0.0400
 9699W        W27903   6.165   9.351   0.234  0.2124 -0.2304 -0.0567
 9700W        W27904   0.442   0.132  16.472 -0.0746 -0.1813  0.0864
 9701W        W27905  17.257   7.365  15.291 -0.0257  0.2875  0.2009
 9702W        W27906   8.112   9.872   0.437 -0.0688 -0.1115  0.1736
 9703W        W27907  16.460   0.860   4.456 -0.2086  0.1895  0.4435
 9704W        W27908  14.460   8.691   3.475 -0.3018 -0.1020  0.0211
 9705W        W27909   8.284   3.679   0.765  0.2604  0.0524  0.1001
 9706W        W27910   7.479  15.079  13.884 -0.0659  0.0305  0.3258
 9707W        W27911   5.052  14.178  16.974 -0.0807  0.1774  0.1436
 9708W        W27912  12.438  10.004  13.401  0.1634 -0.1189 -0.0033
 9709W        W27913   7.611  10.817   0.021 -0.2715  0.0815  0.0757
 9710W        W27914   4.636  11.406  15.749  0.1048 -0.0222 -0.1147
 9711W        W27915   0.529  11.247   2.982  0.2173  0.2409 -0.1865
 9712W        W27916   2.056  16.290   0.679  0.1607 -0.0226  0.1004
 9713W        W27917   5.603  15.092  14.965 -0.3000 -0.0948 -0.2810
 9714W        W27918   7.598   6.358   1.550 -0.1871  0.0226  0.1408
 9715W        W27919   3.311   5.944   0.133  0.0985 -0.1884  0.1228
 9716W        W27920  13.466   1.472  17.259 -0.0569  0.0700  0.2921
 9717W        W27921  13.648   3.413  14.651  0.1750  0.4096 -0.2587
 9718W        W27922  16.515   1.706  16.175 -0.0825 -0.0369 -0.3540
 9719W        W27923   8.155  12.640  12.589  0.0824 -0.0661 -0.1211
 9720W        W27924  15.888  11.988   6.312 -0.0981 -0.0221  0.0721
 9721W        W27925  14.588   1.326   0.484  0.0210 -0.4415  0.1398
 9722W        W27926  10.256   9.550  15.491 -0.1861 -0.1848  0.2176
 9723W        W27927  13.497   4.688   4.654 -0.0561 -0.3446 -0.2499
 9724W        W27928   6.332   9.108  14.283 -0.0511 -0.1868  0.0991
 9725W        W27929  16.679  12.056   0.644 -0.0086  0.0748  0.1452
 9726W        W27930  15.150  16.675   0.716 -0.2651  0.1134 -0.1198
 9727W        W27931   7.640   6.025  15.996  0.1665  0.0253  0.2737
 9728W        W27932   0.749   4.848   2.379  0.2280 -0.3981 -0.0423
 9729W        W27933   0.420  12.789  12.405  0.1312  0.0289  0.0810
 9730W        W27934  16.199  16.826  14.121  0.1521  0.3143  0.1140
 9731W        W27935   6.692   1.716   2.199 -0.0861 -0.1590 -0.0311
 9732W        W27936  17.276  14.064  13.688 -0.0263 -0.0147  0.0470
 9733W        W27937   6.124  15.416  12.637  0.2420 -0.1366  0.1374
 9734W        W27938   4.400   4.992   1.965  0.0440  0.0607  0.1764
 9735W        W27939   1.801   4.313  15.953 -0.2191  0.2048 -0.1788
 9736W        W27940  11.762   9.622   0.228  0.0714  0.1433  0.1956
 9737W        W27941  14.329   9.141   5.667 -0.0448 -0.0301  0.2982
 9738W        W27942  14.690  13.869  14.678 -0.1399 -0.0518 -0.0319
 9739W        W27943  15.603  11.988   4.137  0.0858 -0.1003  0.0605
 9740W        W27944  14.482  14.975  16.696  0.1093  0.2964  0.0211
 9741W        W27945   3.708  11.676  13.273  0.2765 -0.0307  0.2766
 9742W        W27946   2.175  11.926   1.836  0.0183  0.4407  0.2475
 9743W        W27947  14.348  14.006  16.621  0.1908 -0.2153  0.1401
 9744W        W27948   0.269   1.208  17.157  0.1074 -0.0391  0.0694
 9745W        W27949  11.412  13.567   0.398  0.1829 -0.0063 -0.0686
 9746W        W27950  10.681   5.708   1.905  0.1551 -0.1016  0.1013
 9747W        W27951  11.423  15.738   2.189 -0.1074  0.0471 -0.4209
 9748W        W27952   4.809   1.003  14.871 -0.2731 -0.0005  0.4311
 9749W        W27953   0.231   9.254  16.782 -0.0204 -0.0527 -0.2036
 9750W        W27954   1.719  15.941   3.536  0.1077 -0.1952 -0.0007
 9751W        W27955   7.990   6.830  15.036  0.0606  0.3618  0.1346
 9752W        W27956   8.163  12.591   0.204  0.1621  0.3272  0.0287
 9753W        W27957  17.029   9.692  15.462 -0.1636 -0.0671 -0.1485
 9754W        W27958  17.190   6.315  17.403 -0.0022  0.1945 -0.3987
 9755W        W27959   9.906   2.190  14.797  0.0595 -0.2592 -0.0317
 9756W        W27960  16.214   6.795   0.844 -0.1858 -0.3982  0.0995
 9757W        W27961   3.591   3.739   3.341 -0.1041  0.1317 -0.4025
 9758W        W27962   4.918   8.342   4.039  0.1241 -0.1499  0.0517
 9759W        W27963   3.853   6.600  15.067  0.0677  0.0360 -0.0745
 9760W        W27964   1.203   5.172  13.553 -0.0032  0.0300 -0.3227
 9761W        W27965  11.032   6.795  13.846  0.3846  0.0318  0.0147
 9762W        W27966   7.115  15.769   3.342 -0.1408 -0.2136 -0.0545
 9763W        W27967  13.297  16.370   1.014 -0.1098 -0.0831  0.1475
 9764W        W27968  15.108  12.606  15.912  0.0073 -0.1563  0.2773
 9765W        W27969   7.432   3.124  15.614 -0.2357  0.1848 -0.2090
 9766W        W27970   5.295  15.147  14.553  0.0519 -0.0350  0.0078
 9767W        W27971  14.207  12.350  14.097  0.0854  0.1161  0.0275
 9768W        W27972   6.382  12.084   3.856  0.0644 -0.0726  0.0703
 9769W        W27973   0.025  12.690   4.770 -0.3480  0.2412 -0.3992
 9770W        W27974  15.971  10.290   0.502  0.0353  0.1698  0.1717
 9771W        W27975  12.692   4.403  15.769 -0.2718 -0.0208  0.0500
 9772W        W27976   8.574  16.502   1.426  0.3504 -0.1719 -0.1971
 9773W        W27977   8.600   1.958   4.727 -0.0743 -0.1881  0.1307
 9774W        W27978   5.355  11.129  16.244  0.0223 -0.1654  0.1336
 9775W        W27979   4.075   4.631   0.541  0.0209 -0.1064 -0.1030
 9776W        W27980   9.257  15.077   2.744  0.2324  0.3333 -0.2733
 9777W        W27981   7.983   6.697  14.085  0.0724 -0.0609 -0.2267
 9778W        W27982  10.425   8.964  14.713  0.2279 -0.0495  0.0117
 9779W        W27983  12.826   7.289  11.921 -0.0280  0.0747 -0.0879
 9780W        W27984   3.191   7.297  12.999  0.0914  0.1812 -0.1508
 9781W        W27985   6.550  16.109   4.178  0.0197 -0.1749 -0.0649
 9782W        W27986   8.719  13.318  14.474 -0.2915  0.0071  0.2994
 9783W        W27987   0.350   0.915  12.775 -0.2697  0.0881 -0.1034
 9784W        W27988  13.251  14.446  13.555  0.0961  0.0894  0.0492
 9785W        W27989   3.416  15.572  17.133  0.2108  0.2015 -0.1510
 9786W        W27990   7.012   2.129  13.805  0.3636 -0.1349  0.1393
 9787W        W27991  16.530  12.185  16.234 -0.0779 -0.0151 -0.1215
 9788W        W27992  13.253   3.149   2.529 -0.2438  0.1560 -0.1078
 9789W        W27993   2.354   1.593   3.107  0.0475 -0.1383  0.2283
 9790W        W27994   9.918  12.638   2.901  0.3322 -0.1118 -0.2084
 9791W        W27995   0.306  10.818   3.773 -0.2816 -0.0801  0.0594
 9792W        W27996  16.846  14.281  13.441  0.1400 -0.0660  0.1002
 9793W        W27997   3.586   4.003   1.624  0.2147  0.1765  0.0562
 9794W        W27998  17.218   6.177   0.494 -0.1277  0.2571  0.0178
 9795W        W27999   1.107   0.885  12.931  0.0572  0.1730 -0.2478
 9796W        W28000  15.595   2.936   4.839 -0.1342 -0.2585  0.1159
 9797W        W28001   8.062   3.636  14.078 -0.1168 -0.0442 -0.2438
 9798W        W28002   9.445  14.296   4.264 -0.0897 -0.1524  0.2252
 9799W        W28003   8.429   3.139  15.040 -0.0611 -0.1014  0.0068
 9800W        W28004  10.422  13.390   2.583  0.1574 -0.0199  0.1643
 9801W        W28005  12.259   6.431  16.297  0.2034  0.1685  0.0747
 9802W        W28006  13.616  11.298  17.161 -0.2798  0.0550 -0.0989
 9803W        W28007  16.573  15.263  14.889  0.3141 -0.0707 -0.0693
 9804W        W28008  14.750  11.300  16.894  0.1612 -0.2381  0.1284
 9805W        W28009  12.505  10.640   4.384  0.0568 -0.1981  0.0435
 9806W        W28010   7.369   9.039  12.995  0.1215  0.1269 -0.1088
 9807W        W28011   1.106   4.189   5.118 -0.1413  0.1259 -0.0285
 9808W        W28012  13.602   4.109   3.093  0.0976 -0.1607 -0.1881
 9809W        W28013   0.129  17.151  14.401 -0.0368 -0.1130 -0.2107
 9810W        W28014  16.883  10.746  14.850 -0.1279 -0.0278 -0.1772
 9811W        W28015   0.635  13.296  14.485 -0.1296 -0.0656  0.1277
 9812W        W28016  15.516  11.019  17.099  0.1703 -0.0114  0.0782
 9813W        W28017   8.857   3.272  13.983 -0.3914  0.1553  0.0047
 9814W        W28018  12.407  14.783  15.663 -0.3980 -0.1543 -0.1693
 9815W        W28019  13.749   7.763   4.769  0.0478  0.0543  0.0798
 9816W        W28020   3.273   4.779  13.633 -0.0315 -0.2145 -0.1274
 9817W        W28021   2.236  12.992  17.269  0.0529  0.1378  0.0707
 9818W        W28022   0.107   4.140   0.281 -0.2641  0.3013 -0.0291
 9819W        W28023   7.068   8.492   0.447 -0.0332  0.1359  0.3136
 9820W        W28024   1.050  17.119   1.583 -0.1106  0.1155 -0.1159
 9821W        W28025  12.882   4.993  15.984  0.0690  0.0727 -0.1051
 9822W        W28026   0.348   2.378  17.187  0.3506 -0.2187 -0.1923
 9823W        W28027  14.424   0.894  17.454 -0.0114 -0.3495 -0.2371
 9824W        W28028   6.908  11.962   3.040 -0.2308 -0.1682 -0.2099
 9825W        W28029   1.919  16.447  15.107 -0.1842  0.3375 -0.0188
 9826W        W28030   3.842  16.454   3.096  0.1894 -0.0401 -0.0098
 9827W        W28031   2.237  15.461  15.379  0.0125  0.0476  0.0164
 9828W        W28032  17.032   6.102  14.111  0.0646  0.0992  0.1504
 9829W        W28033   2.907   7.785  16.336  0.3462 -0.1097 -0.2147
 9830W        W28034   9.825   2.812   2.556  0.3012  0.2957  0.2573
 9831W        W28035   4.228  13.096  14.795  0.1360 -0.3382  0.0929
 9832W        W28036   1.220  11.155   6.570 -0.0191 -0.0059 -0.2844
 9833W        W28037  13.415   9.787   4.403 -0.1797  0.0009  0.0570
 9834W        W28038  10.836  11.924  17.260  0.2933  0.3728  0.0481
 9835W        W28039  11.101  14.449   2.490  0.0828 -0.2555  0.1613
 9836W        W28040  13.713   4.300  13.385 -0.0059 -0.2011  0.1649
 9837W        W28041  11.640  16.902   1.237 -0.3201  0.4891  0.2368
 9838W        W28042  12.364   2.267   4.342  0.0287  0.3207 -0.0128
 9839W        W28043   4.290   2.852  12.909  0.1654  0.2616  0.1138
 9840W        W28044  13.979   5.520  14.490  0.0395 -0.1445  0.2497
 9841W        W28045  16.307   3.471  17.323 -0.3224 -0.2052  0.2022
 9842W        W28046  10.339  12.294  12.991 -0.1032 -0.0200  0.0258
 9843W        W28047   7.324  11.931   5.111  0.0374 -0.0385 -0.1995
 9844W        W28048  13.064   1.624   1.579  0.0087  0.0135 -0.0526
 9845W        W28049   7.021  13.850   4.456  0.0468 -0.2874 -0.0425
 9846W        W28050   6.240   6.525  16.106  0.3021 -0.1378 -0.0450
 9847W        W28051   6.625  12.392  13.595  0.1003 -0.0706 -0.1974
 9848W        W28052  13.396  17.238   2.388  0.1083  0.0554 -0.2295
 9849W        W28053   3.944   8.915   4.957 -0.1600 -0.1425  0.0380
 9850W        W28054   5.305  14.990   5.345  0.2225  0.0954  0.0078
 9851W        W28055   7.219  12.720  13.553  0.0320  0.2727  0.2919
 9852W        W28056   3.701   1.805   4.593  0.1971 -0.0920  0.1902
 9853W        W28057  15.311   4.397   1.085 -0.1364 -0.2887 -0.3118
 9854W        W28058  14.314  10.323  11.612 -0.0580  0.3518  0.4029
 9855W        W28059   8.793  15.297   4.806 -0.1665  0.1090  0.0373
 9856W        W28060  16.154   9.434  16.922  0.1157 -0.0618 -0.1330
 9857W        W28061  12.775  11.236   5.191  0.1219  0.0300 -0.0791
 9858W        W28062   5.880   3.929  14.640 -0.0808 -0.1614  0.3639
 9859W        W28063  10.755  16.916  17.349 -0.2023  0.0985 -0.0173
 9860W        W28064  15.299   3.293   5.097 -0.3972  0.2591  0.3292
 9861W        W28065   3.320   3.798  13.135 -0.4363 -0.1341 -0.0396
 9862W        W28066   1.000  14.051   2.650  0.1388 -0.2019 -0.1706
 9863W        W28067  16.332  13.448   5.058 -0.4698  0.0548 -0.0647
 9864W        W28068  10.748   5.082   3.672 -0.3011 -0.1978  0.1935
 9865W        W28069   5.502   1.378   0.657 -0.2437 -0.2403 -0.1450
 9866W        W28070   0.728   4.656  12.147  0.3532  0.0029 -0.1360
 9867W        W28071   8.708  11.707  13.467  0.0875 -0.1286 -0.1018
 9868W        W28072  11.162   7.974  13.220 -0.0345  0.1816  0.0574
 9869W        W28073   2.441  10.952  11.827  0.0929  0.1892  0.0294
 9870W        W28074   5.118   3.614  13.350 -0.1460  0.0265 -0.1893
 9871W        W28075  10.001   4.032  14.207 -0.3509  0.3559  0.1686
 9872W        W28076  15.302  12.452   5.170  0.0609 -0.3393  0.1380
 9873W        W28077  14.829   4.742  16.932 -0.0782  0.1683  0.0599
 9874W        W28078  12.384  14.586   2.097 -0.0967 -0.1114  0.0331
 9875W        W28079  14.391  14.175  17.077 -0.0204  0.2722 -0.0218
 9876W        W28080   2.603  10.559  12.454  0.1847  0.1547 -0.1782
 9877W        W28081  11.245   5.074   1.227  0.0898 -0.3243  0.0990
 9878W        W28082   9.067   5.089  15.410 -0.1404  0.0559 -0.1003
 9879W        W28083   8.545   7.593   5.303  0.1120 -0.1807 -0.4592
 9880W        W28084   7.104   7.623  12.037  0.0351 -0.1602  0.1902
 9881W        W28085   7.934  13.675   3.390 -0.1458 -0.2522  0.0241
 9882W        W28086   0.495  10.788   1.919 -0.0716 -0.1067 -0.3196
 9883W        W28087   6.326   9.982   4.460  0.2746 -0.0572 -0.0240
 9884W        W28088   0.692  15.134   2.564  0.0583 -0.2136 -0.0684
 9885W        W28089   7.908   7.191  14.136 -0.0605 -0.1076  0.1061
 9886W        W28090   2.453   0.615   4.238 -0.0059 -0.3296  0.2577
 9887W        W28091   7.921   0.301   4.381  0.1899 -0.1476  0.0061
 9888W        W28092   1.241   7.833   3.071  0.0577  0.2948 -0.2004
 9889W        W28093   6.872   0.030  14.038 -0.2549  0.0937 -0.1440
 9890W        W28094   5.440   9.062  14.428  0.1000 -0.1903  0.2493
 9891W        W28095  11.692   6.077  16.535  0.2542 -0.3904  0.0230
 9892W        W28096  12.130  12.122   3.360  0.0349 -0.2491 -0.1307
 9893W        W28097  16.598  12.095  12.655  0.0549 -0.0964 -0.0788
 9894W        W28098  14.601   5.954   3.968  0.2783 -0.2191 -0.2051
 9895W        W28099   2.970  12.194   3.804 -0.0148  0.0001 -0.0719
 9896W        W28100  14.500   9.811   4.849 -0.0611 -0.2261 -0.0443
 9897W        W28101  16.626   2.214  15.874  0.1065  0.0350  0.1434
 9898W        W28102  13.717   2.933  16.698 -0.0047  0.0270 -0.1441
 9899W        W28103   6.312   9.216  14.987 -0.0894  0.0083  0.0873
 9900W        W28104  10.927   1.648   4.819  0.0702 -0.3828 -0.1557
 9901W        W28105   6.190   1.914   1.941 -0.0536  0.0148 -0.3663
 9902W        W28106  11.879  14.873   5.170  0.2027 -0.0016 -0.0238
 9903W        W28107  17.157  14.763  14.385 -0.0200 -0.0357 -0.0450
 9904W        W28108  13.441  11.503   4.539 -0.1334 -0.1706 -0.0357
 9905W        W28109   0.896   2.018   5.240  0.0731 -0.0853  0.0732
 9906W        W28110   5.566  12.830  14.119 -0.0581  0.0902 -0.1108
 9907W        W28111   4.929  10.881  13.809 -0.0795  0.4213 -0.0353
 9908W        W28112   1.470   1.834  14.970  0.0347 -0.0872 -0.0301
 9909W        W28113  13.302  14.471  16.921 -0.0625  0.2489 -0.1947
 9910W        W28114  12.124   6.278  16.756  0.0458 -0.2494 -0.3249
 9911W        W28115   4.970   7.408   0.753 -0.1144 -0.0103  0.2597
 9912W        W28116   8.170   3.036  11.501 -0.1826 -0.0332 -0.0710
 9913W        W28117   5.381   7.431  12.382 -0.0665  0.0223  0.0649
 9914W        W28118   0.427   9.050  14.988  0.0879 -0.3836  0.0498
 9915W        W28119   8.577  16.762  16.263 -0.0547 -0.0706 -0.1836
 9916W        W28120  13.100  12.637  12.300  0.0150 -0.0141  0.0903
 9917W        W28121   1.581   5.743  11.702  0.0206  0.1576 -0.0350
 9918W        W28122  15.625  14.682  13.792 -0.0591 -0.0422  0.3405
 9919W        W28123  16.123   4.895  12.960  0.0838 -0.0771  0.0821
 9920W        W28124  10.764  12.510  14.923  0.2863  0.0467  0.1734
 9921W        W28125   5.722  11.211   0.461  0.3183 -0.1503  0.0500
 9922W        W28126   1.464  16.321   2.034  0.0097  0.1218 -0.2959
 9923W        W28127   1.472   7.503  12.657 -0.1967 -0.3409 -0.1709
 9924W        W28128   6.590   0.074  13.217 -0.0019 -0.2648  0.0370
 9925W        W28129   6.972   9.341  14.738  0.1083  0.1771 -0.0245
 9926W        W28130   9.407   4.267   1.117 -0.1563 -0.1916 -0.3809
 9927W        W28131   6.392   0.050  12.738  0.0500 -0.1208  0.3737
 9928W        W28132   1.601  15.130   5.289  0.1045  0.0188 -0.0899
 9929W        W28133   0.621  12.614   2.414  0.0762  0.1454 -0.0497
 9930W        W28134   0.472  15.589  15.335 -0.2281 -0.0828 -0.2828
 9931W        W28135   7.971   3.327   3.808 -0.0550  0.1491 -0.2311
 9932W        W28136  12.659   9.622   1.804 -0.3331  0.0326  0.0021
 9933W        W28137   9.500   6.953  15.288 -0.2205  0.0061 -0.1539
 9934W        W28138  12.010   1.010   0.548  0.1657 -0.0794  0.0979
 9935W        W28139  16.346   5.291   3.488  0.1844 -0.0428 -0.2374
 9936W        W28140  10.770  16.918   2.061  0.0373  0.0569 -0.1520
 9937W        W28141  12.504   9.630   4.147  0.1354 -0.3599  0.0778
 9938W        W28142   0.416  16.505  13.828  0.2838 -0.4199  0.0403
 9939W        W28143   3.175  12.977   3.912  0.0299  0.0191  0.0201
 9940W        W28144  13.814  10.026  12.262 -0.1347 -0.1308 -0.1369
 9941W        W28145   3.396  16.974  16.343 -0.0210  0.0368  0.2038
 9942W        W28146  16.025   1.735   2.872 -0.2451 -0.3521 -0.0249
 9943W        W28147   0.666   1.570  13.286  0.1631 -0.0400  0.0726
 9944W        W28148   4.923  13.129   3.991 -0.1853  0.1413 -0.1046
 9945W        W28149   3.821  12.472  16.852 -0.1332  0.2282 -0.1841
 9946W        W28150   8.330   2.035  13.743 -0.2349  0.1071  0.0446
 9947W        W28151   2.211   8.412   3.695 -0.1468  0.0652  0.2841
 9948W        W28152  16.959   9.893   3.800 -0.3987 -0.0089  0.0213
 9949W        W28153   1.466   2.834   4.163 -0.0986  0.1525  0.3121
 9950W        W28154   8.463   3.963   0.358 -0.0145  0.1005 -0.2070
 9951W        W28155  17.343   1.722  15.533 -0.1302  0.3305 -0.0327
 9952W        W28156   2.807   4.202  15.210 -0.0273 -0.3097 -0.0237
 9953W        W28157   9.245   3.810  14.771  0.2186 -0.0696  0.0794
 9954W        W28158  13.631   8.111  14.207  0.0382  0.2126 -0.3805
 9955W        W28159   3.560   5.198  15.391  0.0030 -0.1127  0.1492
 9956W        W28160   8.242  11.693   2.739 -0.0705 -0.0759 -0.0784
 9957W        W28161   5.815   3.509  14.246  0.0157  0.2759  0.1709
 9958W        W28162  16.816  10.733   0.720 -0.0103 -0.1086  0.2208
 9959W        W28163   5.702  13.357  14.714 -0.0510 -0.0061 -0.0820
 9960W        W28164  17.018  10.609  16.194 -0.3481 -0.1531  0.3261
 9961W        W28165   3.861  15.361  14.827 -0.3142  0.0518  0.0533
 9962W        W28166  15.757   4.429  13.792 -0.2143 -0.1988 -0.1705
 9963W        W28167   8.758   5.288   4.980  0.1121  0.0953 -0.3310
 9964W        W28168  10.721  16.520   5.206 -0.0533 -0.0613  0.1294
 9965W        W28169  16.117   4.840  16.193 -0.0465  0.0814  0.0930
 9966W        W28170  12.275   1.361  15.213  0.0477  0.0044 -0.1991
 9967W        W28171   8.023   4.471  16.764  0.1642  0.2038  0.0206
 9968W        W28172  13.498   5.580   1.288 -0.0378  0.1038  0.0771
 9969W        W28173   7.097  13.105  12.654 -0.1093  0.1189 -0.2487
 9970W        W28174   1.170  10.315   2.273 -0.2898  0.2714  0.0171
 9971W        W28175  10.345  12.246   0.607 -0.0771  0.1100  0.0614
 9972W        W28176  15.999   6.871   5.169  0.1183 -0.0055 -0.0474
 9973W        W28177   2.671   7.002   4.745  0.2200  0.0440  0.1299
 9974W        W28178   7.148   2.721   1.414  0.1423  0.0892 -0.1900
 9975W        W28179   5.314   9.841   3.337  0.1272  0.3196 -0.0690
 9976W        W28180  11.553   5.162  15.515  0.1920  0.0314  0.3240
 9977W        W28181  11.967   8.330  13.206  0.0626 -0.3109  0.1927
 9978W        W28182   6.202   5.096   0.419  0.0516 -0.0517  0.0424
 9979W        W28183   5.864  13.689  12.433  0.2633 -0.0705 -0.2029
 9980W        W28184   6.197   8.949   3.566 -0.1167 -0.1783  0.0004
 9981W        W28185  13.310   0.602  13.675  0.1124 -0.2038 -0.1287
 9982W        W28186   5.434  10.763  13.699  0.4318  0.1190  0.2284
 9983W        W28187   8.734   9.692  12.506  0.0518  0.4247  0.2834
 9984W        W28188  14.710  16.818   1.021  0.1196  0.5194  0.0836
 9985W        W28189   7.645   0.779  16.320 -0.0210 -0.0180  0.2919
 9986W        W28190   2.470   6.146   3.452  0.3375  0.1033 -0.0294
 9987W        W28191   9.292  15.109  14.757 -0.1698 -0.1634  0.2217
 9988W        W28192   7.090   4.824   0.042  0.0414  0.0015 -0.0411
 9989W        W28193   4.676   2.465  17.272 -0.0199  0.0943 -0.3011
 9990W        W28194   4.956  12.718  15.211 -0.0167  0.1868 -0.1892
 9991W        W28195   5.821   1.159  15.261 -0.3684  0.0342  0.1743
 9992W        W28196   3.683  15.892  17.516  0.0503  0.1570 -0.0308
 9993W        W28197  15.409   2.546   2.947 -0.0747  0.0993  0.1491
 9994W        W28198  14.803  12.121  16.271  0.1957  0.3819 -0.0309
 9995W        W28199  15.220  16.992  14.833  0.2330  0.2559 -0.0353
 9996W        W28200  16.208   9.512   4.915 -0.1928  0.0672 -0.0081
 9997W        W28201   2.192   8.360  17.463 -0.0470 -0.1487 -0.0047
 9998W        W28202  14.587   0.819  14.437  0.1316 -0.0485 -0.0240
 9999W        W28203   4.278   7.828   4.002 -0.0485 -0.2472 -0.0472
10000W        W28204   1.914  16.330  14.598  0.3086  0.3719  0.1508
10001W        W28205   9.280   1.472  12.931  0.2555 -0.1889  0.2298
10002W        W28206   0.590   4.259  14.633  0.0580 -0.0663 -0.2717
10003W        W28207  10.936  15.581  16.115 -0.2306  0.1400 -0.0852
10004W        W28208  14.850   5.329   2.633  0.2028  0.1412  0.0099
10005W        W28209  10.150   2.209  15.322  0.2568  0.0098  0.0768
10006W        W28210   3.791  12.495  17.403 -0.1756 -0.1862  0.0054
10007W        W28211  15.954  14.867  17.487 -0.0220 -0.1696  0.0624
10008W        W28212  13.132  11.610   0.692  0.0655 -0.2027 -0.3802
10009W        W28213   3.281  15.099   2.833 -0.0550  0.1710 -0.2022
10010W        W28214  16.508  16.202  13.025  0.1274  0.0521  0.0962
10011W        W28215  13.873  12.343  16.262  0.0547 -0.2349 -0.1391
10012W        W28216  15.248  11.330   4.586 -0.2853 -0.0622  0.1129
10013W        W28217   0.916  17.131   1.062 -0.1714 -0.2968  0.0190
10014W        W28218   1.081   0.863  16.674  0.1386 -0.1560  0.1251
10015W        W28219  17.241   5.550  16.797 -0.1473  0.0657 -0.0341
10016W        W28220   8.305   3.858   2.498  0.2801 -0.3519 -0.0192
10017W        W28221  11.710  12.773   0.307 -0.0349 -0.2025  0.1362
10018W        W28222   7.008  16.071   0.391 -0.0756  0.0066 -0.2050
10019W        W28223   4.757   4.599  16.857 -0.3108  0.3253  0.0238
10020W        W28224  11.249  11.191  14.750  0.0125 -0.1644  0.2644
10021W        W28225   2.545   4.786   2.430 -0.2597 -0.0332 -0.3141
10022W        W28226  11.585   2.356   0.856 -0.0940 -0.2189 -0.0587
10023W        W28227   8.967   7.603  16.245  0.0046  0.1296 -0.1719
10024W        W28228   6.932   7.041  16.603 -0.5961 -0.1142 -0.0143
10025W        W28229  11.012   7.828  15.391  0.4468  0.0954 -0.2083
10026W        W28230   1.913   3.430   3.913 -0.2975 -0.2992  0.0668
10027W        W28231   2.211  15.719   2.833  0.0331 -0.0367 -0.0845
10028W        W28232   4.950  12.720  14.710 -0.3460 -0.0085 -0.0845
10029W        W28233  14.031  10.149   2.436  0.0194  0.0042  0.1235
10030W        W28234   7.172   5.098   2.865 -0.3797  0.0005  0.0459
10031W        W28235   4.225  12.882  12.901 -0.1449  0.0080 -0.0497
10032W        W28236   3.073   9.728  14.363 -0.1013  0.2606  0.0411
10033W        W28237  15.359  10.099   4.748  0.5600 -0.0338 -0.0720
10034W        W28238  13.333  11.554   1.638 -0.1454 -0.3023 -0.0025
10035W        W28239  12.486   9.871   5.278 -0.0716 -0.3497  0.0883
10036W        W28240  11.182   9.929   3.855  0.2761  0.0475 -0.2180
10037W        W28241  13.290  12.419   4.789  0.1158  0.0407 -0.0685
10038W        W28242  16.407   0.353   4.312 -0.2069  0.0323 -0.1592
10039W        W28243   5.487   9.911   4.791 -0.0588  0.2264  0.4291
10040W        W28244   1.902  16.727  12.906 -0.1200  0.0813 -0.0238
10041W        W28245  10.615   8.458   1.124  0.1246 -0.0542  0.0245
10042W        W28246  10.576   9.182   2.311 -0.0434 -0.0120  0.0812
10043W        W28247   5.841  12.669  12.921 -0.1541 -0.0758 -0.0449
10044W        W28248  13.857  13.986  16.451 -0.4252 -0.0984 -0.1420
10045W        W28249  12.328  14.368  14.811 -0.1143 -0.0779 -0.0423
10046W        W28250   3.511  16.523   4.434 -0.0030  0.2748  0.0921
10047W        W28251   3.321  11.239  16.171  0.2625  0.1631  0.0233
10048W        W28252   2.824  14.158   5.111  0.1079  0.0602 -0.2805
10049W        W28253   3.172   0.010  15.452  0.0909 -0.3947 -0.1737
10050W        W28254   4.448   4.337  13.541  0.2354  0.2788 -0.5832
10051W        W28255  11.360   8.465  16.564 -0.1020  0.0759 -0.1277
10052W        W28256  14.798   2.587   1.481  0.0390  0.0370 -0.1012
10053W        W28257  14.702   0.886   1.999 -0.2870 -0.1176  0.0592
10054W        W28258  13.456   0.076  12.637 -0.2489  0.1931 -0.2793
10055W        W28259  15.135  12.964  14.842  0.2384 -0.0232 -0.0734
10056W        W28260   1.447   6.973  13.381  0.1592  0.1328 -0.0859
10057W        W28261   6.291  12.792   2.903  0.1764 -0.2084  0.1866
10058W        W28262  11.343   5.051  13.261 -0.0763  0.0080 -0.1629
10059W        W28263  10.617  12.109   0.159 -0.1227 -0.0599  0.2201
10060W        W28264   3.083   6.809  16.322 -0.0277  0.1107 -0.0679
10061W        W28265   0.008   9.352  14.621  0.0919  0.0638 -0.1138
10062W        W28266  12.460   0.855  15.189  0.0282 -0.0730  0.1852
10063W        W28267  13.384   1.642  14.842  0.0390  0.1868  0.1052
10064W        W28268   2.536  14.721  15.185 -0.2034 -0.0125 -0.0110
10065W        W28269   8.380  11.584   0.812 -0.0691 -0.3231 -0.2618
10066W        W28270  15.650   0.481   2.383  0.2982 -0.1054 -0.1400
10067W        W28271  11.635   7.770  13.140 -0.0263  0.0108  0.1442
10068W        W28272  11.889  11.736   3.552 -0.1481 -0.0673 -0.1715
10069W        W28273   7.770   7.321  15.033  0.1815 -0.3598 -0.0165
10070W        W28274   6.735  13.954  13.008 -0.0362 -0.0169 -0.3565
10071W        W28275   5.617   5.823   4.068 -0.1766  0.3450 -0.1016
10072W        W28276   5.487  13.967   4.372 -0.0448 -0.1410  0.0168
10073W        W28277  14.219  10.270   4.570 -0.4046  0.0354  0.0262
10074W        W28278  11.838  11.817  12.454  0.1679  0.1716  0.4742
10075W        W28279   8.247   3.621   5.618  0.1472  0.1644 -0.1098
10076W        W28280   6.539  14.992   4.922 -0.0907  0.0322 -0.2112
10077W        W28281  16.404  15.385   3.536  0.1321  0.1544  0.0345
10078W        W28282   8.115   9.101   5.241  0.2394 -0.0363 -0.0476
10079W        W28283   8.430  12.125   3.044 -0.1163  0.3417 -0.1090
10080W        W28284   2.527   5.312  14.190 -0.2104  0.2300 -0.3164
10081W        W28285   4.442  13.202   2.465  0.0229  0.1835 -0.2280
10082W        W28286  16.860  13.476   6.526  0.1532  0.0393 -0.4609
10083W        W28287  14.054  13.106   0.332 -0.0120  0.1293  0.1201
10084W        W28288  12.636   3.931   2.474  0.0858 -0.1509  0.2489
10085W        W28289  16.614  13.294   4.179 -0.2653  0.2965  0.0374
10086W        W28290   3.390  13.150  16.716  0.5320 -0.0327  0.0531
10087W        W28291  14.553  12.016  15.327 -0.1773  0.2358  0.1374
10088W        W28292  10.892   1.853  15.361  0.1925  0.0197  0.0822
10089W        W28293   6.053   6.406  12.731  0.0845 -0.0544 -0.0734
10090W        W28294   6.562   0.493  12.894  0.3401  0.0281 -0.0308
10091W        W28295  17.173   8.858   1.401  0.2721  0.1660  0.4886
10092W        W28296  16.219   9.191  12.895 -0.0741 -0.0141 -0.1666
10093W        W28297  13.122  15.657   6.702 -0.1646 -0.0522 -0.1618
10094W        W28298   2.807   7.298  11.205  0.4253 -0.0218 -0.1185
10095W        W28299   8.851   8.628   2.065 -0.1764 -0.4450 -0.2495
10096W        W28300  12.836  13.101  13.207 -0.0244 -0.3046  0.3583
10097W        W28301   9.293  14.533  16.270  0.2443  0.1447  0.1218
10098W        W28302   4.317  15.700  13.472 -0.1844 -0.0326  0.2568
10099W        W28303   7.710  13.285  15.596 -0.2989  0.1793 -0.1833
10100W        W28304   2.699  15.849   2.747  0.0963  0.0555 -0.0230
10101W        W28305   1.474   9.335   2.242  0.0658 -0.2011 -0.0195
10102W        W28306   8.721   9.962   2.046  0.0567 -0.2400 -0.0047
10103W        W28307  13.708  16.216  15.014  0.2087 -0.0152  0.0850
10104W        W28308   6.357   7.100  13.149  0.0963 -0.0398 -0.0002
10105W        W28309   2.406  11.013  15.387  0.1657 -0.1720 -0.1172
10106W        W28310  11.983   4.237   1.799 -0.0334  0.2371 -0.1191
10107W        W28311  16.530  16.217   3.182  0.0118  0.0266 -0.1720
10108W        W28312   3.914  16.651  13.847 -0.1436 -0.2550  0.2583
10109W        W28313  17.296   3.473   1.294 -0.0463 -0.2117  0.2609
10110W        W28314  12.997   4.691   1.845 -0.2501 -0.3187  0.3603
10111W        W28315  16.884  14.295   5.360 -0.2934 -0.0993 -0.0732
10112W        W28316   1.667   5.479   3.283 -0.1800 -0.2602 -0.0809
10113W        W28317   9.075   5.537   5.484 -0.2482  0.0000 -0.1877
10114W        W28318   1.937   9.068  12.824 -0.0273  0.1331 -0.1171
10115W        W28319   5.218  10.699  15.985  0.1524 -0.2573 -0.3223
10116W        W28320  16.869  17.334   2.516 -0.1326  0.1225  0.1132
10117W        W28321   6.825  13.666   0.452  0.0612  0.1440 -0.0798
10118W        W28322  16.810   3.144   1.414 -0.1324 -0.1728  0.0005
10119W        W28323   9.835   6.183   3.199  0.0227  0.1801  0.0956
10120W        W28324   0.192   2.965   3.627  0.4839  0.1963  0.0135
10121W        W28325   6.831   3.055  14.539 -0.1652  0.3218 -0.2926
10122W        W28326   4.847   5.540  16.404 -0.0856  0.0443 -0.2486
10123W        W28327   8.624  13.276   2.561 -0.2939 -0.3076  0.1890
10124W        W28328   3.921   2.717  13.720  0.1286  0.0545 -0.0844
10125W        W28329  12.221  14.634   1.185  0.1756  0.3002 -0.0812
10126W        W28330   5.487  11.769  16.179 -0.3123  0.1474 -0.0732
10127W        W28331   3.151   7.353   3.229 -0.1990  0.0190  0.0755
10128W        W28332  12.188   2.218   2.508 -0.2757 -0.1972  0.1678
10129W        W28333   7.907   3.167  17.459 -0.0095  0.0253 -0.0435
10130W        W28334   7.739   0.390  12.930  0.1121  0.0661  0.2553
10131W        W28335   0.678   6.830   0.066 -0.1005 -0.1908 -0.0411
10132W        W28336  16.361   3.570  13.221 -0.0654  0.0109  0.1821
10133W        W28337  10.047   6.111  14.112 -0.1727  0.0066 -0.1899
10134W        W28338   1.055   3.540   4.340 -0.4971 -0.0138 -0.1809
10135W        W28339   3.730   4.627  14.083 -0.0145 -0.1143  0.1946
10136W        W28340   7.593  17.319   1.702 -0.1992  0.0815  0.0152
10137W        W28341   6.284   4.288  16.796 -0.0892 -0.0455 -0.1466
10138W        W28342  14.412  13.411  15.031  0.1061  0.4806  0.0129
10139W        W28343  13.865   4.594   5.043 -0.0670 -0.0044  0.3148
10140W        W28344  13.752   5.677   2.044 -0.1504 -0.0940 -0.0158
10141W        W28345  13.650   0.097  13.672  0.0787  0.0330 -0.3440
10142W        W28346  13.626  11.357   0.814 -0.1541  0.2088  0.1530
10143W        W28347   5.312  13.607   0.224  0.1035 -0.0262 -0.2835
10144W        W28348   2.059   5.090   5.444  0.2500  0.1053 -0.3022
10145W        W28349  13.570   3.120  14.172 -0.1280  0.1962 -0.1054
10146W        W28350   1.295  11.581  17.414 -0.1813  0.0511  0.4694
10147W        W28351   6.928  14.531  12.534 -0.0367 -0.2913 -0.0419
10148W        W28352   0.884   2.690   0.274 -0.0744 -0.1281 -0.1326
10149W        W28353  14.976  15.888  16.580 -0.0121  0.0971  0.0566
10150W        W28354   3.712  13.132   5.318 -0.0073 -0.0699  0.0507
10151W        W28355   2.966   1.792  13.892  0.0765  0.1181 -0.2809
10152W        W28356  16.534  14.397  14.841  0.0074 -0.1374  0.0491
10153W        W28357  15.059  15.770   1.582  0.0221  0.0759 -0.3520
10154W        W28358   0.858   7.048  16.708 -0.2592 -0.0107  0.0632
10155W        W28359   0.650   8.109   3.979 -0.0506 -0.1408  0.1777
10156W        W28360  13.276   2.694  15.861 -0.2519  0.2668  0.0487
10157W        W28361   2.353  14.007  12.187  0.1419 -0.0021 -0.0367
10158W        W28362  11.002   8.889   0.335 -0.1250 -0.1212  0.3077
10159W        W28363  16.229   8.248  14.981  0.1399 -0.1453  0.0620
10160W        W28364  12.316   5.256  14.754 -0.1727 -0.0475  0.1872
10161W        W28365   8.488   4.625   2.834  0.0868  0.0468  0.0336
10162W        W28366   4.036   1.601   0.275 -0.0729  0.1453  0.1339
10163W        W28367  12.184  12.420  14.748  0.0452  0.0955  0.1385
10164W        W28368  10.560  11.461   1.319  0.0487 -0.2677  0.1558
10165W        W28369  13.643  10.550  13.527 -0.1946  0.0803  0.2494
10166W        W28370  11.801   0.322  15.482  0.2097  0.1682 -0.1278
10167W        W28371  16.521   2.594  12.795  0.1564  0.5543  0.1655
10168W        W28372   6.543   9.294   4.643  0.0866 -0.2306  0.1008
10169W        W28373  11.088  12.901  13.378 -0.0120  0.0763  0.1609
10170W        W28374  13.089   0.005   5.387  0.0969  0.0848 -0.3543
10171W        W28375  14.521   2.886   2.865  0.0617  0.0959  0.1557
10172W        W28376   3.542   3.824   1.095 -0.0246  0.2539  0.1609
10173W        W28377   4.773   1.947   3.214  0.4606  0.3441 -0.0681
10174W        W28378   4.980  15.100  15.914 -0.0265  0.1026  0.0449
10175W        W28379   0.628  13.874   0.678  0.0699  0.1340 -0.2599
10176W        W28380   2.143   1.314  15.686 -0.0918 -0.0021 -0.1299
10177W        W28381   4.119  11.308  16.954  0.0485  0.1611  0.0376
10178W        W28382  10.636   7.940   2.087 -0.1681 -0.1765  0.0241
10179W        W28383  11.751   5.796   3.078 -0.0939 -0.2713  0.2066
10180W        W28384   2.565   1.826  17.028 -0.2100 -0.2798 -0.0082
10181W        W28385   5.070   3.197   3.343  0.3588  0.0793  0.3225
10182W        W28386   2.726  10.099  12.680 -0.1487  0.0790 -0.1525
10183W        W28387  14.948  16.504  16.180 -0.0810 -0.1143 -0.0013
10184W        W28388   4.362   8.771   1.792 -0.2164 -0.1827  0.0848
10185W        W28389   6.851  16.842   1.456 -0.3783 -0.2237 -0.1215
10186W        W28390  12.564  13.249   0.283 -0.0242  0.1008 -0.0848
10187W        W28391  13.505  13.089  14.543 -0.0821 -0.2382 -0.0651
10188W        W28392   1.383   1.364  12.127 -0.2005 -0.0247  0.0849
10189W        W28393   0.320  15.907   1.229 -0.2367 -0.1353 -0.4550
10190W        W28394  15.662   0.844   4.921 -0.1479  0.0394  0.1555
10191W        W28395   3.223  13.417  13.302  0.0401  0.0140  0.0895
10192W        W28396  13.470  11.937  13.421  0.1864 -0.2460 -0.0360
10193W        W28397   2.961   3.104   3.503  0.2327 -0.0176 -0.0423
10194W        W28398  10.953   0.796   1.514  0.1186  0.1669  0.1518
10195W        W28399   6.121  12.608  15.286  0.0856 -0.1160  0.2115
10196W        W28400  14.652  12.602  13.395  0.1450  0.0295 -0.3688
10197W        W28401   3.738  11.904  14.639 -0.1338 -0.0725 -0.3205
10198W        W28402   4.789   2.303   4.028 -0.0468 -0.2789  0.2649
10199W        W28403   4.179   9.716  13.148 -0.0982  0.0735 -0.3199
10200W        W28404  16.218  14.433  12.689  0.1512  0.0668 -0.1241
10201W        W28405   5.491   3.301   0.803 -0.0391 -0.0249 -0.0556
10202W        W28406  12.904  12.622   3.921  0.2669  0.1926 -0.0811
10203W        W28407  14.424  16.293   3.641  0.0447  0.2326 -0.1250
10204W        W28408  16.277  15.704   3.878  0.0089  0.0886 -0.0838
10205W        W28409  14.559   3.284  15.593 -0.0175 -0.1637 -0.0767
10206W        W28410  15.247   6.978  16.258 -0.0916 -0.0107 -0.1905
10207W        W28411   5.203   8.591  13.212  0.1714  0.0943  0.0076
10208W        W28412  12.099   7.430  17.489 -0.1094 -0.0722 -0.2611
10209W        W28413   1.889   4.916  14.722  0.2165  0.0969 -0.0154
10210W        W28414   1.335   8.332  14.037 -0.0585 -0.2864  0.4658
10211W        W28415   3.732   8.237  12.839 -0.2022  0.0764  0.3540
10212W        W28416   1.408   8.250   3.905  0.1839 -0.0013 -0.2013
10213W        W28417   8.964  15.319  16.103 -0.3454 -0.3372  0.1789
10214W        W28418  11.631  17.320   0.829 -0.0027 -0.1166  0.0227
10215W        W28419  16.211   7.086  13.100  0.1821 -0.0518  0.1057
10216W        W28420  12.097   6.781  13.220  0.1971 -0.0526 -0.2403
10217W        W28421   9.171   3.886  12.730 -0.0749  0.2457 -0.2356
10218W        W28422  14.834   3.290   2.006 -0.0101 -0.0784 -0.3274
10219W        W28423   8.924  10.550  13.872  0.1909 -0.1521  0.2092
10220W        W28424  10.900   2.598   0.278 -0.2303 -0.1769 -0.1087
10221W        W28425  11.434   9.866   5.405 -0.1939 -0.0022 -0.1346
10222W        W28426   4.123   1.769  14.601  0.1611 -0.2024 -0.0684
10223W        W28427  16.456  12.170  15.645  0.0363 -0.1296  0.2464
10224W        W28428  15.662   6.808   4.404 -0.1650 -0.0565  0.0486
10225W        W28429  16.307  13.384   2.195 -0.0691  0.3661  0.1723
10226W        W28430  10.122   4.439   2.027  0.1196 -0.1072  0.0902
10227W        W28431   4.933   4.247  13.731  0.2989  0.0248  0.2464
10228W        W28432  15.026  13.211   2.642  0.0047 -0.0875  0.1331
10229W        W28433   6.993   0.899  17.471 -0.1952  0.1346  0.1365
10230W        W28434  13.765  13.348   2.207 -0.2779 -0.0590 -0.0595
10231W        W28435   6.089  11.652   0.412  0.1885 -0.1903 -0.0526
10232W        W28436   1.515  12.400   4.311 -0.0618  0.2444  0.2320
10233W        W28437   8.615  12.885  14.650  0.0262  0.0411 -0.0728
10234W        W28438   7.495  11.505  15.842  0.1915  0.0333 -0.0826
10235W        W28439   9.418   6.586  16.306  0.0712 -0.2337  0.1852
10236W        W28440  13.204   5.865  15.968  0.0470 -0.1752  0.0771
10237W        W28441   8.209   2.732   1.500 -0.1487  0.2588  0.1482
10238W        W28442   4.580   7.385   2.586  0.1240 -0.0134  0.0345
10239W        W28443   0.183  16.759   4.723  0.1428  0.0375 -0.1214
10240W        W28444  16.966   2.725  12.930  0.3567  0.0689  0.0904
10241W        W28445  11.835   3.522  12.170  0.0326 -0.1370  0.2267
10242W        W28446   4.091   7.500   4.346 -0.3109  0.0246  0.0643
10243W        W28447   6.624  17.135   1.877  0.1889  0.1975 -0.1251
10244W        W28448   3.432  15.638  13.306  0.1870  0.2579 -0.4052
10245W        W28449   0.193   6.079  14.137 -0.2219  0.0347  0.1420
10246W        W28450  10.728   4.457  17.166  0.4017 -0.1043 -0.2516
10247W        W28451   7.559   1.186  15.058 -0.1954  0.1806  0.1009
10248W        W28452  16.120   8.443   0.444  0.0106  0.0227  0.2979
10249W        W28453   6.588  11.106   4.869  0.4004  0.0195 -0.0206
10250W        W28454  14.051  11.287   1.728 -0.1657 -0.2717 -0.0734
10251W        W28455  13.415   0.300   0.055 -0.1589  0.1045  0.1763
10252W        W28456   5.071   3.348   5.667  0.0088 -0.1428 -0.2454
10253W        W28457  12.252  14.731  12.898 -0.1681 -0.3409 -0.2083
10254W        W28458  14.001  12.529   3.353  0.4416 -0.0069 -0.1139
10255W        W28459   2.162   2.644  12.107 -0.0838 -0.0939 -0.0794
10256W        W28460   3.159   7.240   2.182 -0.0088 -0.2581  0.0187
10257W        W28461  16.324  12.486  11.468  0.0678  0.1949 -0.0126
10258W        W28462  14.076  14.722   4.831 -0.2518  0.1011  0.4669
10259W        W28463   7.460  15.803   0.104 -0.2706  0.1488 -0.2785
10260W        W28464   2.930  12.745   1.898  0.1286 -0.1029  0.1657
10261W        W28465   7.128  16.853  17.500  0.2941 -0.2243  0.1104
10262W        W28466   8.397  17.224  12.394 -0.1109 -0.1694  0.2935
10263W        W28467   1.503   1.112   4.262  0.0921 -0.1200  0.1907
10264W        W28468   7.140   8.070   5.532 -0.3644 -0.0801 -0.0849
10265W        W28469   8.241   6.340  15.118 -0.1619  0.1585  0.1058
10266W        W28470   6.437   3.166   0.405  0.1564 -0.1398 -0.0265
10267W        W28471  14.980   5.960  15.998 -0.2318  0.0308 -0.0258
10268W        W28472  12.668   6.192   0.569  0.0040  0.2396  0.1648
10269W        W28473  16.152  11.883  13.617 -0.1042 -0.3014 -0.0313
10270W        W28474  11.857  16.691   3.663 -0.1853 -0.1168  0.0238
10271W        W28475   0.889   9.420   1.537  0.0208  0.0148  0.4758
10272W        W28476   7.760  14.166   0.635  0.3574  0.1366 -0.2646
10273W        W28477  16.261   3.255  16.905  0.0830 -0.0244  0.0852
10274W        W28478   3.785   2.724  14.634  0.1223 -0.2867 -0.1841
10275W        W28479  10.485   3.871   6.414  0.1375  0.1502 -0.0523
10276W        W28480   6.418  12.214  15.643 -0.2704  0.1925 -0.1678
10277W        W28481  11.224  12.070   1.850 -0.1727  0.0345 -0.1946
10278W        W28482  10.104   7.453  15.745 -0.0081 -0.1085  0.0478
10279W        W28483  12.167  12.532  13.311 -0.2440 -0.3592  0.2857
10280W        W28484   3.981  13.775  14.591  0.1029 -0.1278 -0.1619
10281W        W28485  17.081   0.833   0.836  0.1312 -0.2110  0.3302
10282W        W28486   8.580   2.861  16.824 -0.1289 -0.2546 -0.1592
10283W        W28487   0.111  13.477  12.627  0.1545  0.0629 -0.1525
10284W        W28488  15.772  11.065   1.298  0.0731 -0.1787  0.3373
10285W        W28489   5.103   3.258  12.988 -0.2604  0.0861 -0.3453
10286W        W28490   3.491   5.040   1.902  0.4124 -0.0769  0.1465
10287W        W28491  13.837   1.046   2.942  0.1282 -0.3131 -0.0257
10288W        W28492  12.244  12.072   4.810 -0.1036 -0.2810 -0.2203
10289W        W28493   5.114   1.388   3.162 -0.0635  0.1469  0.1937
10290W        W28494   6.005   9.522  14.195 -0.0924  0.0873 -0.0813
10291W        W28495   8.700  13.128  13.139 -0.0531 -0.1834  0.2529
10292W        W28496   2.063   6.394  12.456 -0.0147 -0.2455  0.0690
10293W        W28497  14.790   2.012  13.191 -0.0701 -0.2226  0.1475
10294W        W28498   7.324   0.896  12.109  0.1722  0.2063 -0.2610
10295W        W28499   3.922  10.094  14.930  0.2257  0.2604  0.0101
10296W        W28500  10.187   3.433  12.193  0.2808 -0.0730 -0.2676
10297W        W28501  14.074   5.615   0.488 -0.2105 -0.0370  0.1439
10298W        W28502  16.177   7.655  17.234  0.0921 -0.1670 -0.0990
10299W        W28503   3.058  13.416   4.119 -0.0980  0.1870 -0.2140
10300W        W28504   2.544   8.968  15.778 -0.0522 -0.1891 -0.0442
10301W        W28505  16.624  15.233  16.825  0.0294 -0.1056 -0.0737
10302W        W28506  13.529   5.251   0.171 -0.3298 -0.1663  0.2224
10303W        W28507   7.452   9.282  13.527  0.2574  0.1401 -0.1937
10304W        W28508   4.411   1.365  15.083  0.1468  0.0619  0.0296
10305W        W28509   2.533   2.820   3.726 -0.0303  0.0848  0.1926
10306W        W28510   0.010   6.301   1.325  0.1855  0.0416 -0.0186
10307W        W28511  14.973   0.629  16.437 -0.0903 -0.2228 -0.2911
10308W        W28512  16.939   1.325   1.394  0.2207  0.2136  0.1508
10309W        W28513   9.038   8.099   0.727  0.4068  0.1544  0.1914
10310W        W28514  12.046   3.229  15.842 -0.1463 -0.0879 -0.0432
10311W        W28515   1.669   4.046  14.446 -0.0214  0.1456 -0.5445
10312W        W28516   6.662   3.130  12.699  0.0386 -0.0940 -0.0201
10313W        W28517  13.757  15.864   5.887  0.0182  0.0368  0.1774
10314W        W28518   5.355   7.018  13.772 -0.2568 -0.2067  0.1567
10315W        W28519  12.213  10.563  16.993 -0.2518 -0.0594 -0.4651
10316W        W28520   9.045   2.215   2.275 -0.0921  0.0392  0.2499
10317W        W28521   3.992   3.619  14.626 -0.0563 -0.1533 -0.3351
10318W        W28522  13.130  11.605   2.106 -0.0077 -0.1949  0.1304
10319W        W28523   7.092  16.956   2.714 -0.0356  0.0501  0.0618
10320W        W28524  15.247  15.520   4.408  0.2467 -0.1348 -0.2828
10321W        W28525   1.528  15.402  13.350  0.0313 -0.0359 -0.0124
10322W        W28526  14.933   4.261   4.387  0.0468 -0.0611 -0.1693
10323W        W28527   9.622   5.702  15.513  0.0529  0.0155  0.1292
10324W        W28528  15.362   2.129  14.308 -0.2080  0.1617 -0.1415
10325W        W28529  16.297   3.407   2.222 -0.0956  0.0496  0.0056
10326W        W28530  13.436   5.452   2.975 -0.1311  0.1103 -0.0727
10327W        W28531   8.622  16.163   4.141  0.2854  0.1186 -0.2006
10328W        W28532  14.162  16.528   4.742 -0.0317  0.1505 -0.2312
10329W        W28533   5.119   0.127  17.146 -0.1547  0.2678  0.1779
10330W        W28534   3.678   6.837   3.553 -0.2657 -0.0487 -0.3812
10331W        W28535   3.684   9.359   5.061 -0.1031  0.0354  0.1122
10332W        W28536   8.657   7.490   1.288 -0.1160 -0.0774 -0.0126
10333W        W28537  12.263  10.741   2.149  0.1409 -0.1167 -0.1944
10334W        W28538   9.797  16.572   3.059  0.1437  0.2154  0.0395
10335W        W28539   1.893  16.642  15.977 -0.0790 -0.0115  0.0775
10336W        W28540   6.734  14.694   5.747  0.0291  0.0569  0.0709
10337W        W28541   1.621   0.050  16.285 -0.0453  0.2845 -0.0296
10338W        W28542   7.376  11.855   0.059 -0.1442 -0.2939  0.0050
10339W        W28543  12.509  11.546  15.960  0.0935 -0.0240  0.0450
10340W        W28544  15.723   4.337  16.362 -0.1909 -0.2548  0.2263
10341W        W28545  11.977   3.053   4.992 -0.0246  0.0861  0.2511
10342W        W28546   2.600   6.898  15.414  0.0375 -0.2851 -0.1585
10343W        W28547  15.094   4.922   3.625 -0.2965 -0.1583 -0.0450
10344W        W28548  16.668   4.065   2.934 -0.0878  0.2693  0.2297
10345W        W28549  12.408   4.602  12.884 -0.0128  0.3352  0.1126
10346W        W28550  13.687   3.985   3.630 -0.2927 -0.1361 -0.1001
10347W        W28551   8.003   6.399  12.420  0.1621  0.0701 -0.2963
10348W        W28552  15.419   1.746   5.944 -0.0190  0.0436 -0.0619
10349W        W28553   3.209  16.711   1.955  0.2069  0.2761 -0.1738
10350W        W28554   3.190   6.154   2.598  0.0597 -0.0731  0.2418
10351W        W28555   4.194  13.653   0.105 -0.2308 -0.0600  0.0630
10352W        W28556  12.120   0.243  16.380 -0.3656 -0.0675 -0.3288
10353W        W28557   5.456  13.884   3.015 -0.1766 -0.0192  0.2221
10354W        W28558   8.377   6.748  15.469  0.1783  0.0344  0.0986
10355W        W28559  12.774  17.096  14.643  0.0637 -0.3639 -0.2589
10356W        W28560  10.713   6.161   0.494 -0.0033  0.1673 -0.3387
10357W        W28561   7.896   4.584   3.445 -0.0541 -0.1120  0.1370
10358W        W28562   9.604   2.671   4.534  0.3062  0.4162 -0.0721
10359W        W28563   3.519  10.162  15.295 -0.0502  0.0934  0.1165
10360W        W28564  16.711   3.988   4.444 -0.2391  0.0062 -0.0012
10361W        W28565   3.650   1.680  12.425  0.3523 -0.1457 -0.0724
10362W        W28566   2.117   3.735   2.240  0.0269  0.0251  0.1418
10363W        W28567  10.941  13.967  16.997  0.1063 -0.2138 -0.1563
10364W        W28568  16.607  13.539   0.032 -0.0723  0.0421  0.0459
10365W        W28569   9.971   3.444   5.679 -0.1801 -0.0106  0.0802
10366W        W28570   2.391   7.215   1.057  0.3301  0.0159  0.0885
10367W        W28571   1.151   5.615   4.433  0.0147 -0.0497 -0.0558
10368W        W28572   2.679   2.612  14.343 -0.4074  0.0440  0.1723
10369W        W28573   8.284  17.057   5.026 -0.0295  0.2923 -0.2847
10370W        W28574  10.953   7.686   5.291  0.0007  0.0178 -0.1268
10371W        W28575   6.509   8.752   1.407 -0.0773 -0.2503  0.0786
10372W        W28576   5.441   2.438  12.503 -0.0680 -0.0717 -0.2386
10373W        W28577   1.455  16.309   2.603  0.0055  0.2280 -0.0023
10374W        W28578   3.174  10.150   3.595 -0.0890  0.0187  0.0526
10375W        W28579  10.133   4.618  16.131 -0.1103 -0.4616  0.2831
10376W        W28580   6.949   2.852  13.058  0.1453  0.1191 -0.2116
10377W        W28581   4.873   0.405   4.290 -0.2832 -0.0909  0.0054
10378W        W28582   1.367  16.957   1.180 -0.0518  0.0141  0.1819
10379W        W28583   6.324  16.309  11.306 -0.1687 -0.2162 -0.2122
10380W        W28584   9.092   8.943  16.973 -0.1194  0.1980  0.1884
10381W        W28585  15.213   8.380  12.689 -0.3865  0.2500 -0.1324
10382W        W28586  14.758   5.972   0.691  0.0028  0.3705  0.0655
10383W        W28587  15.194   6.781   2.235  0.0279  0.0029 -0.0173
10384W        W28588   8.419   9.904  12.174 -0.1899  0.2816 -0.2475
10385W        W28589   3.550   6.910   2.748  0.2760 -0.0799 -0.0246
10386W        W28590   4.636  11.535  13.398 -0.0862  0.1514 -0.0016
10387W        W28591   0.251  10.390  14.911  0.2649 -0.0466  0.1947
10388W        W28592   0.913  12.349  14.495  0.2703  0.0463  0.2714
10389W        W28593   4.009   8.224  16.993 -0.0192 -0.3797  0.0060
10390W        W28594  16.366   5.989   5.294  0.4071  0.2283  0.2375
10391W        W28595  10.396  14.275   4.442  0.0494  0.2062  0.1451
10392W        W28596  11.763  12.664  15.812 -0.0162 -0.1942  0.2782
10393W        W28597   6.298   3.879   1.869 -0.7138  0.0161 -0.2649
10394W        W28598   3.370  11.863  15.070 -0.0221 -0.0208 -0.2260
10395W        W28599   7.820   0.097   0.303 -0.2113  0.1657  0.1296
10396W        W28600   9.196   6.451   3.780  0.1948  0.3872  0.2474
10397W        W28601  16.283  10.728  16.949  0.0137 -0.0753 -0.0710
10398W        W28602   9.039   5.534   4.172 -0.2444 -0.0177  0.0969
10399W        W28603  10.487   3.877  14.354  0.1688 -0.0270 -0.0265
10400W        W28604  15.900  11.087  12.603 -0.1429 -0.0779 -0.1880
10401W        W28605   0.596   8.459  14.848 -0.4097  0.0498  0.2755
10402W        W28606   8.162   3.089  16.713  0.0074  0.2095 -0.0286
10403W        W28607   9.779   6.644   1.324 -0.3942 -0.1311 -0.0720
10404W        W28608   2.580   5.475   4.743 -0.0525 -0.0341 -0.1290
10405W        W28609   6.124   7.928   2.798 -0.0296 -0.0219 -0.1835
10406W        W28610  12.022   4.624  15.379 -0.0631 -0.2708 -0.1175
10407W        W28611  16.448   1.341  13.028 -0.0318  0.2699 -0.0802
10408W        W28612   6.276  13.169  14.186  0.1191  0.2121 -0.1524
10409W        W28613  12.099   3.689   2.141 -0.0462 -0.3949 -0.0162
10410W        W28614   0.445   6.256  14.582  0.0757 -0.0133  0.1237
10411W        W28615   5.295   0.159   0.177 -0.1334  0.0470  0.0006
10412W        W28616  11.090   4.019  16.932  0.0348  0.0413  0.1323
10413W        W28617   4.897   4.662  13.236 -0.2036 -0.1789 -0.0389
10414W        W28618   3.269  13.831  12.723 -0.0984  0.2321  0.2938
10415W        W28619  16.873  14.702   5.975  0.1895 -0.0543 -0.2688
10416W        W28620   1.977   7.613   1.985 -0.0727 -0.0756  0.1158
10417W        W28621  17.184   7.861   1.442 -0.3088  0.0002  0.0731
10418W        W28622   8.406  14.373  16.754  0.1108 -0.2961  0.0024
10419W        W28623  10.604   3.503   3.598 -0.1803  0.0008  0.0218
10420W        W28624   3.392   3.657   5.066 -0.0041  0.0909 -0.0732
10421W        W28625  13.807   2.230   4.549 -0.0568 -0.0987 -0.3959
10422W        W28626   0.324   2.274  14.900 -0.0272 -0.0859  0.0074
10423W        W28627   9.057  13.209  15.387  0.0247  0.1327 -0.2090
10424W        W28628   1.403   3.330   3.164 -0.0122 -0.1441 -0.1930
10425W        W28629   2.903   0.558   0.172 -0.1760 -0.0695  0.0749
10426W        W28630   2.420   7.788   1.130 -0.1138 -0.1054  0.4049
10427W        W28631  13.317  14.280   1.021 -0.0861 -0.1735  0.1442
10428W        W28632   9.656  14.676   6.223  0.1208  0.2542  0.0890
10429W        W28633  17.317   3.356   3.943  0.0591  0.1105 -0.1457
10430W        W28634   1.491   9.829  14.624  0.4319 -0.1503 -0.0373
10431W        W28635   0.279  17.252  17.438 -0.0970  0.0965 -0.0349
10432W        W28636  11.783  12.885  14.067 -0.3592 -0.1876  0.0442
10433W        W28637   2.489  15.397   0.762 -0.1780  0.1265 -0.0411
10434W        W28638  10.191   6.578   4.225 -0.0417  0.0755 -0.0379
10435W        W28639  13.952   9.592  12.525 -0.1416  0.0973 -0.1888
10436W        W28640   0.298   0.889  13.516 -0.2842 -0.2128  0.2330
10437W        W28641   4.815   8.678  15.564 -0.1239  0.0267 -0.0762
10438W        W28642   0.208   9.004  15.450  0.1286  0.0056  0.3697
10439W        W28643   1.359   2.311   2.969  0.0989  0.1203  0.1514
10440W        W28644   9.026  10.908  17.307  0.2067 -0.0871  0.0257
10441W        W28645  16.491  10.519   3.161 -0.0793  0.0591  0.0965
10442W        W28646  13.815   8.688   0.916 -0.0665 -0.3699 -0.1892
10443W        W28647  17.337  17.307   5.270  0.1293  0.0297 -0.1297
10444W        W28648  16.595   6.297  13.372  0.0465  0.0510  0.0642
10445W        W28649   5.209  11.096   2.857  0.2699 -0.1208  0.2230
10446W        W28650   5.843  13.147  12.579  0.1251  0.2166  0.0598
10447W        W28651   5.706   1.559  14.468  0.3094 -0.1827 -0.1615
10448W        W28652   2.174   7.887   4.910 -0.3437 -0.0149 -0.0112
10449W        W28653   2.986  11.775   0.660 -0.6276  0.0747  0.1010
10450W        W28654  16.955  17.044  11.739  0.1257 -0.3873  0.1605
10451W        W28655   2.493   3.380  13.417 -0.1398  0.1557 -0.0635
10452W        W28656   0.763   0.059   2.008  0.2015  0.4068  0.1868
10453W        W28657  13.751   9.285  14.130  0.2071  0.2835  0.3795
10454W        W28658   3.619  14.158  17.023 -0.0478  0.0516 -0.1637
10455W        W28659   7.356   3.456  15.237  0.0485 -0.1953 -0.0907
10456W        W28660   6.553   3.383  14.203 -0.2002  0.3691 -0.0667
10457W        W28661  17.160  15.045  13.272 -0.0118 -0.0563 -0.1105
10458W        W28662   8.706   1.597  12.911 -0.0676 -0.2650  0.0213
10459W        W28663   2.134  11.496   0.266 -0.0972  0.3062 -0.0182
10460W        W28664  15.030   6.748  16.783  0.0340  0.2519 -0.3956
10461W        W28665  16.180  17.086   0.036  0.0216 -0.0027  0.0621
10462W        W28666  14.661   0.713  11.878  0.4199 -0.0477 -0.1970
10463W        W28667   6.264   5.600   0.558  0.1201 -0.2415  0.1285
10464W        W28668   7.216  12.097   3.381  0.3919  0.0362  0.1485
10465W        W28669  14.532   7.194   5.211 -0.1738  0.2647 -0.1869
10466W        W28670   1.526   0.449   3.268  0.0782  0.0968 -0.1134
10467W        W28671   2.759  15.149   3.152  0.1274 -0.3474  0.1210
10468W        W28672   0.683   3.350  17.230 -0.1671  0.1855  0.1745
10469W        W28673   1.820   4.391  14.821 -0.3077 -0.0927 -0.1386
10470W        W28674   0.771   7.037  13.609  0.0622 -0.0214  0.0443
10471W        W28675  17.027   1.255   4.997  0.0010  0.2129  0.2370
10472W        W28676  14.213  16.805  16.635  0.1142  0.2222  0.1183
10473W        W28677  14.513   3.870  13.685 -0.2787  0.2077 -0.2557
10474W        W28678   8.422   1.914  15.968 -0.0817 -0.1459 -0.2370
10475W        W28679   2.908  12.556  13.072  0.0045  0.1022  0.0337
10476W        W28680  10.727  11.807   5.340 -0.1288  0.1152  0.1309
10477W        W28681  17.230  12.316  14.301 -0.0753  0.2412 -0.3913
10478W        W28682   2.887   3.195  11.979 -0.1394 -0.2862  0.1524
10479W        W28683  13.310   6.303   1.800  0.5219 -0.1699 -0.2136
10480W        W28684   8.098  11.796  12.964 -0.1518 -0.1749  0.1151
10481W        W28685   7.558  13.007   0.250 -0.1920  0.2410  0.2605
10482W        W28686   6.786  17.161   0.654 -0.0019 -0.1805  0.0671
10483W        W28687   3.147   9.563   3.484  0.2812 -0.2127 -0.1357
10484W        W28688  11.281   8.224   0.029  0.2940  0.1387 -0.0276
10485W        W28689  10.227  16.655   3.834  0.3399 -0.4003 -0.0185
10486W        W28690   2.634  15.274   5.498 -0.0113 -0.2255  0.2266
10487W        W28691   7.073   0.284   4.911 -0.0286  0.2974  0.0156
10488W        W28692  15.425  15.104   4.666 -0.0658 -0.3124  0.0109
10489W        W28693  13.379  15.061  14.593 -0.0896  0.0447  0.0997
10490W        W28694   6.698   0.343  16.365  0.0513 -0.2456  0.0700
10491W        W28695  14.196   0.421  13.068 -0.2155 -0.2785 -0.2138
10492W        W28696   5.640  10.432  16.975  0.4151  0.2734  0.0436
10493W        W28697  11.120  13.890   2.306  0.1473  0.1223  0.1270
10494W        W28698   2.786  15.122  13.688  0.0441  0.0879 -0.1423
10495W        W28699   8.794   6.187  14.786  0.1176  0.1120 -0.2782
10496W        W28700  13.845  12.105  12.593 -0.3857  0.3367  0.2345
10497W        W28701  13.204   3.972   3.349  0.3575  0.0123 -0.1726
10498W        W28702   8.126   9.332  13.306  0.1033 -0.1614  0.1812
10499W        W28703   5.482   6.197   1.750 -0.1105  0.2018 -0.1051
10500W        W28704  11.301   4.564  12.014 -0.2049 -0.0856 -0.0133
10501W        W28705   6.625   0.989  15.017  0.0787  0.2065  0.1718
10502W        W28706  11.245   2.813  14.965 -0.2458  0.0436 -0.0152
10503W        W28707   0.998   9.017   0.258 -0.0800  0.2811 -0.0632
10504W        W28708  16.379   9.202   1.931  0.1109 -0.0397 -0.0273
10505W        W28709   5.060  16.648   4.613 -0.2393 -0.0357 -0.2933
10506W        W28710  14.451  16.120   0.342  0.0808  0.4274 -0.2201
10507W        W28711  14.993  10.918   3.538 -0.1632  0.1345  0.0636
10508W        W28712  13.124  17.150   0.384  0.0844  0.1750  0.1582
10509W        W28713   6.222  14.064  17.421 -0.1481  0.1688  0.0278
10510W        W28714   2.159   2.883  16.418 -0.0572  0.0198  0.2025
10511W        W28715   3.173  11.909   2.999  0.1214  0.2033 -0.1017
10512W        W28716  11.588  16.532   2.157  0.0253  0.1490 -0.1291
10513W        W28717   1.154  15.115  13.080 -0.0986 -0.1394  0.0082
10514W        W28718  13.935  14.239  14.258  0.0377  0.1393  0.1041
10515W        W28719   5.592  13.962  14.191 -0.2233  0.0573  0.1659
10516W        W28720   0.198  13.780  14.069 -0.1515 -0.0203 -0.0212
10517W        W28721  10.966  11.378  12.666  0.1427  0.3508  0.0099
10518W        W28722   9.676  16.668   0.137  0.0398  0.0948 -0.0892
10519W        W28723   9.897  13.480   4.015  0.1333  0.0939 -0.0636
10520W        W28724  14.547  13.497   1.853  0.1091 -0.1649  0.0169
10521W        W28725   4.337  16.191  13.299  0.1808 -0.0630 -0.0929
10522W        W28726  10.130  15.088  13.182 -0.2166 -0.0748  0.0990
10523W        W28727   5.621   3.398  12.349 -0.0348  0.2657  0.0105
10524W        W28728   9.591   6.137   0.211  0.1539  0.2108 -0.0698
10525W        W28729   9.705   3.694  14.002 -0.1569 -0.0541  0.3965
10526W        W28730  13.341   1.804  12.389  0.0263  0.0822  0.1036
10527W        W28731  12.401  12.923   3.760  0.0107  0.0795 -0.4063
10528W        W28732  10.031   5.282   4.036  0.2891  0.3693  0.1573
10529W        W28733   2.673   0.120   6.083 -0.0357 -0.0809 -0.0885
10530W        W28734  12.026  15.086  12.527 -0.3036 -0.0650  0.0251
10531W        W28735   3.797   5.245  16.181  0.0088 -0.0179 -0.1753
10532W        W28736   8.894  10.861   2.833 -0.1049  0.2161  0.0128
10533W        W28737   1.464   9.018   0.062 -0.0141  0.0694  0.0102
10534W        W28738   8.538   3.834  13.303  0.1800 -0.1734  0.0764
10535W        W28739  10.028   3.077  15.270  0.1538  0.1038  0.0507
10536W        W28740  10.490   3.268  15.599 -0.1228 -0.0775  0.2686
10537W        W28741  10.758  13.902   4.455  0.0027 -0.4247 -0.2496
10538W        W28742  14.403   4.000   2.197  0.0343  0.0551 -0.0456
10539W        W28743   0.771   8.273  15.978  0.3811 -0.0602 -0.0031
10540W        W28744  10.502  16.191   2.626  0.1328 -0.1236  0.0750
10541W        W28745  11.626   3.916   3.603  0.3361  0.2468 -0.2939
10542W        W28746   6.591  11.328  15.662 -0.2302  0.1682 -0.1799
10543W        W28747   7.867  16.229   4.600  0.2869 -0.1850  0.0981
10544W        W28748  10.604  10.693  15.991  0.3892 -0.1855 -0.3165
10545W        W28749   8.779   9.920  13.719 -0.0880 -0.0094 -0.0227
10546W        W28750   1.930  17.142   0.521 -0.0537 -0.3456 -0.3535
10547W        W28751   4.350  16.407   2.904  0.0698  0.3860 -0.2881
10548W        W28752   2.287   8.386  13.715  0.0580 -0.0358  0.1941
10549W        W28753   1.624  13.037   0.648 -0.2502 -0.0371  0.1482
10550W        W28754  16.775  13.631   1.487  0.2528 -0.2165 -0.0159
10551W        W28755   2.817  15.267   4.994  0.3933  0.1085 -0.0981
10552W        W28756  16.592  12.065   4.170 -0.0838 -0.0869 -0.0393
10553W        W28757   1.299   9.863  16.948 -0.0471  0.1337  0.2093
10554W        W28758   6.991   6.063   4.176  0.1728 -0.1360  0.2553
10555W        W28759  16.892  10.944   2.098 -0.2569  0.2554 -0.0080
10556W        W28760   9.520   9.176  14.833 -0.3750  0.0284  0.2755
10557W        W28761   2.902   5.642   4.387  0.0565  0.2018  0.2075
10558W        W28762  15.407   4.359   4.860 -0.0474 -0.2034 -0.1154
10559W        W28763   3.596   8.970  14.313 -0.3168  0.0149 -0.2560
10560W        W28764  14.699   5.219  15.047 -0.0366  0.0022  0.3562
10561W        W28765   7.653   1.961  14.877 -0.0995 -0.0060  0.2376
10562W        W28766   5.654  10.057  14.442  0.2002 -0.0196 -0.1140
10563W        W28767  10.953  11.837  16.325  0.0897 -0.3301 -0.0435
10564W        W28768  17.127   3.841  14.710  0.0575 -0.1848  0.1324
10565W        W28769  17.297   7.491  17.528  0.1495 -0.3070  0.1171
10566W        W28770  13.735  16.684   0.505 -0.2320 -0.3368  0.0723
10567W        W28771   9.126  13.887   2.574  0.0820 -0.2018 -0.0875
10568W        W28772   6.860   9.124   1.636 -0.0217 -0.1395  0.0145
10569W        W28773  12.703  11.597   3.864  0.0960 -0.0052 -0.1218
10570W        W28774  13.973  11.976   2.771 -0.2116  0.2824 -0.1981
10571W        W28775  10.967  14.989  14.268 -0.1975  0.1574 -0.0354
10572W        W28776   6.297  15.843  12.854 -0.0104 -0.0417  0.3479
10573W        W28777  12.450   9.131   4.799 -0.1626  0.2520 -0.1342
10574W        W28778   8.071  15.298  13.186 -0.0731 -0.1059 -0.0511
10575W        W28779  14.753  14.163  13.624 -0.2890  0.1567  0.1187
10576W        W28780  13.192   2.018   0.975 -0.0199  0.4577 -0.1229
10577W        W28781   3.350   3.260  15.134 -0.4691  0.2070  0.0509
10578W        W28782  10.453  17.053  12.547 -0.0960  0.0734  0.1495
10579W        W28783  12.282  10.799  15.950  0.1297  0.1846 -0.0953
10580W        W28784  11.978  15.608   2.159 -0.1703 -0.4635 -0.0134
10581W        W28785   2.197  10.406   2.134 -0.0438 -0.0705 -0.0202
10582W        W28786  12.531   4.826  16.677  0.0039 -0.2079 -0.1650
10583W        W28787   4.125   6.319   0.487 -0.0977 -0.1474  0.0941
10584W        W28788  15.828   9.811  13.827 -0.0559 -0.0984 -0.0900
10585W        W28789   1.303   8.962   5.097 -0.2010 -0.1035 -0.2632
10586W        W28790   5.618  11.510   4.450 -0.1092 -0.0002  0.0004
10587W        W28791  14.806   7.398   2.983 -0.0607 -0.0019  0.2238
10588W        W28792   4.185  10.460   0.304  0.0662 -0.1227 -0.1699
10589W        W28793  12.259  11.382  14.584 -0.1519  0.0631  0.3127
10590W        W28794   7.091   7.155   0.700 -0.0114  0.1504  0.2015
10591W        W28795  11.677  15.618   4.694  0.2879  0.1910 -0.0981
10592W        W28796   7.874   1.196   1.547 -0.1385 -0.0787 -0.0163
10593W        W28797  17.100   8.047  14.129  0.0054 -0.0959  0.6420
10594W        W28798   9.384   7.123  16.319  0.2488 -0.0464 -0.0501
10595W        W28799   3.093   9.914   3.150 -0.1909 -0.0175  0.0495
10596W        W28800   7.338   7.344  14.816 -0.0709  0.1641  0.2326
10597W        W28801  15.443   3.455   0.134  0.0055  0.1229  0.0230
10598W        W28802   0.465   4.351   5.397  0.2552 -0.2914  0.2503
10599W        W28803   6.017  15.174  15.257 -0.0717  0.1052 -0.0411
10600W        W28804   9.486   6.528  15.531  0.0422 -0.0153 -0.3429
10601W        W28805   5.820  12.158   3.957 -0.0828  0.2686  0.4051
10602W        W28806  13.432   7.326   0.089 -0.0799  0.0040 -0.0111
10603W        W28807   2.820  10.937  15.661  0.0309 -0.0240  0.1416
10604W        W28808  11.040   7.431   2.813  0.0106 -0.3261 -0.0716
10605W        W28809   9.946  15.572  12.144 -0.1616 -0.2622  0.2595
10606W        W28810   3.376   5.277  15.806 -0.2527 -0.0782  0.2399
10607W        W28811   1.221   4.573  12.331 -0.1214  0.1660  0.1115
10608W        W28812  13.229   7.429  13.838 -0.0239 -0.1606 -0.2822
10609W        W28813  11.595  15.966  13.227 -0.0629 -0.0915  0.0264
10610W        W28814   5.312  11.098  15.239 -0.0600 -0.1565  0.2490
10611W        W28815   4.667   1.796   3.965 -0.1931 -0.2574  0.1827
10612W        W28816   9.636   5.151   3.290  0.2515  0.0448 -0.0323
10613W        W28817  12.775   3.389   0.845 -0.0589 -0.0459  0.3588
10614W        W28818  12.012   1.827   5.249  0.2349  0.1387 -0.0962
10615W        W28819   0.153   5.797  14.921 -0.1499  0.1836  0.0201
10616W        W28820   0.988  12.323   4.815  0.0315  0.1682  0.0046
10617W        W28821   2.181   4.209   3.315 -0.0464 -0.0403 -0.0607
10618W        W28822  15.858   4.373   4.525  0.0579  0.1183 -0.0623
10619W        W28823   4.155   9.913  12.626  0.1981  0.0057 -0.3182
10620W        W28824   9.751   0.408   0.894  0.0069 -0.1648  0.1711
10621W        W28825   1.829   8.799   0.352 -0.0937 -0.3224  0.0932
10622W        W28826  10.716   1.663   2.683 -0.0046 -0.3295 -0.0263
10623W        W28827   4.452   7.838   2.717  0.3177 -0.0590 -0.3692
10624W        W28828  16.604  10.618  15.302 -0.0418 -0.2332  0.0064
10625W        W28829   3.515  11.679   5.138 -0.2679  0.0017  0.0717
10626W        W28830  11.289  10.256  17.284  0.1982 -0.1411 -0.3316
10627W        W28831  12.590  10.796   3.445 -0.0980 -0.2546 -0.2640
10628W        W28832   9.090  10.309   4.051 -0.0794 -0.1227 -0.0825
10629W        W28833  12.245  13.156   4.159  0.0872 -0.2965 -0.0331
10630W        W28834   9.105   2.441  12.817  0.1396  0.1653 -0.1538
10631W        W28835  16.360  14.540  17.417 -0.1094  0.0432 -0.2085
10632W        W28836  14.529   0.508   0.734  0.1936  0.1906  0.1175
10633W        W28837   2.821  12.487  16.771  0.1247  0.1509 -0.2939
10634W        W28838   8.937   9.475  11.922  0.1997  0.1288 -0.1139
10635W        W28839  14.009   8.231  14.572 -0.0357  0.2146 -0.3296
10636W        W28840  16.769  16.675  12.059  0.1165 -0.0629  0.1715
10637W        W28841  12.809  10.103  15.427 -0.3506 -0.5110  0.2058
10638W        W28842   6.284  10.327   3.598 -0.0635 -0.0896  0.1757
10639W        W28843   2.008  10.794  15.085  0.0028  0.1253  0.2038
10640W        W28844   6.803  13.974  11.606  0.0789  0.3504 -0.0750
10641W        W28845   2.129   9.219   5.248 -0.1452  0.1273 -0.1897
10642W        W28846  11.009  12.913  13.851  0.3589 -0.0646 -0.3975
10643W        W28847  15.410   7.154  12.588 -0.0769  0.2311 -0.0927
10644W        W28848   2.091   9.604  13.020 -0.0556  0.1525 -0.1158
10645W        W28849   3.691  10.837   2.861  0.2294  0.0763 -0.1870
10646W        W28850  11.034   6.612  16.998 -0.1643  0.1420  0.0741
10647W        W28851   6.521   8.519   0.027  0.2097 -0.0251  0.1533
10648W        W28852  11.362   0.806   4.057 -0.0719 -0.2885  0.4060
10649W        W28853   1.808  15.581   2.582 -0.0209 -0.2782 -0.0268
10650W        W28854  11.348   0.276   3.818 -0.1729  0.1754 -0.1940
10651W        W28855   6.839  14.096   2.747 -0.4903  0.0386  0.1283
10652W        W28856   2.439   6.906   5.209 -0.1804  0.2280 -0.0539
10653W        W28857  16.638   9.978   5.501  0.3528 -0.0326  0.1145
10654W        W28858   3.027  15.116   2.250 -0.0508 -0.1419 -0.0063
10655W        W28859   5.398  11.520  13.329 -0.0759 -0.1090  0.0605
10656W        W28860  10.487  12.175  16.613 -0.1996 -0.1080 -0.0436
10657W        W28861   0.324  10.502   2.399 -0.0720 -0.0241  0.1801
10658W        W28862   5.571   1.150  17.514 -0.1033  0.0815  0.0359
10659W        W28863  12.091  10.268  14.228  0.1579 -0.0962 -0.0149
10660W        W28864  11.278  10.503  15.248 -0.0489  0.0928  0.0893
10661W        W28865  16.890  16.233  11.671  0.1038  0.4864  0.0150
10662W        W28866   9.944  14.647   5.241  0.1133  0.0551  0.2530
10663W        W28867   1.024   7.763   3.702 -0.0936  0.0776  0.1204
10664W        W28868  16.174  13.510  12.760  0.0076  0.1652  0.1494
10665W        W28869  10.837  16.433   0.568 -0.1696 -0.1727 -0.0846
10666W        W28870   7.867   8.480  15.732 -0.0516 -0.1007  0.0811
10667W        W28871   8.417   1.662  12.337 -0.1325  0.1237 -0.0617
10668W        W28872   7.123   0.955   2.664 -0.2207  0.0220 -0.0143
10669W        W28873  16.376  11.255   4.932  0.0440 -0.0856 -0.0528
10670W        W28874   1.183  15.452  16.383 -0.1064 -0.2311  0.0980
10671W        W28875   9.522   8.940   5.326 -0.0295  0.0378  0.1032
10672W        W28876  12.748  13.177   4.046  0.1399  0.1750  0.1594
10673W        W28877   4.019  13.486   3.947 -0.0433  0.2734 -0.4194
10674W        W28878  14.669   9.393  12.350  0.1691  0.1611  0.2417
10675W        W28879   9.749  12.779   2.379 -0.1514 -0.1036 -0.0781
10676W        W28880  12.148   4.803  14.921 -0.1448  0.1699 -0.1491
10677W        W28881   1.183   0.268   3.624 -0.2406  0.1263  0.0279
10678W        W28882  10.651   5.657   5.035  0.1232 -0.0159  0.1312
10679W        W28883   6.462   1.604  12.837  0.2001 -0.2106  0.0530
10680W        W28884   3.025   8.910   3.912  0.2925 -0.1240  0.0687
10681W        W28885  17.032   6.119   3.068 -0.1343  0.0584  0.3134
10682W        W28886  12.803   1.680  12.274 -0.0241 -0.2734 -0.0280
10683W        W28887   7.304   1.750   1.681  0.1141  0.0352  0.0082
10684W        W28888  10.932   4.503   0.097  0.2821 -0.1942  0.0457
10685W        W28889  11.452  11.722   0.906 -0.1684 -0.0650 -0.2104
10686W        W28890  11.085   2.060   4.669  0.1626 -0.4498  0.1282
10687W        W28891   6.741   0.785   0.959 -0.0980 -0.2902 -0.0628
10688W        W28892  12.952   9.472   2.667 -0.0059  0.1341  0.1758
10689W        W28893  10.131   5.727  12.755  0.4034  0.0083  0.0741
10690W        W28894  16.245   0.845  14.585 -0.0230  0.0867  0.1674
10691W        W28895   9.580  14.527   4.906 -0.0568  0.2073 -0.0273
10692W        W28896   7.536  11.544  16.510  0.0346 -0.0650 -0.0463
10693W        W28897   4.646   2.849   1.018 -0.3993 -0.0189 -0.2453
10694W        W28898  13.050  12.295   4.341  0.2553  0.0185  0.0486
10695W        W28899  10.238   5.172  15.895 -0.2215 -0.0316  0.1803
10696W        W28900  16.663  14.167  13.875 -0.1697  0.2374 -0.2911
10697W        W28901  10.991  10.351  14.839 -0.4037 -0.0945 -0.1880
10698W        W28902   8.930  13.246  14.010 -0.0703  0.2843 -0.3410
10699W        W28903   5.676  13.552   1.793  0.0085  0.1115  0.2048
10700W        W28904   8.279  12.251   1.829 -0.0742  0.1322  0.0365
10701W        W28905   0.550   3.280   4.977  0.0730  0.2831  0.1506
10702W        W28906   3.777  12.166  13.042 -0.1481 -0.0538 -0.0803
10703W        W28907  12.547  11.009  16.916 -0.1198  0.0070  0.0766
10704W        W28908  12.170  13.445  14.492 -0.0176 -0.4162 -0.1932
10705W        W28909  14.473   0.815  13.349 -0.0824  0.3177  0.0828
10706W        W28910   8.807   0.458  16.725  0.1354  0.1294 -0.5681
10707W        W28911   1.450  13.739  15.916  0.2954 -0.2491 -0.2253
10708W        W28912   7.601   5.802  14.527  0.0772 -0.2603 -0.0889
10709W        W28913   9.896  14.150  15.647  0.0646  0.1302  0.0023
10710W        W28914  13.938  11.133  15.059  0.0466 -0.0673  0.3055
10711W        W28915   8.069  12.670  16.844  0.1332 -0.1122  0.1745
10712W        W28916   9.545   1.185  15.847 -0.2048  0.0070 -0.4048
10713W        W28917   3.087  11.244  13.020  0.1255 -0.0898  0.1101
10714W        W28918  14.799  13.805   0.458  0.1571 -0.1680  0.0144
10715W        W28919  12.974   3.597  15.488  0.1937 -0.0372 -0.1060
10716W        W28920  16.114   4.669  15.185 -0.3120  0.0052  0.1480
10717W        W28921  12.264   4.451  12.414 -0.0139  0.0188 -0.1023
10718W        W28922   8.841  11.325  15.936  0.3518  0.1831 -0.2883
10719W        W28923   2.063  11.819  16.373  0.1664  0.1463  0.2846
10720W        W28924   5.528   2.437   1.392  0.1668 -0.0576 -0.1312
10721W        W28925   7.965   3.519  16.354  0.0981  0.0188  0.2083
10722W        W28926   0.519   9.917   3.799 -0.0056 -0.2392  0.2737
10723W        W28927   1.565  13.567  12.610 -0.1960  0.3163  0.1874
10724W        W28928   5.762   0.667   2.351 -0.0794  0.0360  0.0842
10725W        W28929  12.146   2.612  16.666 -0.0025 -0.3013 -0.3193
10726W        W28930  13.285   6.790   1.070 -0.1806 -0.1891  0.0084
10727W        W28931   5.436  16.526  12.314 -0.1255 -0.0902 -0.0320
10728W        W28932  16.743  14.552  15.704 -0.1117 -0.0803 -0.0763
10729W        W28933  16.537  12.687  14.155 -0.4391  0.2171  0.2370
10730W        W28934  12.710   1.269   4.324  0.1227  0.1746 -0.2716
10731W        W28935  13.681   0.722  17.342  0.0328 -0.1194 -0.0194
10732W        W28936   0.264   3.739  16.513 -0.0016  0.0403 -0.2968
10733W        W28937  15.501  11.241  15.596 -0.2140 -0.0072  0.0342
10734W        W28938  16.711   8.009   1.332  0.1277 -0.1638  0.2312
10735W        W28939  10.946  13.005  15.573 -0.1548  0.2618 -0.1869
10736W        W28940  17.092   9.396   2.928  0.3761 -0.1670  0.2298
10737W        W28941  13.846  16.512   1.445 -0.0745  0.0246  0.2715
10738W        W28942   1.716  11.666   0.177 -0.1010 -0.0800  0.4192
10739W        W28943   0.581  13.014   1.152  0.1050  0.1682  0.0008
10740W        W28944   1.502   9.920   2.128  0.4900  0.3219 -0.0882
10741W        W28945  10.321  13.369  13.376  0.0587 -0.4144  0.2662
10742W        W28946   3.691   2.796   0.347  0.1020 -0.2459 -0.0758
10743W        W28947   5.603  16.251   0.652  0.0464  0.0663 -0.0582
10744W        W28948  11.081   7.095  14.771  0.1151 -0.0606 -0.0739
10745W        W28949   0.176   4.792   1.730  0.0356 -0.0389 -0.1197
10746W        W28950  12.181  16.292  15.704  0.0927  0.0877  0.0887
10747W        W28951  14.368   5.387  17.050  0.1152 -0.0361  0.1301
10748W        W28952  13.417  14.957   2.149  0.1502 -0.0706 -0.1668
10749W        W28953   4.014   2.292   5.144 -0.3090 -0.2515 -0.0014
10750W        W28954  10.313   4.874   5.456  0.1179  0.0503  0.0589
10751W        W28955   3.159  14.017   2.045 -0.3947 -0.0932  0.1066
10752W        W28956   6.413  13.083  14.918 -0.4691  0.2646  0.1432
10753W        W28957   0.294   5.519   3.380  0.0463 -0.1655  0.0736
10754W        W28958  13.529   4.119  14.621  0.2431 -0.2775  0.1445
10755W        W28959   0.195  14.376   0.844  0.1229 -0.2515  0.0300
10756W        W28960  14.415  16.611  16.213 -0.1717 -0.1091 -0.2567
10757W        W28961  12.132   3.672   2.717 -0.0296  0.1239  0.2370
10758W        W28962  13.568   8.630  12.463  0.0208 -0.1104 -0.1780
10759W        W28963   6.952  16.838  16.332  0.1575  0.3275 -0.1261
10760W        W28964  15.575   8.300   3.458  0.1636  0.0824  0.2695
10761W        W28965   9.640   7.841   3.993 -0.1063 -0.1580 -0.0826
10762W        W28966   0.903   3.257   3.339  0.0979  0.0400  0.1015
10763W        W28967  13.079   3.682  13.499  0.1834 -0.0191  0.0990
10764W        W28968   8.897   2.114   3.651  0.2683  0.2799  0.1354
10765W        W28969  14.456  17.329   1.267  0.1509  0.1172 -0.0136
10766W        W28970  11.981  16.616   4.895  0.0926 -0.0524  0.0104
10767W        W28971   8.578   0.190   5.224  0.4807 -0.0484 -0.3579
10768W        W28972  11.145  13.815   0.777 -0.1046  0.0114  0.1580
10769W        W28973  16.705   4.989  15.519  0.2911 -0.3213  0.4235
10770W        W28974   3.766   8.897   1.746 -0.0803 -0.1310 -0.0936
10771W        W28975  11.988   3.815   5.542  0.3747  0.1804  0.1543
10772W        W28976  12.181   4.071  13.569  0.1040 -0.2948 -0.0122
10773W        W28977  12.786   5.291  16.829  0.0781  0.0432 -0.0801
10774W        W28978   6.820   0.503  14.943 -0.2021  0.2374 -0.1911
10775W        W28979  13.974  13.369   2.810  0.1943  0.3194 -0.1004
10776W        W28980   9.215   7.210  12.213 -0.3254  0.3770 -0.2978
10777W        W28981  16.214  13.224   0.153  0.1468  0.0456 -0.1491
10778W        W28982   7.924   7.583   1.737  0.0931  0.0055 -0.1073
10779W        W28983   3.666   1.179   4.377 -0.1489 -0.0108  0.0877
10780W        W28984  12.894   8.481   2.355  0.2735 -0.0598 -0.1735
10781W        W28985   1.281   9.838  13.331  0.0907  0.0837 -0.3273
10782W        W28986   9.730   5.411   1.127  0.3394 -0.1880  0.0034
10783W        W28987   9.048  12.302   2.410 -0.0086  0.2629  0.1275
10784W        W28988  14.006   3.232  12.149 -0.0340 -0.0602  0.0848
10785W        W28989   0.035  14.045   2.910  0.2919 -0.4883  0.2495
10786W        W28990   9.184   4.898   3.376  0.3649  0.0426 -0.0976
10787W        W28991  16.930  15.666  16.102  0.1043 -0.0279  0.3915
10788W        W28992   4.995  11.556   2.959  0.1217  0.0260  0.0932
10789W        W28993  16.540   0.115  15.782  0.0471  0.1346  0.0317
10790W        W28994  13.693   0.953  15.477  0.0654  0.1131  0.2026
10791W        W28995  16.000  11.112  16.938  0.1467 -0.2795  0.0783
10792W        W28996   5.113   9.598  15.620 -0.1123  0.0953 -0.0397
10793W        W28997   5.007  12.216  17.259  0.3163  0.2996 -0.1676
10794W        W28998  16.571  11.142  16.701  0.0993  0.0656 -0.1870
10795W        W28999   6.883  11.671   3.508  0.0961 -0.2546  0.1891
10796W        W29000   9.194   5.406   3.211  0.3022  0.3107  0.1267
10797W        W29001  15.678  12.891   1.250  0.2647  0.1415  0.0670
10798W        W29002  16.460  11.045  12.076  0.0476 -0.0117 -0.3301
10799W        W29003  14.339   7.607   2.655 -0.0500  0.1246 -0.1852
10800W        W29004  13.055   5.290  12.635 -0.1486 -0.0823 -0.0117
10801W        W29005   8.506  13.526   3.603 -0.1230  0.2519  0.1921
10802W        W29006  12.591  17.064  16.727 -0.0228 -0.4526 -0.2314
10803W        W29007   9.638   4.087  14.902 -0.1922  0.0705 -0.0739
10804W        W29008   9.113  17.182   4.030 -0.0223 -0.1737  0.0603
10805W        W29009   0.571  11.953   5.483  0.0791  0.2625  0.1913
10806W        W29010  14.409  11.856  15.810 -0.1053 -0.1309  0.2059
10807W        W29011  13.124  14.592  15.671 -0.0771  0.0218  0.1492
10808W        W29012   4.660  13.055  14.341  0.2607 -0.1618  0.0931
10809W        W29013  10.080  12.867   0.180 -0.0718  0.0076  0.0274
10810W        W29014   1.802   4.254  17.090 -0.1445  0.2486 -0.1446
10811W        W29015  13.123   3.968  12.609 -0.0888  0.2749  0.1352
10812W        W29016  10.782  11.223  14.529  0.0095  0.0132 -0.1352
10813W        W29017  16.731   7.315   3.527  0.0443 -0.2935 -0.2112
10814W        W29018  12.126   9.956   3.080 -0.1260 -0.0163  0.0328
10815W        W29019   6.856   9.104  13.037 -0.0336  0.0821  0.3362
10816W        W29020   2.260   9.778  13.478  0.2826  0.1733  0.0061
10817W        W29021  11.927   2.849   2.557 -0.1183  0.0652 -0.0551
10818W        W29022  16.502  15.059  13.742  0.2279 -0.1206  0.0009
10819W        W29023  10.872   3.737   3.270 -0.1961 -0.0150  0.1512
10820W        W29024   5.485   6.261   2.654 -0.2443  0.3491 -0.0985
10821W        W29025  10.506   8.942  17.391  0.0105  0.0871 -0.2577
10822W        W29026   5.688   0.500  12.127 -0.0770 -0.1986 -0.5298
10823W        W29027  15.626   9.103  12.443  0.2325  0.3426  0.0463
10824W        W29028  13.828  13.418   1.558 -0.2474 -0.3132 -0.1627
10825W        W29029   3.670  16.658  15.487 -0.0655 -0.2070  0.1517
10826W        W29030  15.700  14.035   4.477 -0.0459  0.1152 -0.0424
10827W        W29031   7.295  11.110  11.993  0.0897 -0.1679  0.2747
10828W        W29032  11.969   1.524   4.039  0.2900 -0.0889 -0.4054
10829W        W29033  11.203   5.801  13.692  0.0769 -0.0056 -0.1308
10830W        W29034   2.218  17.080   4.158  0.0050 -0.0986 -0.1232
10831W        W29035  15.252  15.300   1.550  0.0387  0.2102  0.1616
10832W        W29036  11.604  10.168  14.087 -0.0868  0.1059  0.0098
10833W        W29037  14.565   1.602  16.631  0.1398 -0.0506  0.0334
10834W        W29038  13.592   2.537  14.392 -0.0265 -0.2757  0.2479
10835W        W29039  15.181   2.276  17.106 -0.1121  0.1447 -0.0016
10836W        W29040   8.594   8.163  15.645  0.0967 -0.0632  0.0005
10837W        W29041  16.242  12.246  14.401  0.0740 -0.0841  0.1602
10838W        W29042   4.140  16.058   0.776 -0.0135 -0.6076 -0.1894
10839W        W29043   8.129   6.600  13.492  0.0239 -0.1683 -0.2073
10840W        W29044   1.752   4.397   3.132 -0.0993 -0.0914  0.0124
10841W        W29045   7.115   2.606   4.117 -0.3756  0.2435 -0.2815
10842W        W29046   3.304   9.841  14.986 -0.0627  0.1163  0.0207
10843W        W29047   9.533   1.636   5.558 -0.0325 -0.2674 -0.0656
10844W        W29048  16.437   6.408   4.893 -0.3150 -0.2581 -0.0546
10845W        W29049   7.131   9.755  15.021 -0.0846 -0.3868  0.0672
10846W        W29050  14.724  12.658  14.707  0.3465 -0.1093  0.3290
10847W        W29051   7.347   2.182  16.817 -0.0765  0.2448 -0.2189
10848W        W29052   1.150   4.303  13.813  0.0439  0.0257  0.0897
10849W        W29053   7.114  13.064  13.944 -0.1346  0.0268 -0.1929
10850W        W29054   0.041   3.830   3.802 -0.0642  0.1491 -0.1646
10851W        W29055  15.461  12.993  16.074 -0.2272 -0.1188 -0.3840
10852W        W29056   4.941   1.390   4.097 -0.1064 -0.2810  0.1681
10853W        W29057  14.778   3.991  14.954 -0.0754  0.3035  0.1202
10854W        W29058   7.354   2.059   0.452  0.0320  0.1440 -0.5042
10855W        W29059  13.054   2.177   2.947  0.1799  0.0016 -0.1525
10856W        W29060   7.257   0.816  15.924  0.4801 -0.0846 -0.0779
10857W        W29061  12.955  12.985  17.079  0.0511 -0.0993 -0.1123
10858W        W29062  14.342   2.754   3.845  0.2454 -0.0636  0.0213
10859W        W29063  15.959  13.615  15.021 -0.0705  0.0646 -0.0187
10860W        W29064   7.297   1.732  12.748 -0.1396 -0.0031 -0.1140
10861W        W29065   3.061   1.389   2.440 -0.0522 -0.4206 -0.1463
10862W        W29066  11.424   2.948  12.225 -0.2059 -0.1264 -0.2471
10863W        W29067  17.063  11.130   1.697 -0.3118 -0.1283 -0.0219
10864W        W29068  12.468  10.119  11.519  0.0951 -0.0627 -0.0690
10865W        W29069   0.038  13.896   0.656  0.2169  0.0736  0.2446
10866W        W29070   4.733  13.982  15.603  0.0320  0.0577 -0.0515
10867W        W29071  14.186  13.259   0.806  0.1608  0.0962 -0.4708
10868W        W29072   6.755   0.707   2.285  0.0590 -0.0435  0.0483
10869W        W29073  10.020  12.942   1.109 -0.1439  0.1621 -0.0208
10870W        W29074  15.933  10.399  13.688  0.1739 -0.0224  0.0048
10871W        W29075   1.503  15.546   4.941 -0.0642  0.2772 -0.2447
10872W        W29076   2.929   4.784   3.815 -0.0206  0.4357  0.2689
10873W        W29077  16.930   5.748  12.169  0.1229 -0.1443  0.1424
10874W        W29078  10.225   1.136   3.410 -0.1081 -0.0780  0.1083
10875W        W29079   9.430  17.184   2.010 -0.0357  0.3648  0.1808
10876W        W29080  16.295  14.811   3.526 -0.2554 -0.3341  0.1028
10877W        W29081   8.658   2.845  16.325 -0.1191  0.3280 -0.1724
10878W        W29082   3.491  10.639  16.881 -0.1759  0.0056 -0.0430
10879W        W29083  10.604   2.384  12.018 -0.2544 -0.1873  0.0113
10880W        W29084   0.638  12.663  15.275  0.0319  0.1040  0.2269
10881W        W29085  13.773   9.446   4.386  0.2608  0.2136 -0.0612
10882W        W29086  16.997  12.303  16.237  0.2765 -0.0002 -0.1016
10883W        W29087  12.786   6.550  14.724  0.0793  0.3311  0.3234
10884W        W29088  16.687  14.023  12.967  0.2191 -0.0771  0.1346
10885W        W29089  10.921  14.230   3.498 -0.0561  0.2521 -0.0460
10886W        W29090   9.573   6.327   1.581  0.0861 -0.0805  0.0769
10887W        W29091   0.113  13.271  14.755  0.0270  0.0265  0.1156
10888W        W29092   6.320  14.027  15.906 -0.1987  0.3693 -0.2056
10889W        W29093  15.122   4.183  17.099  0.0282  0.2581 -0.1270
10890W        W29094   3.650   9.418   3.394  0.2321 -0.0086  0.0789
10891W        W29095   8.784   9.280  14.449  0.2110 -0.0250 -0.3102
10892W        W29096   6.911   4.796  13.122  0.0812  0.1576 -0.0846
10893W        W29097   8.723   9.503   1.965  0.2351 -0.0140  0.2425
10894W        W29098   8.221   0.945   0.311 -0.2549  0.2378 -0.1661
10895W        W29099  10.951  14.728  17.303 -0.0128 -0.2988  0.0367
10896W        W29100   5.842  10.932   4.628 -0.1505 -0.2430  0.1460
10897W        W29101  13.320   0.887   2.727 -0.0536 -0.0686  0.0584
10898W        W29102  12.343  13.586  17.034 -0.1109  0.0420 -0.2796
10899W        W29103  10.878   1.319  12.643 -0.0975  0.3032  0.1636
10900W        W29104  11.356   2.331  13.899 -0.1623  0.0136 -0.0167
10901W        W29105   2.492   8.436   1.038  0.1112 -0.2742  0.1928
10902W        W29106  15.688   4.445   2.562 -0.1364  0.0431 -0.0487
10903W        W29107  12.087   1.996  13.334  0.2593  0.1477 -0.0754
10904W        W29108   9.830   7.432  16.212 -0.1723 -0.0284  0.1054
10905W        W29109   1.005   6.057  12.297  0.3055 -0.2078  0.0176
10906W        W29110  10.745   9.619  14.522  0.0139  0.0403  0.0347
10907W        W29111   4.414  14.211  17.234 -0.1815  0.0084  0.1440
10908W        W29112  16.095   0.557  14.970 -0.0086  0.0124 -0.2786
10909W        W29113   6.332   4.373   5.068  0.1522 -0.3401 -0.1242
10910W        W29114   4.865   6.645   1.305  0.3747  0.0730  0.0151
10911W        W29115   4.346  10.239   3.932 -0.3686 -0.2242 -0.3233
10912W        W29116  10.165   5.331   4.990 -0.2392  0.0607 -0.1783
10913W        W29117   3.564  15.431  15.862 -0.2441 -0.1362  0.0794
10914W        W29118   8.980  13.556   4.904 -0.1899 -0.0186  0.2056
10915W        W29119   3.090  15.498   2.740  0.0630  0.1187  0.1310
10916W        W29120  15.612  16.082  14.337  0.0229  0.0632  0.1458
10917W        W29121   6.795   6.521   3.954 -0.0256 -0.1382  0.0570
10918W        W29122  14.679  11.939  14.041  0.1275  0.1792  0.1690
10919W        W29123   0.686  11.941  12.806 -0.1512  0.0454 -0.2005
10920W        W29124   0.006  12.254  13.642 -0.0718  0.0552  0.1167
10921W        W29125   7.050  11.243  13.187 -0.0832 -0.0134 -0.0409
10922W        W29126  15.392   1.115   2.369  0.4322 -0.0736  0.2155
10923W        W29127   4.163   3.644  11.281 -0.1418 -0.2167  0.2080
10924W        W29128   4.504  15.032  16.060  0.3964  0.1287 -0.1413
10925W        W29129   6.851   8.814   2.022 -0.2445 -0.2030  0.1361
10926W        W29130   6.490   0.448  16.798 -0.4854  0.0156 -0.1722
10927W        W29131   4.152   5.186   3.973 -0.1226  0.0809 -0.0989
10928W        W29132  14.560  14.084  12.624 -0.2737  0.0767  0.1295
10929W        W29133   3.959   4.989  14.420  0.1221 -0.0227  0.2814
10930W        W29134  13.057  10.382   2.460 -0.1832  0.0604  0.1758
10931W        W29135  16.459   4.527  13.008  0.3477  0.0346  0.4090
10932W        W29136  14.784  16.196  13.795  0.3714 -0.0469 -0.0267
10933W        W29137   8.255  13.951   0.428 -0.0320  0.1327 -0.1476
10934W        W29138  16.207   4.247   2.908  0.4106 -0.1272  0.2713
10935W        W29139   7.367  14.564   1.963 -0.1486  0.1347 -0.0978
10936W        W29140   4.653   9.903   3.762  0.1637  0.0545  0.1011
10937W        W29141   6.973   5.544  15.226 -0.0983 -0.1885 -0.3431
10938W        W29142  17.302   0.516  15.820  0.0010  0.0378 -0.0442
10939W        W29143  11.810  16.519   2.719 -0.0667  0.0584 -0.1147
10940W        W29144   6.021   9.832  15.973 -0.0310  0.1228  0.1246
10941W        W29145   2.604   7.829  15.613 -0.1331 -0.1083 -0.0261
10942W        W29146   2.466  12.131   2.486  0.1422 -0.2928  0.0548
10943W        W29147   0.890   5.209   2.836  0.2294 -0.4638 -0.0007
10944W        W29148  11.363   7.484   5.039 -0.2946  0.1556 -0.1328
10945W        W29149   5.124   9.142   1.182 -0.0714 -0.1629 -0.1089
10946W        W29150   3.531   4.001   2.907  0.1370  0.2021  0.0244
10947W        W29151  16.958  11.451  16.822 -0.0269  0.0459 -0.1132
10948W        W29152   5.627   9.879  12.637  0.0062 -0.3120  0.0714
10949W        W29153   5.818  10.534  15.172 -0.2487  0.3853 -0.3142
10950W        W29154   0.558   0.001  14.074 -0.1743  0.0923 -0.1229
10951W        W29155   4.419   1.615   2.332  0.3560 -0.1080 -0.1184
10952W        W29156   2.799  12.936  12.757 -0.2551 -0.0357 -0.0637
10953W        W29157   7.210   3.409   1.938  0.0800 -0.0865 -0.1333
10954W        W29158   0.359  15.623   5.343  0.2310  0.0065  0.3142
10955W        W29159  13.737   7.462   0.511 -0.1706  0.0815 -0.1029
10956W        W29160   5.366   2.721  13.811  0.0391 -0.0899  0.0432
10957W        W29161   9.443   0.820  14.123 -0.0382 -0.0450  0.0650
10958W        W29162   9.928  11.658   3.897 -0.0809  0.1059  0.0302
10959W        W29163   2.052  10.914  15.939  0.2262  0.1333  0.1709
10960W        W29164   6.477   3.248  12.274  0.1305 -0.1440 -0.0885
10961W        W29165  15.326   4.608  13.687  0.1519 -0.1032  0.0715
10962W        W29166   9.302   7.911   5.252  0.3008 -0.0043  0.1854
10963W        W29167   5.470  14.671  15.234 -0.1250  0.7866 -0.3283
10964W        W29168  13.616  14.082  13.789  0.2742 -0.0688  0.3223
10965W        W29169  16.379   0.254   0.557  0.0070 -0.1237  0.0291
10966W        W29170  14.672  14.698  17.092  0.1737 -0.0862  0.1716
10967W        W29171   5.744   2.868  12.352 -0.4279  0.2210 -0.0376
10968W        W29172   1.753   9.860  13.359 -0.5053 -0.0747  0.1454
10969W        W29173   0.674   7.177  16.286  0.4384  0.0342 -0.1409
10970W        W29174  16.080   8.607   4.736  0.0313  0.1162  0.1829
10971W        W29175   7.243   7.196  15.929  0.0611 -0.3843  0.1212
10972W        W29176   7.745   3.805   0.688  0.0401  0.1168 -0.1652
10973W        W29177   8.312   4.837   1.470  0.3059 -0.0363  0.3067
10974W        W29178   2.960   2.967  12.931 -0.2082  0.0807 -0.0086
10975W        W29179   8.470   3.951  12.288 -0.1923 -0.0807  0.2455
10976W        W29180   4.242  11.888   4.473  0.1323  0.1554  0.2004
10977W        W29181  13.613  15.342  13.515  0.1090  0.1999 -0.0464
10978W        W29182   4.142  17.308  15.588  0.2487  0.2445 -0.0853
10979W        W29183  11.490   8.205   2.438  0.1022  0.1658 -0.2062
10980W        W29184  11.026   0.147   4.181  0.2078  0.2165  0.0575
10981W        W29185  15.638  10.311   3.456 -0.0217  0.1146  0.2996
10982W        W29186  12.270   9.626   1.451 -0.0505 -0.0709 -0.0085
10983W        W29187  13.487   2.243  13.485  0.0918  0.0396 -0.2861
10984W        W29188   0.551  13.787   2.171 -0.0325  0.1317 -0.1501
10985W        W29189  16.275   5.215  15.722  0.2047 -0.1297  0.1923
10986W        W29190  14.178   6.493   1.344 -0.1393 -0.3183  0.0047
10987W        W29191   7.763  14.003   1.984 -0.0273 -0.2196 -0.0603
10988W        W29192   0.422  14.352   4.979 -0.0133  0.1461 -0.1015
10989W        W29193   6.469  13.166  15.987 -0.0721  0.2302  0.1621
10990W        W29194   6.102   8.429   3.509 -0.1152  0.1720  0.1887
10991W        W29195  10.462   7.640   0.502  0.1836 -0.2439  0.2986
10992W        W29196  10.765  14.548  15.155 -0.0756  0.0868 -0.0164
10993W        W29197   4.379   8.442  13.823 -0.1521 -0.4527 -0.1048
10994W        W29198   2.151  15.194  14.787 -0.4506 -0.0071  0.2122
10995W        W29199   8.556   0.130  13.727  0.0537  0.1580 -0.3267
10996W        W29200   3.038   1.593  12.840  0.1300  0.2159  0.0362
10997W        W29201  10.821  17.188   1.049  0.4146 -0.0550 -0.0392
10998W        W29202   9.212  12.313   4.258 -0.0287  0.2671  0.3969
10999W        W29203   8.182   5.365   1.578  0.1386 -0.1521  0.1301
11000W        W29204   7.915   4.103  17.031 -0.3040 -0.0692  0.2268
11001W        W29205  15.742   3.178  15.104  0.0505  0.2073 -0.1056
11002W        W29206   6.104   5.693   3.265  0.2277 -0.0560 -0.2774
11003W        W29207   8.697   6.940   0.560  0.2742 -0.0031  0.0925
11004W        W29208  13.892   1.131  16.592  0.0504  0.3187  0.0516
11005W        W29209  14.461   8.803   0.042  0.1521 -0.1662 -0.0638
11006W        W29210   7.848  10.236   2.338 -0.0446 -0.0737  0.0545
11007W        W29211   9.122   0.974   4.855 -0.0449  0.0638 -0.1296
11008W        W29212  11.553   8.574  13.022  0.4492  0.1094 -0.0275
11009W        W29213   5.064  13.047   1.930  0.1389 -0.0069 -0.1988
11010W        W29214  16.220   6.368  17.029 -0.0421 -0.0374  0.2312
11011W        W29215  11.298   0.285  15.295 -0.3783  0.0882  0.0978
11012W        W29216  16.184   9.807   4.032  0.2080 -0.0228  0.0247
11013W        W29217   8.354  12.648  17.280 -0.2266 -0.2148  0.2153
11014W        W29218  11.198   9.880  14.360 -0.2306  0.1303 -0.2091
11015W        W29219   5.365   4.902  12.534  0.0360  0.1514 -0.0558
11016W        W29220   5.252   8.609   4.958  0.0170 -0.2866 -0.1554
11017W        W29221   8.283  10.557  14.398 -0.0997  0.0642 -0.1505
11018W        W29222  13.567   7.443  17.088  0.2410 -0.0393 -0.0974
11019W        W29223  14.533  15.615   0.430 -0.2024  0.0306 -0.0080
11020W        W29224  12.087   8.632  17.275 -0.0649 -0.1486 -0.1793
11021W        W29225   2.135   5.376   0.152  0.2286  0.0280 -0.3472
11022W        W29226   9.256   9.394   2.486 -0.1777  0.1181  0.2748
11023W        W29227   8.663   1.255   2.480  0.2412 -0.0198  0.2767
11024W        W29228   4.067   1.500  12.324 -0.3096  0.0300  0.2648
11025W        W29229   4.830   2.638  16.816 -0.2398 -0.0757 -0.1569
11026W        W29230   6.799  11.712  13.079  0.1107  0.0922 -0.0634
11027W        W29231  14.884  11.778  17.136  0.2372  0.0744  0.0294
11028W        W29232   1.421   1.086   5.236 -0.3763  0.0492  0.3243
11029W        W29233   7.684   6.027   0.093 -0.1380  0.1517  0.0312
11030W        W29234   7.432   2.718   2.808 -0.4897  0.0376  0.1151
11031W        W29235  12.629  14.924  14.194 -0.1780 -0.0688  0.1012
11032W        W29236   1.035   2.387   4.935  0.1501  0.0863 -0.2042
11033W        W29237   0.686   8.085   1.667  0.1534 -0.1921  0.0344
11034W        W29238  11.193   6.317  14.093  0.0797 -0.1752  0.0200
11035W        W29239   1.818  12.883   1.511  0.1565 -0.1092  0.3476
11036W        W29240  11.266  17.323   4.718  0.3455  0.0022 -0.1194
11037W        W29241   0.357   2.183   1.403  0.1135 -0.1473 -0.3167
11038W        W29242   9.829   5.902  16.300 -0.0606 -0.1358  0.0808
11039W        W29243  15.270   2.439   3.479 -0.1043 -0.0350  0.0702
11040W        W29244  12.572   7.770  15.446  0.0801 -0.3225  0.1511
11041W        W29245   6.660   3.308  17.478 -0.5767  0.0103 -0.0581
11042W        W29246   6.662   6.749   0.522  0.0059  0.3855 -0.1841
11043W        W29247   8.956  12.758   4.412  0.3514  0.0291 -0.2030
11044W        W29248   2.327   4.710   4.682 -0.1095  0.0849 -0.1278
11045W        W29249   4.705   7.884  12.686 -0.2705  0.1377 -0.0934
11046W        W29250  13.448   8.395   3.581  0.0306  0.1338  0.0034
11047W        W29251   2.716   7.953   4.956  0.0689  0.2620  0.4097
11048W        W29252  12.436   2.875  15.869  0.1096  0.1953  0.1676
11049W        W29253  16.012   9.978   3.536 -0.1480  0.0206 -0.0779
11050W        W29254  16.557   6.028  13.827 -0.0533 -0.0914  0.0967
11051W        W29255  12.144  11.892  13.270 -0.0754  0.2853 -0.0594
11052W        W29256   6.797   4.882   3.130  0.2155  0.0870  0.1327
11053W        W29257   6.496  10.601  16.023 -0.0318 -0.0877 -0.0193
11054W        W29258   4.498   9.691   1.812 -0.2123 -0.0153 -0.3375
11055W        W29259  11.152  10.901  12.494 -0.0462 -0.0035  0.1176
11056W        W29260   6.425   3.063   4.910  0.0279 -0.0871 -0.0380
11057W        W29261   6.098  16.661   2.658  0.1617  0.1741 -0.0484
11058W        W29262   7.188   1.606  13.946 -0.1306  0.0128  0.0722
11059W        W29263  16.510  15.394  15.382  0.1157  0.0655  0.0649
11060W        W29264   4.181   0.482  12.659 -0.3290  0.1005 -0.3945
11061W        W29265  10.877   0.747  14.097 -0.0105  0.1397  0.1670
11062W        W29266  11.183   0.563   2.854  0.2032  0.3622  0.0969
11063W        W29267   4.115   6.925   4.177  0.3259 -0.0344 -0.1266
11064W        W29268   3.881   4.906   2.555  0.1091 -0.2152 -0.1444
11065W        W29269   9.691   4.523  15.864  0.2518  0.3218 -0.0749
11066W        W29270  16.953   2.117  15.515  0.3624 -0.0885  0.1811
11067W        W29271  12.036   4.152   4.388  0.1636  0.1842 -0.0121
11068W        W29272   5.073  16.152   3.531  0.0101  0.0747  0.0674
11069W        W29273   3.335   6.532  12.706 -0.1721  0.1059 -0.0967
11070W        W29274   9.835   1.716   1.716  0.0877 -0.1338 -0.0203
11071W        W29275   7.451  15.447   3.087 -0.1950 -0.0662 -0.0241
11072W        W29276  13.966   0.289  14.753  0.0905 -0.0922 -0.0349
11073W        W29277   1.822   1.449  16.529  0.2346  0.0045 -0.1354
11074W        W29278  15.608   6.164  17.332  0.0118 -0.1906 -0.4975
11075W        W29279  10.381  15.549   3.065  0.1967  0.1670 -0.0670
11076W        W29280  13.261  10.628  13.834 -0.3559  0.0439 -0.1102
11077W        W29281   5.547   3.292  13.333 -0.0128 -0.0476 -0.0876
11078W        W29282   4.358  14.327  13.267  0.5193 -0.2180 -0.0292
11079W        W29283   7.240   2.852   0.686  0.3222  0.1222  0.0831
11080W        W29284   6.301   5.687   6.019  0.4231  0.2418 -0.1939
11081W        W29285   3.430   3.249   4.715 -0.2877  0.1616 -0.2282
11082W        W29286  14.573   3.463   0.644 -0.0412 -0.2263 -0.1803
11083W        W29287  14.890   5.887   0.172  0.1530 -0.2340  0.0004
11084W        W29288   0.466   2.789   1.589 -0.1659  0.2221 -0.0059
11085W        W29289  10.857   5.809   5.471  0.1872 -0.1563 -0.0117
11086W        W29290   9.728   3.885   1.968 -0.2161  0.4764  0.0202
11087W        W29291   8.224  11.558   1.318  0.1300 -0.0680  0.1767
11088W        W29292   3.848  11.977   0.057  0.3435 -0.1857  0.1845
11089W        W29293   7.777   8.006  16.050 -0.1984  0.3357  0.2654
11090W        W29294  13.581   9.710  17.290 -0.2362  0.3821 -0.1439
11091W        W29295  13.236  11.991  16.793 -0.2698 -0.0811  0.1358
11092W        W29296   0.530   0.508  14.196  0.1522  0.1723  0.0898
11093W        W29297  14.326   8.873   4.738  0.0862  0.1027  0.1771
11094W        W29298  16.816   3.384   4.259 -0.1159 -0.3036  0.0029
11095W        W29299   1.804   7.234   0.645  0.0657 -0.1914  0.2458
11096W        W29300   9.673   9.424  14.034 -0.0301  0.0024 -0.2851
11097W        W29301   6.069   9.652  17.275  0.2086  0.0360  0.0411
11098W        W29302   6.056   4.524   2.409  0.1729 -0.0663  0.1428
11099W        W29303  11.404   5.280   4.861 -0.2666  0.1363  0.0340
11100W        W29304  12.499  14.296   0.684  0.0661  0.1351 -0.1523
11101W        W29305  13.437   5.709   5.235  0.1959 -0.0780 -0.0431
11102W        W29306   1.961   4.478   5.415  0.0987  0.1043  0.1389
11103W        W29307   5.749   9.547  16.292 -0.1645 -0.0554 -0.1602
11104W        W29308   4.803  11.757  15.381 -0.1133  0.0163 -0.0437
11105W        W29309  14.248   3.204  17.316  0.2650  0.0751 -0.1023
11106W        W29310   1.011   2.066   4.458  0.1707 -0.1297 -0.0404
11107W        W29311   6.917  17.173   5.088  0.3299  0.1063  0.3396
11108W        W29312   4.305   6.315  16.468  0.0983  0.1343  0.1239
11109W        W29313   3.458   0.275   4.354  0.0754 -0.2765  0.0912
11110W        W29314   5.467   7.417   0.489  0.2826  0.2269 -0.1630
11111W        W29315   1.640  12.756  16.247 -0.2336 -0.0458  0.2631
11112W        W29316  12.972  15.792   3.728 -0.1190 -0.4082  0.1308
11113W        W29317   1.888   3.904   5.456  0.0323  0.1245 -0.0026
11114W        W29318   8.523   2.273  14.711 -0.0384 -0.1429 -0.0170
11115W        W29319  15.385   0.419  12.445  0.2247 -0.0071 -0.2535
11116W        W29320  15.945  12.586   5.105  0.1120  0.1831  0.0735
11117W        W29321   3.398  12.631  14.736  0.0410 -0.1939  0.1594
11118W        W29322   3.711   6.912  12.654 -0.0304 -0.1745  0.0800
11119W        W29323   3.311   9.275  16.585  0.0291  0.0554  0.0493
11120W        W29324   6.599  11.984  16.881 -0.0578  0.2266 -0.5734
11121W        W29325  15.337  14.280  12.740  0.2946 -0.1416 -0.1566
11122W        W29326   0.609  13.288  13.060 -0.1309 -0.1766 -0.2270
11123W        W29327  12.860   8.850  14.055 -0.0625 -0.0771 -0.2221
11124W        W29328   6.611  12.573  12.736 -0.1645 -0.0251 -0.1419
11125W        W29329   1.665   4.130   0.144  0.0332  0.2682 -0.1861
11126W        W29330  16.268   7.863   5.321  0.2286  0.3429  0.2103
11127W        W29331   9.793   7.477   3.290  0.2148  0.2999  0.0878
11128W        W29332   8.395   9.094   1.041  0.2078 -0.3577  0.1599
11129W        W29333   0.797   8.389   2.544 -0.0431  0.1578 -0.0134
11130W        W29334   2.304  12.205   3.141 -0.0335 -0.1132 -0.0979
11131W        W29335  11.593   4.300  12.630  0.2127 -0.2620 -0.0620
11132W        W29336   6.290  10.781  15.129 -0.1099 -0.3096 -0.2435
11133W        W29337   9.265   6.591  14.035  0.2806 -0.1260 -0.1775
11134W        W29338   7.159   1.937   5.377 -0.1228  0.2733 -0.0982
11135W        W29339   9.104   1.008  12.683 -0.0101  0.0567 -0.2098
11136W        W29340   2.641   6.147   1.977  0.3100  0.1544  0.1668
11137W        W29341   7.628  14.504  16.513 -0.0607 -0.1001 -0.1256
11138W        W29342   6.798  17.122   2.357 -0.2370  0.3108  0.0330
11139W        W29343   5.121  13.171  15.377  0.1354  0.1366  0.1053
11140W        W29344   2.500   9.666   4.397 -0.0073 -0.3327 -0.0479
11141W        W29345  15.205   1.162  14.526  0.2396 -0.0483 -0.3219
11142W        W29346   2.434   9.270   1.360  0.1917  0.0916 -0.0922
11143W        W29347   6.363  12.230   2.915 -0.1258 -0.2563 -0.3068
11144W        W29348  10.184   3.395   0.321  0.2883  0.0294 -0.1203
11145W        W29349   6.810   1.153  15.672  0.1074 -0.0404  0.0647
11146W        W29350   2.517  10.458  15.247 -0.1406  0.0524  0.1375
11147W        W29351   0.702   7.782  15.611  0.0951 -0.0679  0.1900
11148W        W29352  16.216   6.952   4.113 -0.2634  0.0522  0.2000
11149W        W29353  17.184   4.547  13.638  0.2278 -0.1102  0.0633
11150W        W29354   3.868  16.040  12.704 -0.2448 -0.0194  0.1028
11151W        W29355   6.900   6.227  14.221 -0.0067 -0.0578  0.1396
11152W        W29356   5.815  17.192  12.344  0.0870  0.0098 -0.0458
11153W        W29357  15.130   1.109   1.937  0.1217 -0.3925  0.2946
11154W        W29358   1.709  10.737  13.498 -0.2134 -0.0199 -0.0828
11155W        W29359  14.824  13.933   1.708  0.1020  0.2279  0.3933
11156W        W29360   0.015  16.289   1.543 -0.2163  0.1940 -0.0138
11157W        W29361   3.752  10.521  15.800  0.1523 -0.0408 -0.0916
11158W        W29362  13.070   9.633  13.373  0.0234 -0.0380  0.0566
11159W        W29363   1.021   0.361   3.041 -0.1842  0.0877 -0.0341
11160W        W29364  14.766  13.138  16.343 -0.1621  0.0847  0.2415
11161W        W29365   0.795   9.193  15.845 -0.0784 -0.2666 -0.0410
11162W        W29366   2.894   8.151  12.409  0.0681  0.1683 -0.0655
11163W        W29367   9.429   8.706   2.055 -0.0612  0.2585 -0.0571
11164W        W29368   3.480   7.732  15.001  0.1400 -0.0951 -0.1516
11165W        W29369  10.001  14.068  16.532  0.0637  0.2037 -0.3091
11166W        W29370  11.639  13.108   0.763  0.0157  0.1059 -0.0038
11167W        W29371   6.853  15.057  14.396 -0.1420  0.0934 -0.1083
11168W        W29372  15.062  12.483  14.356  0.0754  0.3006  0.2368
11169W        W29373   7.205  16.373   0.781  0.0473 -0.2901 -0.1274
11170W        W29374   1.846  12.762   1.983  0.1821 -0.2374 -0.0255
11171W        W29375   3.554  10.569   4.239  0.2163  0.1245  0.0213
11172W        W29376   0.130  13.955   2.403 -0.1064 -0.1033  0.0313
11173W        W29377   9.275   7.176   5.857  0.0428 -0.4810  0.1606
11174W        W29378  15.385  11.068  12.888 -0.2866  0.0813 -0.2291
11175W        W29379   1.934  14.010  13.475  0.1999  0.1379  0.0667
11176W        W29380   9.189   6.922   5.406 -0.2627 -0.0258 -0.0410
11177W        W29381  11.755   0.767   1.913  0.1809 -0.0804  0.0854
11178W        W29382   0.015   6.520   3.374 -0.0980  0.4483 -0.0663
11179W        W29383   4.756   8.989  17.494 -0.3658  0.0618 -0.2323
11180W        W29384   2.879   0.991   2.685  0.3853  0.0170 -0.0432
11181W        W29385   5.986   0.895   1.366 -0.3566  0.2877  0.0567
11182W        W29386  11.983  10.241   2.111 -0.2119  0.2660 -0.0677
11183W        W29387  12.998  16.981   1.381 -0.0340 -0.1246 -0.0173
11184W        W29388   5.835  17.005   1.507  0.1708  0.0212 -0.0830
11185W        W29389  10.615   2.826  17.298 -0.0099  0.0770  0.0938
11186W        W29390  16.131   8.344   4.334 -0.1605 -0.0839  0.2281
11187W        W29391   7.271   7.870   1.235 -0.1075  0.1537  0.0440
11188W        W29392  14.989   5.897  11.179 -0.0603  0.2594  0.3192
11189W        W29393   6.601   8.300   0.523 -0.2312  0.2144 -0.2785
11190W        W29394   1.508   2.689   1.897  0.0723  0.2851  0.0548
11191W        W29395   1.822  11.163   3.833 -0.1265 -0.2194  0.1869
11192W        W29396   9.630  13.354  17.166 -0.3596  0.0063  0.0984
11193W        W29397   2.981  12.734   3.116 -0.3078 -0.2498  0.0302
11194W        W29398  17.280   2.311   1.341  0.1949  0.2712  0.2290
11195W        W29399  12.384  14.109  16.955 -0.0770 -0.3312  0.1691
11196W        W29400   1.326   8.060  17.273 -0.0976  0.0215  0.1167
11197W        W29401   7.654   7.303   5.317 -0.2650 -0.0958 -0.0531
11198W        W29402  14.632   0.225  16.533  0.1176 -0.1228 -0.0439
11199W        W29403   0.999   6.983   1.974  0.0076 -0.1129  0.3018
11200W        W29404  11.392   7.343   0.318  0.3181 -0.1827 -0.0702
11201W        W29405   5.737   6.723   4.157 -0.2202  0.0262 -0.3371
11202W        W29406  14.273   0.694  14.862 -0.1847 -0.1859 -0.2560
11203W        W29407  14.815   1.797   0.342  0.0952 -0.1157 -0.0464
11204W        W29408  12.724   9.547  14.120  0.1559 -0.0515 -0.1573
11205W        W29409  14.180   7.288  17.325 -0.3747 -0.0193  0.1380
11206W        W29410  11.396  16.304  13.705 -0.2278 -0.1710 -0.3044
11207W        W29411   6.053   8.750   2.972  0.0874  0.0714  0.5187
11208W        W29412  16.851   7.773  15.994  0.1096  0.0904  0.1957
11209W        W29413   6.058   7.819  15.893  0.0190 -0.1395 -0.2711
11210W        W29414   4.066  15.843   5.430  0.0195 -0.1452 -0.1302
11211W        W29415   5.974   3.369  14.685  0.0618  0.0253  0.1327
11212W        W29416   3.189  15.284   0.513  0.0843  0.1970  0.2996
11213W        W29417   1.867   5.680   3.790  0.0450  0.1480 -0.0570
11214W        W29418  13.097   9.428   0.394 -0.0639  0.1828 -0.1859
11215W        W29419   9.514   3.250  16.564  0.1364  0.1413  0.0611
11216W        W29420   8.016   6.793   0.858 -0.1083 -0.0574  0.2633
11217W        W29421   0.172   7.959   4.015  0.0130 -0.3747 -0.0428
11218W        W29422   3.049   8.660  15.011  0.0653 -0.0880 -0.1720
11219W        W29423   8.369   9.574  12.911 -0.1139  0.2716 -0.1084
11220W        W29424  15.578  15.448   0.692  0.3234 -0.0775  0.0168
11221W        W29425  14.311   8.580   3.957  0.0145 -0.2311  0.0207
11222W        W29426   0.714   2.708  13.856 -0.2664 -0.2656  0.1141
11223W        W29427   2.611   2.170   0.439  0.0999 -0.3152  0.4065
11224W        W29428   3.507  11.503  14.814 -0.0553 -0.0091  0.0932
11225W        W29429  16.209  10.473   4.281 -0.0964 -0.2310 -0.1796
11226W        W29430   2.704  15.380   3.669  0.0742  0.0113 -0.0485
11227W        W29431   6.610   6.253  16.349  0.2937 -0.1241 -0.1100
11228W        W29432   6.824   8.483   5.585  0.1283  0.2989  0.0890
11229W        W29433  15.272  12.791   5.642 -0.1532 -0.0472 -0.2221
11230W        W29434   7.918   7.207  17.481  0.0961  0.0345 -0.0931
11231W        W29435   2.003   0.606  14.074 -0.0192 -0.1747  0.1490
11232W        W29436  10.076   2.674  16.366 -0.2063 -0.1769  0.0371
11233W        W29437  11.043  16.703  16.009 -0.1344 -0.0683 -0.0577
11234W        W29438   3.931  10.555  17.124  0.0150  0.3019  0.4500
11235W        W29439   9.772  15.090  14.380 -0.1377  0.2333  0.1222
11236W        W29440  15.797   3.448   4.797  0.2360 -0.3036 -0.2098
11237W        W29441  15.739  17.090   0.234 -0.0135  0.4370 -0.3209
11238W        W29442  13.098   5.764   4.846 -0.0528 -0.1140 -0.1915
11239W        W29443   1.194   1.322  13.167  0.2890  0.1680  0.2061
11240W        W29444   9.480  16.739  16.400  0.0038  0.0349 -0.1470
11241W        W29445   1.395   7.433   0.375 -0.1672 -0.0189  0.1006
11242W        W29446   3.558   2.342  12.953 -0.0270  0.4131 -0.1305
11243W        W29447   4.054   5.962  16.061 -0.2142 -0.1052  0.1387
11244W        W29448  13.100  14.412   3.741  0.2104 -0.2891 -0.1962
11245W        W29449  15.695  16.110  13.806 -0.3939  0.2568 -0.2264
11246W        W29450  17.230  17.063   0.112 -0.0192  0.4855 -0.1278
11247W        W29451   9.322   7.431   2.876  0.4947  0.1148 -0.1303
11248W        W29452  10.229   5.821   3.367 -0.2181  0.1066 -0.0721
11249W        W29453  13.830  12.118  13.689  0.0545  0.0002 -0.0195
11250W        W29454  16.036   9.581   2.214  0.0220 -0.0133  0.2121
11251W        W29455  14.104  11.012   5.078 -0.2377 -0.1147 -0.1555
11252W        W29456   9.675   8.465   2.408  0.3127  0.2095 -0.0544
11253W        W29457   3.085   4.437   1.221 -0.0065  0.0017  0.1530
11254W        W29458  11.257  16.130  12.863 -0.0361 -0.0335  0.0968
11255W        W29459   2.182   2.082  12.976  0.1114 -0.1033 -0.2182
11256W        W29460   5.717   7.715  17.224 -0.0914 -0.0030  0.1608
11257W        W29461  15.811  15.223  15.388  0.3471  0.1735 -0.1196
11258W        W29462   9.675  15.478  14.765 -0.0970  0.2098 -0.0079
11259W        W29463   3.834   9.174   1.333  0.1918 -0.1971  0.4259
11260W        W29464   5.435   9.027   1.616 -0.1496 -0.0604 -0.1948
11261W        W29465   8.572   5.255  17.290  0.2667  0.1653  0.3987
11262W        W29466   8.784  17.114  13.349  0.0939  0.0161  0.0145
11263W        W29467   1.952   7.193  15.492 -0.1520  0.1424 -0.2962
11264W        W29468   4.943  10.438  15.530 -0.0958 -0.0302  0.0415
11265W        W29469   5.297  15.534   2.329 -0.0709  0.2290 -0.2351
11266W        W29470  16.061   9.672  15.327  0.0166 -0.1604 -0.2567
11267W        W29471   5.773   1.874   2.643  0.0316  0.1214 -0.0568
11268W        W29472   1.146   4.046   4.243  0.2626 -0.1183 -0.0527
11269W        W29473  16.909   3.286  13.576 -0.0952  0.2608 -0.0752
11270W        W29474   8.801   3.302  15.447 -0.1433 -0.1177  0.0735
11271W        W29475  13.440  11.219  12.933 -0.1406 -0.1101  0.2900
11272W        W29476  10.360   8.220   4.531 -0.1808  0.3959 -0.2687
11273W        W29477  14.819   9.082   1.444 -0.2328 -0.4379  0.2668
11274W        W29478   4.216  12.545   4.603 -0.0479  0.1954  0.1579
11275W        W29479   7.857  10.788   2.873 -0.1276  0.0287  0.0537
11276W        W29480  12.512   9.370  16.239 -0.3153 -0.2206 -0.1599
11277W        W29481   1.986   8.353   5.739 -0.6053  0.0802 -0.2244
11278W        W29482   2.542   3.419   1.059  0.2683 -0.2233  0.0765
11279W        W29483   5.118   7.827   4.275  0.2776  0.0185  0.1254
11280W        W29484  10.135  15.264  17.121 -0.0060 -0.1472 -0.0749
11281W        W29485   6.024   6.223   1.523  0.1975  0.4322  0.1315
11282W        W29486  11.603   8.430   0.882 -0.3374 -0.0732  0.1755
11283W        W29487   8.732  15.687   0.443 -0.2050 -0.3310  0.1773
11284W        W29488   9.575   9.628   5.300  0.2690  0.0497 -0.3808
11285W        W29489  12.281   3.643  15.335 -0.0548 -0.1262  0.2926
11286W        W29490   1.643   3.165  12.998 -0.2636 -0.2148  0.0097
11287W        W29491   6.828   9.480   2.051 -0.1446  0.2301  0.0098
11288W        W29492  16.644  10.951  16.203 -0.0421 -0.1800 -0.3571
11289W        W29493  14.646  15.487  14.091 -0.0325  0.1374  0.1607
11290W        W29494   6.559  13.408  12.729  0.1246  0.1941 -0.1592
11291W        W29495   6.696   6.851   3.176 -0.1834  0.2342  0.0530
11292W        W29496  12.860   8.574  16.612 -0.0770 -0.0546  0.0928
11293W        W29497   0.149  12.038   5.048 -0.2807 -0.0443 -0.0662
11294W        W29498  10.813   1.988  13.443  0.1711 -0.1162  0.0926
11295W        W29499   0.628  15.242  16.223  0.4394 -0.0832 -0.3371
11296W        W29500   3.534  12.887  14.253 -0.1032 -0.1859  0.2559
11297W        W29501   7.801   7.709  17.387 -0.0477  0.1428 -0.0954
11298W        W29502   3.316   7.862  12.310 -0.2928  0.0601  0.1147
11299W        W29503  10.644   9.138   4.677 -0.0601  0.1502 -0.0324
11300W        W29504   2.075   3.009   3.693  0.0972  0.0618 -0.4406
11301W        W29505  10.535   1.185   2.327  0.1000  0.2278 -0.0656
11302W        W29506  14.686  16.127   4.071  0.3736  0.1551  0.0692
11303W        W29507   8.945   9.760  14.368 -0.2451  0.1455  0.0393
11304W        W29508   8.298  15.615  16.625  0.0444 -0.0086 -0.2917
11305W        W29509  13.891  14.337   1.841  0.1243 -0.1502 -0.1053
11306W        W29510   9.316   6.534   1.197 -0.2547 -0.2388 -0.1196
11307W        W29511  15.800   9.253   1.309 -0.1526  0.1637 -0.2322
11308W        W29512   1.282   0.122  15.331 -0.2023  0.0083 -0.1098
11309W        W29513   4.057  12.493  15.919  0.1325  0.3464 -0.0727
11310W        W29514  10.101   0.010  14.191 -0.1362 -0.0615 -0.1147
11311W        W29515   6.049  15.905  15.902 -0.0037  0.1655  0.2216
11312W        W29516   6.175   4.927  14.846  0.0694  0.0107  0.1615
11313W        W29517  13.263  11.506  15.650 -0.0427 -0.0076 -0.2834
11314W        W29518  11.834   7.152  12.456 -0.3346  0.1260  0.0557
11315W        W29519  16.012  14.320  13.515 -0.4601  0.1517 -0.0942
11316W        W29520   6.152   1.635   4.605 -0.0249 -0.0695  0.2155
11317W        W29521   7.375   4.836   1.879 -0.1835  0.3218 -0.1589
11318W        W29522  15.799  13.160  15.264  0.3329 -0.0493 -0.2370
11319W        W29523  11.145   7.976   2.814  0.0048 -0.5258 -0.0773
11320W        W29524   2.089   5.732  11.664  0.0430  0.0487 -0.1022
11321W        W29525   2.644  14.315  14.917  0.0825  0.2265 -0.1190
11322W        W29526  11.056  11.379   0.514 -0.0134  0.2725  0.0785
11323W        W29527   9.013   0.638  13.125 -0.2601 -0.1331  0.2404
11324W        W29528   3.188   2.425  14.647  0.3025  0.0225 -0.2400
11325W        W29529  10.490  15.194   2.358  0.0538  0.0727  0.0038
11326W        W29530  11.183  14.302   2.005 -0.3034 -0.1896  0.2252
11327W        W29531   8.128   9.176  15.517 -0.1995 -0.1578  0.1781
11328W        W29532  10.177  15.090  16.487 -0.1083 -0.2383 -0.0913
11329W        W29533   4.241   6.475  14.734  0.1521 -0.1334  0.0952
11330W        W29534   2.570   9.728  14.519 -0.1487  0.2837  0.1170
11331W        W29535   0.113   2.404   4.862  0.1277 -0.0212  0.0495
11332W        W29536   6.705  15.172  13.012 -0.0561 -0.0600 -0.4587
11333W        W29537   3.607   4.413   0.611 -0.3317  0.1292 -0.0907
11334W        W29538  16.835  15.533   2.585  0.2006 -0.0462  0.2797
11335W        W29539  11.192   3.388  16.123 -0.0954 -0.2782 -0.2758
11336W        W29540   7.561  16.983  13.337 -0.0721  0.0706 -0.0895
11337W        W29541   9.108  16.769  13.273  0.3128 -0.2686 -0.1590
11338W        W29542  14.676  14.702   3.188  0.0171 -0.0626 -0.0344
11339W        W29543  15.291   0.981   3.142 -0.1200  0.2573  0.3532
11340W        W29544  17.236  11.609   1.814  0.0658 -0.1845  0.2654
11341W        W29545  16.269   3.158  12.001 -0.0554  0.4655 -0.1624
11342W        W29546  12.242  15.774   1.704  0.0303  0.2114 -0.1240
11343W        W29547  11.092   5.785   3.232  0.3407 -0.0108 -0.1231
11344W        W29548   9.906   2.229   3.921 -0.1094  0.0107 -0.2682
11345W        W29549   5.881  12.541   0.294 -0.0351  0.0657  0.1380
11346W        W29550  16.083  11.345   2.750  0.2226 -0.0963  0.1566
11347W        W29551   0.535   8.172   3.046  0.4486 -0.1691 -0.3900
11348W        W29552  13.743   7.232  16.401  0.0532 -0.2730 -0.0485
11349W        W29553   9.120   6.841  16.752 -0.1548 -0.1558  0.2519
11350W        W29554  16.523   7.986   2.211  0.4072  0.1131  0.0641
11351W        W29555  10.861   4.632  16.714  0.2410  0.0414  0.0866
11352W        W29556   4.469   7.191   4.507 -0.0093 -0.2606 -0.1328
11353W        W29557  13.323  10.867   1.855 -0.0743 -0.0650 -0.2581
11354W        W29558  11.659  11.528  16.950 -0.1348  0.2511 -0.2903
11355W        W29559   5.441   5.426  13.638 -0.0338 -0.0377 -0.3308
11356W        W29560   8.248  14.861   3.644  0.0274 -0.2988 -0.1888
11357W        W29561   1.681   7.987   1.595  0.0227 -0.0903  0.1215
11358W        W29562  11.389   7.906   5.351  0.3022 -0.1512 -0.0283
11359W        W29563   7.508   0.715  12.619 -0.2908 -0.0409  0.1535
11360W        W29564  13.555  13.399  15.028  0.1768  0.0875 -0.1120
11361W        W29565   6.464  12.188  15.148 -0.1889  0.1898  0.0924
11362W        W29566  13.285  11.904  15.298 -0.1022 -0.4723  0.0054
11363W        W29567  16.194   4.153   1.370 -0.4453  0.0758  0.1734
11364W        W29568  14.294  12.437  15.458 -0.1431  0.0543 -0.2434
11365W        W29569   5.873   6.811  15.825  0.1279 -0.0805 -0.1817
11366W        W29570   0.950  12.889  12.700 -0.1182 -0.0369  0.2925
11367W        W29571   4.860   6.537  13.545 -0.2148  0.0039  0.1513
11368W        W29572  12.313  15.490  13.702  0.0975  0.0645 -0.0498
11369W        W29573  11.207  12.875   4.777  0.1658 -0.3433 -0.1992
11370W        W29574  13.339   3.694   4.434 -0.0291 -0.2879 -0.0574
11371W        W29575  14.429   7.514   1.416 -0.1732  0.1465  0.1768
11372W        W29576  14.065   2.247   0.850 -0.2906  0.1080 -0.0890
11373W        W29577   3.611  16.189  15.612  0.1686 -0.0855  0.0311
11374W        W29578  14.981  14.379   3.334 -0.2442 -0.1995  0.1396
11375W        W29579   6.969   1.733  13.492 -0.0629  0.3147  0.0750
11376W        W29580   0.322   7.258  13.507 -0.0617  0.2266  0.1565
11377W        W29581   7.005   5.698  12.728 -0.2055 -0.0244 -0.0220
11378W        W29582   7.635   1.336  17.184 -0.2130  0.3361 -0.0047
11379W        W29583   9.987   9.303   3.587 -0.1080  0.2425  0.2126
11380W        W29584  10.445   4.789   2.099  0.0595  0.2462  0.0599
11381W        W29585   5.717  11.410  16.022 -0.2055 -0.0598  0.1312
11382W        W29586  13.633   0.529  14.188  0.1571  0.1158 -0.0514
11383W        W29587  17.334   5.232   1.663  0.0581  0.0874 -0.1494
11384W        W29588  11.480  13.161  13.624  0.0262  0.0735 -0.2772
11385W        W29589   5.974  10.081   1.748  0.2280  0.0621 -0.3189
11386W        W29590  14.233  17.290  16.471 -0.0029  0.0027 -0.0566
11387W        W29591   7.699   4.246  17.495 -0.0040  0.1452 -0.1477
11388W        W29592   4.306  17.307   4.514 -0.0469  0.0332  0.1620
11389W        W29593   2.865   1.824  14.364 -0.0847 -0.1139 -0.1318
11390W        W29594   1.670   2.505  14.783  0.0571 -0.1122 -0.2442
11391W        W29595  11.233  10.091  12.641  0.2025  0.0857  0.1432
11392W        W29596  10.875  10.584  13.957  0.2092  0.1899  0.1331
11393W        W29597  10.402   4.528   0.779 -0.0716  0.0821  0.0765
11394W        W29598  10.452   5.122  15.339 -0.0529  0.1253 -0.4569
11395W        W29599  16.036  17.323  14.312 -0.1929  0.0369  0.0193
11396W        W29600  10.262   7.036   5.668  0.1513 -0.1295 -0.1751
11397W        W29601   9.699   2.477  17.188  0.0917  0.0698  0.0557
11398W        W29602  15.362  15.313  13.160  0.0184  0.3391 -0.1166
11399W        W29603   4.958  12.104   5.075 -0.2261  0.1729 -0.1064
11400W        W29604   9.385   4.914   4.084 -0.1487 -0.1119 -0.1305
11401W        W29605   3.444   2.049  13.364 -0.0445 -0.0082 -0.1593
11402W        W29606  17.224  11.188   3.949  0.0538  0.0153  0.2725
11403W        W29607   1.823   2.377   1.120 -0.1673 -0.2469  0.1119
11404W        W29608   0.790  10.352   1.074  0.0218 -0.2346 -0.2169
11405W        W29609   2.899   6.555   3.374  0.0057  0.2317 -0.1831
11406W        W29610   9.179   6.798  13.494 -0.1065  0.0058  0.1388
11407W        W29611   5.879   5.529  16.712 -0.4277  0.0979 -0.2024
11408W        W29612  14.826   4.963  14.622 -0.2159  0.5426 -0.2140
11409W        W29613   1.024  16.117   2.727  0.2433 -0.2724  0.0646
11410W        W29614  11.868  11.828   5.741  0.0470  0.1631 -0.3157
11411W        W29615  12.980   2.005   5.078  0.0918 -0.1717 -0.3604
11412W        W29616   8.012  16.377   1.330  0.0977 -0.0579  0.0949
11413W        W29617   5.482   3.974   3.637 -0.1794 -0.2179 -0.3713
11414W        W29618  14.739   5.683   2.994 -0.0267 -0.0206  0.0696
11415W        W29619  14.236   9.644  17.373 -0.0231 -0.0222  0.0939
11416W        W29620  16.501  11.006  11.594  0.3644  0.1245  0.1389
11417W        W29621   4.369  16.620   5.242 -0.0254 -0.0279 -0.2797
11418W        W29622  11.422   4.225   0.436  0.1112  0.0614  0.0307
11419W        W29623   0.295  17.106   4.289 -0.1028 -0.0453 -0.3385
11420W        W29624  11.724  16.136   4.877 -0.0927 -0.1119  0.1742
11421W        W29625  14.324   2.467   5.241  0.0614 -0.1696 -0.0778
11422W        W29626  10.331   2.617   2.668  0.1691 -0.1315  0.3298
11423W        W29627   1.899   6.149   0.668  0.0200  0.2507 -0.0696
11424W        W29628   9.337  16.268  13.339  0.0461 -0.0924 -0.1506
11425W        W29629  12.451   6.715   3.886  0.0377  0.0776 -0.1012
11426W        W29630   7.685  12.548   2.615  0.1797  0.1219  0.1561
11427W        W29631  13.635   4.055  17.170  0.0331  0.3474  0.0632
11428W        W29632  10.227  17.233   5.174 -0.0884 -0.0317  0.1172
11429W        W29633   4.784   6.447  16.633 -0.1219 -0.1374  0.0495
11430W        W29634  13.651  13.636  16.107 -0.1189  0.1160  0.2981
11431W        W29635   1.012   4.175   1.389  0.1739  0.2893 -0.1132
11432W        W29636  13.827   1.133   3.463  0.0945 -0.3434  0.0174
11433W        W29637   5.111   4.199  12.908 -0.2598  0.2006 -0.0737
11434W        W29638   4.243   5.669   4.676 -0.1116  0.0251 -0.0382
11435W        W29639   3.728   5.726  17.391 -0.2275 -0.0314  0.2132
11436W        W29640   4.190   0.006   1.192 -0.1323 -0.0266  0.1567
11437W        W29641  12.346  11.751  16.391  0.2560 -0.0057 -0.0162
11438W        W29642  17.305   6.514   6.288 -0.2541  0.0793  0.2748
11439W        W29643   8.253  10.017   4.375  0.0176 -0.0576  0.4034
11440W        W29644  15.840   7.278  13.379 -0.0026 -0.0753  0.1686
11441W        W29645  16.094   0.862   1.047 -0.0144 -0.1072 -0.2942
11442W        W29646  14.764   2.521  13.054  0.0192 -0.1596  0.1852
11443W        W29647   8.253  14.643   0.216 -0.1381 -0.0248 -0.3315
11444W        W29648  11.205  10.383  14.296 -0.0752 -0.2386  0.0307
11445W        W29649   0.908   1.543   4.659  0.1099 -0.0120  0.0127
11446W        W29650  13.184  10.929  13.326 -0.0893 -0.0080  0.0221
11447W        W29651  15.214   6.292  15.555 -0.0482  0.2705  0.0347
11448W        W29652  17.102   5.115  15.021  0.1271  0.1732 -0.0733
11449W        W29653  10.261  10.227   1.461  0.0591 -0.0157 -0.1089
11450W        W29654  16.582  10.793  14.411 -0.0000 -0.0807  0.1355
11451W        W29655   6.336   8.136  14.648 -0.3521 -0.1013 -0.1461
11452W        W29656  14.302  12.370  15.967  0.0444  0.3099 -0.0848
11453W        W29657   8.255   0.539  14.815  0.1948  0.0112 -0.2709
11454W        W29658   6.731   8.127  14.314 -0.2769 -0.1776 -0.2470
11455W        W29659   3.300  16.457  15.219  0.2070 -0.0444  0.2391
11456W        W29660   6.675   4.157  15.369 -0.0119 -0.0195  0.0666
11457W        W29661   2.075   4.737  15.144  0.0041  0.1147 -0.2933
11458W        W29662   4.465   5.454   3.524  0.0778 -0.0552  0.2602
11459W        W29663  15.119   6.870   0.098 -0.0441  0.5018 -0.0515
11460W        W29664   8.671  10.209  16.890  0.0065 -0.0548  0.0407
11461W        W29665   8.602  14.042  14.933 -0.2842  0.0725  0.0628
11462W        W29666   0.878  10.212  17.204 -0.0147 -0.0244 -0.2210
11463W        W29667   9.226   1.552  13.414 -0.0981  0.0070  0.0237
11464W        W29668   5.972   2.370   0.325 -0.1399  0.3286 -0.1324
11465W        W29669  16.936   0.399  12.334  0.0029 -0.4661 -0.2471
11466W        W29670   8.941   3.152   4.970 -0.2429 -0.0415  0.0106
11467W        W29671   7.361   6.339   5.530 -0.0401 -0.2257 -0.0751
11468W        W29672   3.296  10.255   1.357  0.2408 -0.2610  0.2615
11469W        W29673  12.047   0.104   4.371 -0.2663 -0.0182  0.0215
11470W        W29674  12.470  16.046   6.227 -0.2376 -0.0038  0.0228
11471W        W29675   4.013  17.206  16.964  0.0235 -0.4224 -0.0411
11472W        W29676  13.586  10.087  12.792  0.0574 -0.1424 -0.1995
11473W        W29677  15.240   2.841   1.427  0.2871 -0.0099  0.0293
11474W        W29678  15.141  13.838  16.393 -0.0040  0.0334 -0.1955
11475W        W29679   9.472  17.168   3.419  0.3478 -0.0340 -0.0157
11476W        W29680  16.363   4.179  15.463 -0.1328  0.3394  0.3152
11477W        W29681  16.264   7.085  16.475 -0.1601  0.3841  0.1350
11478W        W29682   5.886  11.955  17.458  0.0537 -0.2333  0.1506
11479W        W29683   4.982   9.853   1.726  0.3709  0.2815  0.1466
11480W        W29684  16.179  10.339  16.533 -0.2125 -0.1837  0.0717
11481W        W29685  14.324   1.820  13.218 -0.1512  0.0012  0.2241
11482W        W29686   8.682   6.647   4.855 -0.0168 -0.1688 -0.0510
11483W        W29687  13.783  15.305  15.718  0.0178 -0.1136  0.3068
11484W        W29688  16.126   6.233   1.694  0.1381  0.0609  0.1063
11485W        W29689   6.210  10.452   4.586 -0.0552  0.2190  0.0511
11486W        W29690  12.443   3.459   0.380 -0.1586  0.0279 -0.0137
11487W        W29691  13.779   9.775  15.658 -0.3248 -0.1204 -0.1364
11488W        W29692  10.354   6.106   0.885 -0.1837  0.3515 -0.0697
11489W        W29693   7.034  13.939  16.782  0.1866 -0.1198  0.1418
11490W        W29694  12.521   4.653  14.181  0.0660 -0.1874  0.1085
11491W        W29695  14.906  10.592   4.950  0.0108  0.3211  0.0300
11492W        W29696   8.703   1.489  16.112 -0.1463 -0.0691 -0.0027
11493W        W29697   6.377  14.437   5.510 -0.0504  0.2615  0.0041
11494W        W29698   6.761   6.310   0.697  0.2740  0.0177 -0.2147
11495W        W29699  15.644   2.723   3.382  0.2185  0.1093  0.1035
11496W        W29700  13.742   3.136   5.483 -0.2259 -0.1428  0.1128
11497W        W29701  11.553  14.480  15.538  0.1662 -0.2112 -0.2071
11498W        W29702   2.050  17.146   1.073  0.1962 -0.1198  0.1451
11499W        W29703  11.407   6.427   0.364  0.1155  0.4382  0.1659
11500W        W29704  14.441   7.887  14.133  0.0778  0.4876 -0.1829
11501W        W29705  11.571   8.151   3.016  0.1082 -0.1427  0.2505
11502W        W29706  13.855   1.282   5.305 -0.0844 -0.0321 -0.1712
11503W        W29707   6.400   6.951  15.859 -0.1596 -0.4563  0.1288
11504W        W29708   7.334   8.191  12.144  0.0771 -0.2676 -0.2696
11505W        W29709   3.854  11.049   0.395  0.4242  0.1341 -0.0342
11506W        W29710   9.476  16.082  15.868 -0.1197  0.0570  0.0686
11507W        W29711   4.987  15.255   0.380 -0.0242  0.0576  0.0056
11508W        W29712  15.229   5.027   5.740  0.0981 -0.2203 -0.1357
11509W        W29713   4.873  14.092   1.812 -0.1635 -0.3279 -0.2635
11510W        W29714   4.757  14.516  12.130 -0.2860 -0.0706  0.2880
11511W        W29715  14.051   2.026  13.735  0.1789 -0.0627  0.1894
11512W        W29716   5.066  10.960  12.852  0.0871 -0.2189 -0.0981
11513W        W29717   4.609  13.151  16.247  0.3634 -0.1888 -0.1036
11514W        W29718  10.908   0.240   0.106 -0.1031  0.1126  0.0247
11515W        W29719   8.126   5.581   1.139 -0.0670  0.0794 -0.1640
11516W        W29720  13.874   2.291   2.449  0.0766  0.2784 -0.0809
11517W        W29721  13.732   9.417   1.769 -0.0028 -0.2250 -0.0188
11518W        W29722  16.761   7.020   3.062 -0.0334 -0.0107  0.1552
11519W        W29723  17.179  10.424  15.738 -0.0714  0.3174 -0.0688
11520W        W29724  14.244   5.205   3.524  0.0916 -0.0341  0.0264
11521W        W29725  10.415   8.071   0.747 -0.1287  0.0605  0.0783
11522W        W29726   6.417   0.924   0.303 -0.3493 -0.0529  0.1903
11523W        W29727   4.044  14.005   0.425 -0.2058 -0.0439  0.1653
11524W        W29728  11.540  11.353   1.279 -0.2671 -0.0637  0.1117
11525W        W29729   6.540   7.054  15.331 -0.4511  0.3360  0.1493
11526W        W29730   5.716  10.754  15.886 -0.1180  0.1304  0.1490
11527W        W29731  16.695  13.672  13.731  0.0111  0.1768  0.3469
11528W        W29732   6.154   1.658   2.361 -0.1791  0.2127 -0.0281
11529W        W29733  10.452   5.003   0.840  0.3418 -0.4408 -0.1237
11530W        W29734   8.565   9.884   3.634  0.0496  0.1555  0.0396
11531W        W29735  14.114  11.361  16.032  0.1314 -0.2216 -0.0880
11532W        W29736   0.878  16.591  12.926  0.3795  0.0330  0.2170
11533W        W29737   2.237   2.636   2.489 -0.0227 -0.0394  0.2800
11534W        W29738  13.599   8.799   3.246  0.2140  0.1895  0.1082
11535W        W29739   2.693  10.227  17.102  0.0379 -0.1707  0.1667
11536W        W29740   4.441  15.871   2.974 -0.1064 -0.1574  0.1099
11537W        W29741  12.800   1.746   2.531  0.0966  0.0290 -0.2278
11538W        W29742   2.037   3.299  13.763 -0.0138 -0.1479 -0.3338
11539W        W29743   9.356  10.009   3.111  0.1152  0.2675 -0.0341
11540W        W29744   0.466   2.947   5.379  0.2236  0.3254  0.1504
11541W        W29745  14.317  10.270  13.999  0.1369 -0.1596  0.2248
11542W        W29746   0.433   4.969   1.311  0.2829 -0.0267 -0.0507
11543W        W29747  17.035   7.269  16.206  0.1103  0.0871 -0.2763
11544W        W29748  15.012   9.831  15.977  0.1507  0.0290  0.3842
11545W        W29749   4.761   4.026  13.187  0.2358  0.0184  0.1251
11546W        W29750  12.244  10.745   3.938  0.1569 -0.3266 -0.0375
11547W        W29751   3.856   5.194   2.993  0.2008  0.2463 -0.0616
11548W        W29752   4.144  10.066   1.223 -0.0986 -0.2169 -0.3541
11549W        W29753   1.134  10.709  16.325  0.2116 -0.0689  0.3649
11550W        W29754   9.154  15.321   4.027 -0.0339 -0.3974 -0.0488
11551W        W29755   9.770   9.943   0.315 -0.0941  0.0704 -0.0281
11552W        W29756  16.736   6.041  16.051  0.2246  0.0937 -0.1565
11553W        W29757   5.217   7.508   1.652  0.1116  0.0977  0.2336
11554W        W29758  16.203  12.024   3.301 -0.1285 -0.0166  0.0287
11555W        W29759   2.608   5.447   3.051 -0.0480 -0.1055 -0.0298
11556W        W29760   5.464  14.825   1.945 -0.2451  0.0583  0.1345
11557W        W29761  13.263   4.208  14.133 -0.1331 -0.0538 -0.1179
11558W        W29762  13.947  15.072   1.219 -0.5077  0.2615  0.1784
11559W        W29763   4.689  14.082   3.733 -0.2772  0.3227  0.1646
11560W        W29764   1.252   9.877   5.282  0.0517 -0.1672 -0.0854
11561W        W29765  14.446  16.811   3.531 -0.0895  0.2536 -0.3463
11562W        W29766   8.386   5.843   4.817  0.0924 -0.0820  0.0733
11563W        W29767   2.020   7.018   3.651  0.3894  0.0577  0.1315
11564W        W29768   4.956  10.877   2.401 -0.1089 -0.2370 -0.0886
11565W        W29769   6.924   5.302  17.501 -0.0248 -0.1588 -0.3169
11566W        W29770   6.395   9.521   0.637  0.1118 -0.1255  0.4154
11567W        W29771  10.231  14.734   1.237  0.0669 -0.3285  0.1836
11568W        W29772   3.620  13.501  16.527  0.2783  0.1969  0.0913
11569W        W29773  11.419   5.059  14.207  0.0372 -0.0713  0.3089
11570W        W29774   2.012  14.918  13.434 -0.1928 -0.0621  0.2488
11571W        W29775   7.281   8.873  14.402  0.2677 -0.1097 -0.1191
11572W        W29776   6.906   5.298  13.933  0.1702  0.5026 -0.1330
11573W        W29777   4.476  13.751  12.623  0.0927  0.0323  0.1658
11574W        W29778  16.170  16.151   0.326  0.1430 -0.0297  0.3038
11575W        W29779   8.440   2.050   3.337  0.1706  0.0149  0.1301
11576W        W29780  13.301   6.468   0.749  0.3842 -0.0201 -0.0882
11577W        W29781  14.589  16.901  15.845 -0.2877 -0.0963 -0.2089
11578W        W29782   4.203  12.298  15.418 -0.2713 -0.1038 -0.1192
11579W        W29783   2.799  13.242  15.821  0.2399 -0.2154 -0.1710
11580W        W29784   8.224   1.168   0.824  0.1544 -0.0427  0.0591
11581W        W29785  16.028  13.667  17.221  0.1742 -0.2181  0.0355
11582W        W29786   9.734   1.408  16.293  0.0686 -0.1679 -0.1360
11583W        W29787   0.017  13.349   4.175 -0.1979  0.2011  0.1803
11584W        W29788  13.402   2.457   4.225  0.4458  0.0834  0.4867
11585W        W29789  13.607  15.812  12.642  0.2170 -0.1517 -0.4226
11586W        W29790   1.021   3.847  14.950 -0.0533  0.1041  0.0671
11587W        W29791  13.126   1.425   2.944  0.1226 -0.0749  0.0464
11588W        W29792   1.643   6.059  12.121 -0.1125 -0.0289 -0.0294
11589W        W29793   1.228  10.192  16.140 -0.2380 -0.0840  0.1947
11590W        W29794  11.387   7.706   3.164  0.0072  0.0523  0.0212
11591W        W29795  10.420  10.205  15.896 -0.2260  0.0488 -0.1068
11592W        W29796   5.411   2.426  16.132 -0.0477 -0.3724 -0.2783
11593W        W29797   4.215   0.814  17.032 -0.4227  0.5223  0.1616
11594W        W29798  15.993   3.246  15.541  0.0289  0.1599 -0.0978
11595W        W29799   5.491   1.194  12.669 -0.1888 -0.0328 -0.1949
11596W        W29800   7.564   7.054   4.782 -0.2184  0.0123  0.0414
11597W        W29801   7.714  12.017   4.120 -0.2172  0.1519  0.3723
11598W        W29802   4.754   8.165  16.399 -0.0913  0.0981  0.1800
11599W        W29803  11.813   7.051  13.752 -0.1655  0.1757  0.0739
11600W        W29804   5.914   4.553  16.162 -0.2161 -0.0339 -0.1611
11601W        W29805   9.184   7.308  15.363 -0.0123 -0.1669 -0.1514
11602W        W29806   6.091   3.199  12.574  0.0329  0.0283  0.2516
11603W        W29807  11.772  13.536  17.194 -0.2104  0.1378  0.1478
11604W        W29808   8.924   1.075   5.568  0.0121 -0.1390 -0.0751
11605W        W29809  13.790  15.190   1.726  0.2144  0.3473  0.0848
11606W        W29810  15.026  14.480   2.811 -0.0707  0.1046 -0.0301
11607W        W29811   0.378  13.233   4.886 -0.1801  0.1670  0.2286
11608W        W29812   0.978   8.959   0.768  0.0832  0.1253 -0.0732
11609W        W29813   7.687  11.634   2.850 -0.1207 -0.1640  0.2765
11610W        W29814  11.116   8.347   3.171  0.2440 -0.0239  0.0661
11611W        W29815  12.308   3.229  13.486  0.0262 -0.0527  0.1496
11612W        W29816   2.553  10.110   4.108  0.2097  0.0614  0.1431
11613W        W29817   1.011   1.878  16.474  0.0280 -0.0748 -0.0012
11614W        W29818  11.401  17.088  14.811  0.0857 -0.1059  0.3183
11615W        W29819  12.884  14.946  14.677  0.1119 -0.2037  0.2280
11616W        W29820   1.285   8.690   1.116  0.0880 -0.1778  0.0017
11617W        W29821   8.651   4.608  15.550 -0.3454 -0.1954  0.2777
11618W        W29822   3.596   5.352   2.453 -0.2060  0.0140  0.0110
11619W        W29823  17.193   7.719  15.596 -0.4910  0.3874 -0.0168
11620W        W29824   1.551  11.252   4.242 -0.0578  0.1047 -0.0381
11621W        W29825  12.184   8.705  15.194  0.0613  0.0821 -0.0621
11622W        W29826   0.030  16.066  15.781  0.0815  0.2611 -0.2031
11623W        W29827   8.465   2.930   4.750 -0.1062 -0.1466 -0.1072
11624W        W29828   5.537  16.058  16.677  0.2589  0.1428 -0.1825
11625W        W29829   9.901   4.487   1.069 -0.0493 -0.0038 -0.1582
11626W        W29830   1.899  10.597   5.290 -0.1626 -0.2730 -0.2038
11627W        W29831   5.513  14.105   5.402 -0.0366  0.2883  0.1750
11628W        W29832  12.755  14.195   2.971  0.1624 -0.0748 -0.1300
11629W        W29833   4.807   4.805   2.141 -0.0925 -0.0053  0.1569
11630W        W29834   2.903   2.998   0.073  0.1738  0.1133 -0.0098
11631W        W29835   4.405   8.628  14.664 -0.1485 -0.1974  0.0850
11632W        W29836  15.014  11.288   1.617 -0.3199 -0.1099  0.1409
11633W        W29837   0.331   8.783  16.782 -0.1382 -0.2067  0.0446
11634W        W29838   1.467  17.034  17.065 -0.4528  0.0688  0.0440
11635W        W29839  15.269   4.395   2.780  0.3260 -0.1464 -0.4313
11636W        W29840  15.598   7.346  16.378 -0.0706 -0.1461  0.0508
11637W        W29841   1.290  13.667  14.405 -0.4251  0.0184 -0.1376
11638W        W29842  14.306  16.221  13.131 -0.1209  0.4039  0.0876
11639W        W29843  15.370  17.303   3.587 -0.1843  0.2267 -0.0725
11640W        W29844  16.514   1.527  15.673  0.1526  0.2609  0.1443
11641W        W29845   5.654   3.351  16.068 -0.0516 -0.1593 -0.1506
11642W        W29846   4.131   6.246   4.951  0.1916  0.1095  0.2240
11643W        W29847  14.154   3.903   0.302  0.0352  0.0368  0.2590
11644W        W29848  13.297   1.751  16.337 -0.0778 -0.1329  0.1758
11645W        W29849  15.400  14.605   0.673  0.1525 -0.2994 -0.1356
11646W        W29850   5.109   9.258   4.228 -0.0431  0.2094  0.2500
11647W        W29851  15.518   5.848  15.380 -0.0089  0.0594  0.0418
11648W        W29852  10.204   3.150   2.706  0.0426 -0.3403 -0.1205
11649W        W29853  14.270  11.788   2.369 -0.2946 -0.1500 -0.0947
11650W        W29854  13.495  13.884   5.581  0.1720 -0.2665 -0.1244
11651W        W29855  13.477   5.136   5.370 -0.2910  0.5923 -0.1273
11652W        W29856   1.327  11.443   0.392 -0.0391 -0.2067 -0.2297
11653W        W29857  16.252  13.389  13.566 -0.0772  0.4024  0.0102
11654W        W29858   4.348   3.277   3.047  0.1818  0.0802  0.0974
11655W        W29859  13.676   6.407   1.090  0.0436 -0.0248  0.1687
11656W        W29860  11.852  14.934  14.253  0.2448  0.0983 -0.1742
11657W        W29861  11.273   2.088  12.789 -0.1657 -0.4310  0.2309
11658W        W29862   5.149   3.738  16.343  0.3121 -0.2010  0.1139
11659W        W29863   1.052   6.567  16.642  0.0529 -0.1006 -0.2959
11660W        W29864   9.814  10.866   4.218  0.2848 -0.0112 -0.1675
11661W        W29865  12.607  14.477  14.381 -0.2518  0.2893 -0.1568
11662W        W29866  13.575   6.761  14.187 -0.0501  0.0953 -0.1481
11663W        W29867   1.696   5.508  16.116  0.0449  0.3004 -0.0973
11664W        W29868   7.839  12.103   0.079  0.1128 -0.0619  0.2446
11665W        W29869   6.331  11.905  16.404 -0.2256 -0.1837  0.4258
11666W        W29870   6.748  15.966   2.560  0.0054  0.0510  0.1124
11667W        W29871   5.326   7.604  16.983 -0.2564  0.1259  0.3300
11668W        W29872  13.273   3.171  16.792 -0.1012 -0.0715  0.2698
11669W        W29873   1.688   2.236   2.386  0.2683 -0.1684  0.3441
11670W        W29874   3.124   1.270   3.013  0.1307 -0.1784  0.0355
11671W        W29875   1.734   1.093   3.770  0.0998 -0.2211 -0.0515
11672W        W29876  15.807   8.012   0.877 -0.0004 -0.2094 -0.1019
11673W        W29877  10.422  11.670  14.604  0.1608  0.0022 -0.2023
11674W        W29878   9.360  15.730  16.822  0.0027  0.2996 -0.1351
11675W        W29879   7.094   1.239  17.116  0.0303  0.0332  0.2824
11676W        W29880   3.772   4.369  13.686 -0.4387 -0.1881  0.0082
11677W        W29881   7.845   0.363  13.969 -0.0046 -0.0958 -0.0714
11678W        W29882   3.666   7.721   4.077  0.0643 -0.2052 -0.1306
11679W        W29883  11.086   4.629  14.324 -0.1212 -0.2089  0.0255
11680W        W29884  13.182  10.276   4.487  0.3561  0.3380  0.0193
11681W        W29885   7.528   0.343  16.512 -0.0849 -0.0477  0.1604
11682W        W29886   4.256  16.915  12.838  0.1846  0.1768  0.1678
11683W        W29887  16.507   1.613   2.834 -0.1434 -0.1886  0.3418
11684W        W29888  14.853   8.480  14.538 -0.0313 -0.4314 -0.1338
11685W        W29889  13.847  11.863  14.154  0.1668 -0.4647 -0.3659
11686W        W29890  16.885   7.936  12.616  0.0622 -0.0759 -0.0277
11687W        W29891   8.776   8.531   2.857 -0.4247  0.1465 -0.0536
11688W        W29892   4.544   2.164   3.645  0.0781  0.1199  0.1826
11689W        W29893   6.448   6.831   3.606  0.3552  0.0307  0.1046
11690W        W29894  16.708   2.605   3.571  0.2366  0.0475  0.0290
11691W        W29895   2.114   0.728   0.343 -0.0546 -0.1290  0.0858
11692W        W29896   7.956  11.800   3.750  0.0270 -0.0068  0.0823
11693W        W29897   6.704   6.736  16.268  0.4456 -0.0962  0.1394
11694W        W29898   1.081   2.756  16.318 -0.0699 -0.0182 -0.2222
11695W        W29899   0.539   5.574   5.209  0.1055 -0.3356 -0.2164
11696W        W29900  16.350  15.892  12.462  0.2180 -0.1324  0.0677
11697W        W29901   5.862   8.577   5.138 -0.1357 -0.1263  0.0413
11698W        W29902   0.948   3.542   3.768 -0.0209  0.1129 -0.1175
11699W        W29903   0.355  10.062   2.760 -0.0130  0.0576  0.2209
11700W        W29904  10.463   6.359  17.473 -0.0553  0.0343  0.4280
11701W        W29905   9.674  12.227  14.401 -0.3696  0.3684  0.0400
11702W        W29906  11.822  10.535  16.597  0.2412 -0.2329  0.3905
11703W        W29907   6.354   0.826  12.189 -0.0454  0.0780  0.1631
11704W        W29908  14.410   1.428   5.115 -0.0781  0.0611 -0.0104
11705W        W29909  12.099   2.032  13.954 -0.0677  0.0940 -0.0358
11706W        W29910  16.620   9.151  15.316 -0.0133 -0.1374  0.1760
11707W        W29911   0.571  10.781   3.211  0.2706  0.0928  0.0891
11708W        W29912   5.894  13.542  16.639  0.2927  0.1251  0.1671
11709W        W29913  11.251   7.423  15.624 -0.2276 -0.1003 -0.0894
11710W        W29914   7.661  12.546   0.314  0.1319  0.0439  0.0196
11711W        W29915   2.345  13.934  15.000  0.0338  0.0716 -0.1044
11712W        W29916  15.595   8.710   4.821 -0.1579 -0.1871  0.0403
11713W        W29917  13.722   5.194  12.343 -0.1630  0.1195 -0.2121
11714W        W29918  12.653  11.468  17.265 -0.1252 -0.2791 -0.3238
11715W        W29919  16.956  16.355   2.285 -0.1055 -0.1264 -0.1064
11716W        W29920  14.602  11.438  14.219 -0.2585 -0.1854  0.1112
11717W        W29921   8.674   9.022   1.766 -0.0463  0.0990 -0.0351
11718W        W29922  12.726   1.980   4.582 -0.7123  0.0817 -0.0840
11719W        W29923  11.821   8.551  16.820  0.1815 -0.1276  0.1150
11720W        W29924   5.844  11.582  13.461  0.2158 -0.2267 -0.0326
11721W        W29925  16.867   0.086  16.908 -0.2569  0.0748 -0.0377
11722W        W29926  15.811   3.802  12.728  0.1568  0.1288 -0.0443
11723W        W29927   6.333   7.671   2.484 -0.1896 -0.1085 -0.0729
11724W        W29928  14.483  10.560  12.736 -0.0310  0.0410 -0.0311
11725W        W29929   5.204   3.929   0.511  0.0462 -0.4337 -0.0874
11726W        W29930   7.738  14.284   4.427  0.1190 -0.1761  0.0051
11727W        W29931  11.919   7.323  15.289 -0.1219 -0.1561 -0.1002
11728W        W29932   5.199   5.223   4.759  0.2777  0.2242  0.0737
11729W        W29933   8.229  16.870   1.475 -0.3349  0.0346  0.0124
11730W        W29934  11.207  14.537   3.958 -0.1363  0.0720  0.1760
11731W        W29935   2.208   5.831  14.795 -0.0489 -0.0556 -0.2211
11732W        W29936   3.789  13.042  16.119  0.1334  0.2563 -0.0743
11733W        W29937  13.972   3.683  14.262  0.1587  0.1448 -0.1379
11734W        W29938  16.832   8.971  13.543 -0.4071  0.2042  0.0451
11735W        W29939  13.934  15.691   2.431 -0.3308 -0.3575  0.1094
11736W        W29940   0.347  16.709   2.361 -0.1259 -0.1876  0.2162
11737W        W29941  14.880  10.715   1.518 -0.2610  0.2368 -0.1842
11738W        W29942   7.340   6.135   0.589 -0.2639 -0.0678 -0.0186
11739W        W29943  12.716  12.263   4.801  0.2913  0.1003  0.1007
11740W        W29944  14.248   2.615  17.500  0.1844  0.1626 -0.3066
11741W        W29945  12.628   4.107  12.151 -0.1553 -0.0104 -0.3896
11742W        W29946   7.586  11.244   4.436 -0.0818  0.0763  0.6997
11743W        W29947   6.783   8.628  14.289 -0.0888 -0.1195 -0.0939
11744W        W29948  13.544  11.442  16.058 -0.0467  0.1734  0.1391
11745W        W29949  15.734   9.767   2.600 -0.3909 -0.1049 -0.3499
11746W        W29950  13.814  15.727  15.322  0.0933  0.1052  0.2686
11747W        W29951   2.975  16.028   0.984  0.0708 -0.2361  0.2081
11748W        W29952   4.770   6.091  16.282  0.2288 -0.2205 -0.0583
11749W        W29953  10.255   3.300   4.387  0.3992  0.0291 -0.0890
11750W        W29954   7.296  12.344   0.043  0.1600  0.0154  0.1065
11751W        W29955  10.089  12.182  12.541  0.1558  0.0263  0.2264
11752W        W29956  11.931   6.252   3.628  0.1729  0.1923  0.1165
11753W        W29957  16.258  13.207  17.121 -0.0625  0.1270  0.1634
11754W        W29958   8.584  16.184   2.599  0.0071  0.2124  0.1234
11755W        W29959   6.905   8.605   4.861 -0.1236  0.0122  0.2890
11756W        W29960   9.627  10.126  13.403 -0.0466 -0.3070  0.1102
11757W        W29961   3.681  15.040   2.127 -0.4102  0.0366  0.0836
11758W        W29962   3.402   1.107   2.625  0.1611 -0.0275  0.0956
11759W        W29963   3.168  12.316   4.510  0.2229 -0.1768 -0.1152
11760W        W29964   9.035   8.175   3.178 -0.2083  0.1641  0.2402
11761W        W29965   6.158  11.642   5.443  0.0223 -0.0067  0.0389
11762W        W29966  11.287   0.162  16.783  0.0815  0.2524  0.0244
11763W        W29967  11.376  11.619  16.550  0.2304  0.3181 -0.0459
11764W        W29968   2.566  11.460  15.050  0.0817  0.0129  0.0427
11765W        W29969   3.077  13.037  13.646  0.2653 -0.4608  0.0238
11766W        W29970  15.686   2.306  16.974 -0.1635 -0.1545  0.1205
11767W        W29971  12.730  14.624  12.836  0.0562 -0.0044  0.1126
11768W        W29972   8.828   4.218   4.144  0.2537 -0.4134  0.1308
11769W        W29973  11.420   9.369   2.982  0.0799 -0.0352 -0.0510
11770W        W29974  16.614   7.640   4.454 -0.0607  0.0825 -0.0655
11771W        W29975  13.724  11.477  13.272 -0.0435 -0.3031 -0.1390
11772W        W29976   3.131  15.789   0.557  0.0296  0.0475 -0.1306
11773W        W29977  15.718  17.319   2.442  0.0921 -0.0033  0.1732
11774W        W29978  15.784   6.681  15.108  0.1263  0.2926  0.1035
11775W        W29979   1.279   7.499   4.956  0.0766  0.1678  0.0553
11776W        W29980  13.821   9.759   2.862  0.2448 -0.2682 -0.4304
11777W        W29981   2.947  15.509   0.972  0.1424 -0.0842 -0.0223
11778W        W29982  11.648  12.120   0.259 -0.1083 -0.0699 -0.1962
11779W        W29983  15.626  16.417   0.422 -0.0060 -0.0077  0.2296
11780W        W29984  14.028   6.587  14.496  0.1416 -0.2690  0.1565
11781W        W29985  10.134   9.217  12.210  0.2495  0.1339  0.2284
11782W        W29986  15.473   4.442  14.170 -0.0985  0.0352 -0.0125
11783W        W29987   3.662   7.205  13.845  0.0078  0.0885  0.2940
11784W        W29988  15.273  12.998  17.065 -0.0482  0.0104  0.1740
11785W        W29989  14.520  14.064   3.750  0.1009 -0.0970 -0.1023
11786W        W29990   8.243  13.142   3.485 -0.0513  0.1277 -0.3804
11787W        W29991   0.927   5.066   4.715  0.1465  0.2020 -0.1476
11788W        W29992   3.569   7.086  16.637 -0.2369  0.1349  0.1682
11789W        W29993   7.447  14.385  14.391 -0.1614  0.0484  0.1460
11790W        W29994   7.662  14.442   2.466 -0.2155  0.0385  0.0038
11791W        W29995   6.313   5.937  15.966 -0.1696  0.4494 -0.1493
11792W        W29996   1.862   0.459   1.525  0.0854  0.0223  0.2754
11793W        W29997  15.528   5.998   4.213  0.0292  0.2030 -0.0255
11794W        W29998  13.256   8.580   4.631 -0.0234 -0.1881 -0.1019
11795W        W29999  12.478   2.489  16.299  0.0611  0.0229  0.0642
11796W        W30000   4.660   8.374  17.481 -0.1552  0.0573 -0.0986
11797W        W30001  16.138  10.965  13.051  0.1824  0.1891  0.0542
11798W        W30002  14.016  17.272   5.266 -0.1282  0.2611 -0.0040
11799W        W30003  15.348  15.608  16.391  0.1892 -0.1290 -0.0853
11800W        W30004   5.308   8.073   3.880 -0.1456  0.1265 -0.0439
11801W        W30005   9.101   9.078   2.146 -0.1971 -0.1889 -0.3401
11802W        W30006   2.934   5.523  15.507  0.2065  0.1570 -0.0388
11803W        W30007  16.522   6.027   2.342  0.1708 -0.1636  0.0833
11804W        W30008   1.381  15.073   3.645  0.1976  0.1226  0.1562
11805W        W30009  10.428   5.847  14.331 -0.1466  0.3660 -0.1275
11806W        W30010   6.717   4.496   5.389  0.2399  0.1114  0.1066
11807W        W30011  16.638   6.821   1.166  0.1078  0.2188  0.0538
11808W        W30012  14.121  16.975   0.293  0.0637 -0.2259 -0.1146
11809W        W30013  15.832  14.155  12.589 -0.3298  0.0319 -0.0399
11810W        W30014  16.782   0.046   1.606  0.2094 -0.5231  0.1735
11811W        W30015  17.259  13.673  14.946  0.0986 -0.0091 -0.0282
11812W        W30016  11.987   6.891   4.489  0.0389  0.1490  0.1356
11813W        W30017   4.564   6.278   0.686  0.0404  0.0755  0.1064
11814W        W30018  15.099   5.531   0.728  0.1537 -0.0719  0.1746
11815W        W30019   0.492  17.252   2.435  0.1582  0.1657  0.0807
11816W        W30020   0.961   4.039   3.780  0.1829 -0.3297  0.0237
11817W        W30021   5.635  12.722   5.124  0.2127 -0.0682 -0.2005
11818W        W30022   3.471  11.074   3.389  0.1613 -0.1580 -0.3298
11819W        W30023  16.794  11.970   3.559 -0.1065 -0.0803  0.4094
11820W        W30024   6.042   7.631  12.713 -0.0714  0.0086 -0.0452
11821W        W30025  14.259   2.127   3.171  0.0395 -0.1256  0.3911
11822W        W30026   5.621   1.334   4.040 -0.0320 -0.1574 -0.0290
11823W        W30027  10.763  11.709  16.745  0.2329 -0.2276 -0.0173
11824W        W30028  15.218   0.560   4.177  0.2560 -0.1692  0.1401
11825W        W30029   8.185  16.071  14.641 -0.0919  0.3399 -0.2681
11826W        W30030   3.062   8.153   2.598 -0.3720  0.1694 -0.2243
11827W        W30031  14.418   4.490   1.945 -0.1419  0.2621  0.0682
11828W        W30032  13.658   9.319  15.931 -0.0824  0.3526 -0.0434
11829W        W30033   3.048   8.612  17.321 -0.1453  0.0654 -0.0474
11830W        W30034   0.175   5.541  15.598 -0.1741  0.0195  0.1199
11831W        W30035   1.031   1.570   2.646 -0.0939  0.0532  0.0528
11832W        W30036  15.683   8.875  14.949 -0.1082 -0.0500 -0.2616
11833W        W30037  11.457  12.585  13.595  0.1468  0.1255 -0.1679
11834W        W30038  13.145  11.638  14.266 -0.2058 -0.3380 -0.3137
11835W        W30039   4.717  12.600  13.836  0.0826 -0.0681  0.1695
11836W        W30040  14.794   4.393  12.914  0.1779  0.2396 -0.5266
11837W        W30041   6.707   5.136   2.634  0.0617 -0.1254 -0.2192
11838W        W30042  16.212  15.007  15.010  0.0565  0.0480  0.0609
11839W        W30043  15.276  16.926   3.244  0.1439 -0.1019  0.0664
11840W        W30044   6.050  17.205  15.295  0.0577  0.0112 -0.1320
11841W        W30045  13.204   5.806  14.189  0.0622 -0.0743 -0.0233
11842W        W30046   6.343  13.976   4.137 -0.0084  0.2645 -0.0451
11843W        W30047   7.779   3.837   5.660  0.1419  0.2388 -0.0738
11844W        W30048   3.030  14.740  13.148 -0.1446  0.0293 -0.2483
11845W        W30049   3.384   4.948   2.672 -0.1517 -0.1487 -0.2778
11846W        W30050   9.878  14.582   4.404 -0.0450 -0.1289 -0.0812
11847W        W30051   9.100   1.046   2.694  0.1992 -0.4017  0.0478
11848W        W30052  15.347  16.841  17.289  0.1922 -0.0572  0.3677
11849W        W30053  14.753  11.294  14.694 -0.0524  0.1781  0.0345
11850W        W30054  14.526   6.324   0.189 -0.2016 -0.4536  0.0633
11851W        W30055   0.236   2.030   3.558  0.1198 -0.0190 -0.0018
11852W        W30056  17.179   9.978   0.464 -0.0243  0.1470 -0.2088
11853W        W30057  14.017  13.496   3.320 -0.1351  0.1837  0.0210
11854W        W30058   1.319  17.116  14.990  0.1333  0.1631 -0.0370
11855W        W30059  14.448  10.316   5.037  0.1438 -0.2139  0.0746
11856W        W30060   2.346   3.387   2.737  0.1222 -0.0195  0.1053
11857W        W30061  15.962   1.010  13.047  0.1114 -0.0479  0.0076
11858W        W30062  14.631  14.557   3.640 -0.0495 -0.1898  0.0565
11859W        W30063   9.116  12.607   1.248  0.0059  0.3485 -0.1309
11860W        W30064  17.165  16.736   1.017 -0.3511  0.0155 -0.1510
11861W        W30065  12.542   8.081  16.994 -0.2190  0.1256 -0.3044
11862W        W30066   1.091   4.632   4.351  0.2388 -0.0730  0.0351
11863W        W30067  11.278  10.955   4.033  0.3184 -0.0912  0.4663
11864W        W30068   2.688  16.442   1.911 -0.0236  0.2291  0.0970
11865W        W30069  17.064   0.088  15.704 -0.1007 -0.1615 -0.1531
11866W        W30070  15.285  10.934   4.942  0.1737  0.0428  0.1538
11867W        W30071   3.384   7.377  15.688  0.0442  0.1279 -0.2635
11868W        W30072   6.725   7.626   5.326 -0.1034 -0.0795  0.2497
11869W        W30073   3.020   1.087  12.757 -0.0449 -0.0847 -0.2269
11870W        W30074  12.050  17.201  15.325 -0.2461  0.0190  0.0853
11871W        W30075  13.584   4.569  13.774 -0.3643 -0.0708 -0.0679
11872W        W30076   7.908  13.063   1.855 -0.2078 -0.0694 -0.0132
11873W        W30077   0.740  10.128   2.434  0.4595  0.1111  0.0126
11874W        W30078   6.760   8.439   4.295 -0.1133 -0.0353  0.0451
11875W        W30079   3.588  15.618   3.598 -0.0349  0.0434 -0.0690
11876W        W30080   0.875   2.365  13.525  0.0141  0.1292  0.0254
11877W        W30081  16.287   3.881   2.467 -0.1416 -0.1151  0.1914
11878W        W30082  14.153   7.697  14.496 -0.4360  0.2302  0.2333
11879W        W30083  11.856   4.565   0.604  0.2016  0.1056  0.1518
11880W        W30084  15.853   2.183   4.710 -0.2366 -0.0171  0.0479
11881W        W30085   5.467   7.502  13.922  0.2137  0.1835  0.1795
11882W        W30086   9.471   8.251   0.450  0.0133  0.1662  0.0414
11883W        W30087   4.611  16.857   1.238 -0.0977  0.0639 -0.0088
11884W        W30088  15.575  11.462   1.756 -0.2256  0.1061 -0.5178
11885W        W30089   9.281   1.925   5.208 -0.1294 -0.0715 -0.0399
11886W        W30090  12.278  16.913   2.553  0.2690  0.5594 -0.2393
11887W        W30091  13.880   5.576   2.789 -0.1853  0.1301  0.0580
11888W        W30092   5.994   5.079  16.309 -0.1687 -0.1069  0.0682
11889W        W30093   2.336  10.016   1.804 -0.2478 -0.0226  0.0818
11890W        W30094   5.817   2.794  16.996  0.0284 -0.1906 -0.2248
11891W        W30095   5.101  16.968   1.278 -0.2807 -0.3708  0.0418
11892W        W30096   1.564  15.430   2.048 -0.0736  0.1363  0.1997
11893W        W30097   9.610   2.061   0.754 -0.0528 -0.1372 -0.0534
11894W        W30098   0.463  16.201  16.049  0.4874 -0.1298  0.0428
11895W        W30099   0.468   9.643   3.041 -0.0548  0.0497 -0.1002
11896W        W30100   2.878   7.575   1.190 -0.0032  0.0314 -0.1540
11897W        W30101  14.398   3.393   3.576  0.1849 -0.0586  0.1220
11898W        W30102   2.437   4.829  12.955 -0.0903 -0.1347 -0.0472
11899W        W30103   8.051  11.676   1.874 -0.2038 -0.0619  0.0444
11900W        W30104  13.886  17.079   1.219  0.0203 -0.1036 -0.0773
11901W        W30105  16.196   8.761   3.893  0.1313 -0.0537 -0.0134
11902W        W30106   4.080  16.780   0.184  0.0901 -0.0267 -0.0386
11903W        W30107   7.324  10.416  14.004  0.1521  0.2156  0.3056
11904W        W30108   5.580  13.696   3.512 -0.0781 -0.0233 -0.1915
11905W        W30109   1.902  14.268  17.264  0.1297  0.1548  0.1396
11906W        W30110   2.580   2.575   4.749 -0.2780  0.1178 -0.2027
11907W        W30111  10.663  10.197   0.642  0.3059  0.2137  0.0154
11908W        W30112   2.435  13.077  16.102 -0.1933  0.0189 -0.0680
11909W        W30113   9.649   1.357  13.283  0.0331 -0.2929 -0.0952
11910W        W30114  13.827   4.304  15.001  0.3408  0.3524 -0.0573
11911W        W30115   1.181  10.268  12.354  0.0731  0.1459 -0.3458
11912W        W30116   4.279  14.063  15.829  0.2707 -0.2268 -0.1224
11913W        W30117   9.302   0.764   3.136  0.1253 -0.0591  0.0788
11914W        W30118   2.313   2.285  15.262 -0.2477  0.0957  0.5068
11915W        W30119   8.319  12.712  16.131  0.0674 -0.2276  0.0675
11916W        W30120  13.804  10.627  15.367 -0.5188 -0.0670  0.0401
11917W        W30121   5.161  13.590   3.272 -0.1349 -0.0420  0.2945
11918W        W30122  14.687  13.774  14.077 -0.1639  0.2874 -0.0638
11919W        W30123  13.009   9.937  14.987  0.0161 -0.2464  0.0215
11920W        W30124  17.127  10.950   3.527 -0.0392 -0.0427 -0.1707
11921W        W30125   0.906   5.441  12.371  0.0789  0.0627 -0.0430
11922W        W30126   2.707   9.225   4.232  0.2039 -0.3805 -0.1145
11923W        W30127   3.086  12.573  12.595 -0.1213 -0.1942 -0.1051
11924W        W30128  16.104   7.149  17.401 -0.2262  0.0414  0.2692
11925W        W30129   1.865   8.063  17.288 -0.3202 -0.2365  0.1670
11926W        W30130   3.044  11.799   1.193 -0.0141  0.1782  0.0571
11927W        W30131  15.328   7.193   0.542  0.1345  0.1236  0.2110
11928W        W30132   3.941  15.382   4.051  0.1798  0.0998 -0.1230
11929W        W30133   7.609  11.465  15.188  0.1796 -0.3595 -0.0464
11930W        W30134  12.002   2.688   3.570 -0.1776 -0.1056  0.2224
11931W        W30135   8.254   1.546  16.327  0.1185 -0.0338 -0.2366
11932W        W30136  10.657   4.673   1.648  0.1345 -0.1766  0.0269
11933W        W30137   6.168  13.900  15.354 -0.1371  0.1706  0.1381
11934W        W30138   3.304   4.962  11.946  0.1276  0.1313 -0.0168
11935W        W30139  16.216   6.163  15.178 -0.0830  0.0195 -0.3474
11936W        W30140   9.386  11.408  15.427  0.0951  0.0193 -0.2932
11937W        W30141   9.283   3.282  17.099 -0.0223  0.1703  0.0715
11938W        W30142  11.050  16.450  16.467  0.2047 -0.0315  0.3419
11939W        W30143   8.284   9.178   3.392 -0.0283  0.1098  0.0930
11940W        W30144   6.433  13.175   4.818  0.0561  0.0481 -0.1282
11941W        W30145  10.153   9.653  16.838 -0.2515 -0.2560  0.1661
11942W        W30146   8.517   1.651  15.008 -0.0834  0.0762 -0.4153
11943W        W30147  16.099   5.238  12.521  0.1884 -0.0838 -0.0193
11944W        W30148  13.867   5.678  15.327  0.0100 -0.0495 -0.0952
11945W        W30149  13.880  15.154   2.749 -0.2828  0.3034 -0.0422
11946W        W30150   4.582   0.766   4.837  0.0249 -0.2415  0.0723
11947W        W30151  17.115   3.210   0.217 -0.2714  0.1174 -0.1820
11948W        W30152  14.005  10.219  14.990  0.0715 -0.1671  0.0816
11949W        W30153  14.753  13.380  14.421  0.0708  0.2094  0.1253
11950W        W30154  14.258  13.614  15.478 -0.0317 -0.0983  0.1202
11951W        W30155  12.969  14.035  15.227  0.0585 -0.1418  0.0593
11952W        W30156   9.207  11.364  12.626  0.0685 -0.1146 -0.1252
11953W        W30157   0.178  17.211  12.580 -0.0904 -0.2150  0.2794
11954W        W30158  11.694   4.456   3.438 -0.0586 -0.2036 -0.2167
11955W        W30159  10.791   8.697  12.313  0.0162 -0.0673  0.0547
11956W        W30160   8.868  12.685   1.760  0.0559 -0.1539 -0.3916
11957W        W30161  10.324   1.369  17.187 -0.0519 -0.0980  0.0012
11958W        W30162   2.897   0.624  14.883  0.0356  0.1711 -0.0565
11959W        W30163   9.027   9.055  16.134  0.0435  0.2146  0.2452
11960W        W30164   2.314  12.565  15.388 -0.0383  0.0039 -0.0190
11961W        W30165   5.352  11.921   0.840 -0.0083  0.0744  0.0170
11962W        W30166  11.508   5.556   4.454 -0.2795 -0.1267  0.1741
11963W        W30167   3.910   8.346   0.931 -0.0947 -0.2056  0.2037
11964W        W30168  11.007   8.262   5.256 -0.0510 -0.1411 -0.0478
11965W        W30169   3.756  11.213  13.078 -0.0478  0.2666 -0.1473
11966W        W30170   9.461   1.812  16.476 -0.1962  0.1253  0.3576
11967W        W30171  17.108  17.038   5.621 -0.0076  0.3429 -0.2475
11968W        W30172  15.561  12.393  14.183 -0.0789  0.1246  0.2494
11969W        W30173   9.390   4.173  12.222 -0.4135 -0.1084 -0.2667
11970W        W30174   8.308  10.467  16.599  0.0229 -0.3699  0.3086
11971W        W30175   8.135   2.084  17.399  0.1675 -0.0425 -0.0337
11972W        W30176  12.366  17.246   5.270  0.2779 -0.2084  0.2483
11973W        W30177   2.823   3.960  13.020  0.0676  0.0650 -0.0193
11974W        W30178   3.400   6.391   4.310  0.1106  0.1655  0.0429
11975W        W30179   9.251   3.664  12.244 -0.3095  0.3038  0.2950
11976W        W30180   6.267  11.495  16.082 -0.0450 -0.0700  0.1335
11977W        W30181   8.714   4.214   1.686  0.2229  0.1709 -0.0189
11978W        W30182  16.371   4.564  15.757  0.2063 -0.3007  0.0617
11979W        W30183  14.998  13.289   1.752  0.1612 -0.0182  0.0659
11980W        W30184   7.009  14.068  15.769  0.2053 -0.2154  0.0178
11981W        W30185   7.748   5.746   0.801  0.3398  0.2157 -0.1214
11982W        W30186  16.779   7.235  16.640  0.1893 -0.1647  0.0219
11983W        W30187   2.906  15.662  14.754  0.0520 -0.0768  0.2130
11984W        W30188   1.279   5.387   4.916  0.0838  0.0829  0.0247
11985W        W30189  12.498   8.995   5.748  0.1178 -0.1785  0.3616
11986W        W30190   4.917   4.320  14.658  0.2514  0.0825  0.5222
11987W        W30191  14.849   9.692  12.743  0.0927  0.2578 -0.2788
11988W        W30192   0.747   8.703   3.432 -0.0184  0.0300 -0.0361
11989W        W30193  15.808  15.935   5.552 -0.1688  0.0207  0.0165
11990W        W30194  12.191   3.089   0.200  0.2580  0.1305  0.0313
11991W        W30195   5.586  16.496  13.130  0.0349  0.0262 -0.0298
11992W        W30196   3.940   7.904   2.644 -0.3227  0.2240  0.2407
11993W        W30197  17.309   8.341   2.192 -0.0199  0.1175 -0.2263
11994W        W30198   9.135   6.301   0.100 -0.1347 -0.3026  0.2647
11995W        W30199   0.513   9.538  17.086 -0.2216  0.2550  0.0138
11996W        W30200   1.750   4.726   2.753  0.1587  0.0599 -0.0640
11997W        W30201   5.040   6.894  12.464  0.0417 -0.0342  0.0042
11998W        W30202  13.308  12.230   3.917 -0.0020 -0.0871  0.3324
11999W        W30203   8.402  11.496  16.345  0.1305  0.2216  0.2311
12000W        W30204   2.269  10.617  17.114 -0.1397  0.0131  0.0003
12001W        W30205   3.849   7.864  16.437  0.3395  0.0808  0.1869
12002W        W30206  11.038  13.734  15.396 -0.2006  0.1538  0.0107
12003W        W30207   7.776   7.979   1.066 -0.1237 -0.2523  0.1324
12004W        W30208   8.943  11.443   3.560  0.0477  0.1263 -0.3655
12005W        W30209   3.810  14.545   4.036  0.4588  0.2360 -0.3657
12006W        W30210  11.850   2.938  16.480 -0.1220  0.1820  0.1977
12007W        W30211   6.515  16.027  15.587  0.2541 -0.0099  0.0825
12008W        W30212   6.827  17.268   4.601 -0.2541 -0.2708  0.1518
12009W        W30213  13.887   1.999  13.243 -0.3662 -0.1085  0.0566
12010W        W30214  10.676   8.455  14.139 -0.1170  0.0259 -0.0296
12011W        W30215  10.656   2.620  16.311 -0.1288  0.2225 -0.3992
12012W        W30216   8.369   4.511   1.914 -0.0042 -0.2176 -0.0756
12013W        W30217   5.076  12.664  14.195 -0.0409  0.0232  0.0763
12014W        W30218   1.255  15.940  16.391 -0.1414 -0.1244 -0.2650
12015W        W30219   6.920   3.910  12.398 -0.2119 -0.1228 -0.2401
12016W        W30220   8.800   3.786  15.152  0.0966 -0.2335  0.0951
12017W        W30221   5.470   4.655  15.266  0.0475  0.1033  0.2505
12018W        W30222  16.313   5.125   4.056 -0.1629  0.0778  0.0313
12019W        W30223   8.068   0.440  15.696  0.1517 -0.2953  0.1239
12020W        W30224   3.617   2.228  14.647  0.1813  0.2333 -0.1707
12021W        W30225   0.355  15.035  14.260  0.0549 -0.0851 -0.1247
12022W        W30226   8.017  10.190   2.805 -0.0863  0.1343  0.1806
12023W        W30227   7.396   8.298   1.447  0.1250  0.2650  0.1026
12024W        W30228  16.185  14.344   5.343 -0.0532  0.0187 -0.2320
12025W        W30229   9.843  10.751   5.321 -0.0955 -0.1200 -0.2432
12026W        W30230   9.059  15.616   1.568  0.0842 -0.1423 -0.2760
12027W        W30231   2.195   4.022  15.801  0.0129  0.1152 -0.1947
12028W        W30232  15.521  11.024   5.373 -0.0019  0.1332 -0.1710
12029W        W30233  15.178  14.947  14.060  0.1931  0.2325 -0.2024
12030W        W30234  14.631   4.801   0.428 -0.1303  0.0255 -0.1525
12031W        W30235   3.016   8.604  15.911  0.0867  0.2614  0.2535
12032W        W30236   9.522   7.633   4.435  0.0239 -0.1674  0.2434
12033W        W30237  11.905   4.891   2.902  0.3445 -0.1279 -0.1849
12034W        W30238  17.097  14.732  15.424 -0.0198  0.0268  0.0103
12035W        W30239  17.155   9.788   4.544  0.0657 -0.1087 -0.0434
12036W        W30240   0.233  11.634  12.781 -0.0882 -0.0369  0.2910
12037W        W30241  17.281   0.052  15.276 -0.1844 -0.0124  0.0960
12038W        W30242   1.758   0.871   3.370  0.0102 -0.0766 -0.2065
12039W        W30243   7.249   5.687   0.778  0.2250 -0.2882 -0.0767
12040W        W30244  15.990   1.670  12.818  0.0725 -0.2377  0.2624
12041W        W30245   1.261  15.916   5.199  0.1018  0.2235  0.1342
12042W        W30246   2.262   8.776   1.338 -0.0742 -0.0704 -0.0367
12043W        W30247  14.275  12.171   3.113  0.3274  0.0757 -0.4014
12044W        W30248   3.419   2.305   3.736 -0.0285 -0.3628  0.2202
12045W        W30249   0.089   4.617   0.385  0.0060 -0.2211 -0.1179
12046W        W30250  13.028   7.586   0.277  0.2143  0.2090 -0.3398
12047W        W30251   4.931  11.366   2.430  0.1177 -0.1575  0.1953
12048W        W30252   1.030   0.056  16.227 -0.3378 -0.5826 -0.0371
12049W        W30253  12.966  15.677  13.329 -0.1251  0.0434 -0.1245
12050W        W30254   6.215  10.745  16.468 -0.0347  0.0110  0.2800
12051W        W30255   6.733  13.880   0.953  0.2186  0.1773  0.2235
12052W        W30256   8.341  15.339   3.549 -0.2279 -0.1595  0.0153
12053W        W30257   9.923  12.714  16.044  0.3388 -0.2284  0.0157
12054W        W30258  11.909   0.348   0.984  0.0738  0.1603 -0.1324
12055W        W30259   5.787   0.012  14.834  0.4347 -0.1030 -0.1176
12056W        W30260  13.536   1.334  15.721  0.0345 -0.1961 -0.1586
12057W        W30261   1.619   8.682   4.838 -0.0677  0.0578 -0.0457
12058W        W30262  13.351   8.666   2.358  0.0609  0.0349 -0.4164
12059W        W30263   9.653   9.700   2.337 -0.1016 -0.1300 -0.0819
12060W        W30264   6.765   3.964  17.522  0.2380  0.2408 -0.0009
12061W        W30265  12.792   0.423  13.738  0.1086 -0.1689 -0.0952
12062W        W30266   3.510  13.685  16.960 -0.0547  0.0633 -0.0006
12063W        W30267  16.872   6.544  12.425 -0.2735 -0.0973 -0.2682
12064W        W30268   4.323  16.240   2.020 -0.0168  0.0758 -0.0150
12065W        W30269  14.171   5.330  14.954 -0.0586  0.3063 -0.0620
12066W        W30270   3.089   9.492  15.331 -0.0430 -0.1376  0.1894
12067W        W30271  13.955   2.356   1.292  0.0245 -0.0787 -0.2648
12068W        W30272   4.577  10.411  16.831  0.1232 -0.1408  0.2829
12069W        W30273   8.079   9.356   4.803  0.1856  0.1497  0.0056
12070W        W30274  17.137  11.859   3.223  0.2478  0.0011  0.2820
12071W        W30275   3.477   2.978  15.558  0.2021  0.1134  0.1308
12072W        W30276  15.499  12.759  15.121  0.0124 -0.1887 -0.3093
12073W        W30277  16.374  14.282   4.485  0.0404 -0.3326  0.1225
12074W        W30278   4.096   4.005   1.738 -0.2402 -0.2874  0.2288
12075W        W30279   6.442  14.962  17.144 -0.0722  0.0551 -0.5107
12076W        W30280   0.368   5.044   3.255  0.1181  0.4073  0.1525
12077W        W30281  16.820   7.769  16.621  0.0966 -0.0697 -0.3359
12078W        W30282   1.872   5.509   2.429 -0.4091  0.1218 -0.3463
12079W        W30283   1.363   9.365   6.312  0.2188 -0.1369  0.0230
12080W        W30284   4.577  11.333  16.331  0.0116 -0.1453  0.0893
12081W        W30285   8.443   8.189  13.050 -0.0917  0.0652  0.2506
12082W        W30286   4.195  14.189  14.887  0.1325  0.0470  0.0997
12083W        W30287   6.686  14.599  14.225  0.0926 -0.1660  0.2097
12084W        W30288   8.968  11.602   4.072 -0.3962  0.1232  0.4582
12085W        W30289   7.832   5.443  14.881 -0.0804  0.2133  0.1013
12086W        W30290   2.769  17.024   0.450 -0.0064 -0.0643  0.3319
12087W        W30291   5.806   8.962  15.185  0.0500 -0.0803  0.3686
12088W        W30292   5.111   3.518   4.663 -0.1324  0.0269 -0.0463
12089W        W30293   9.384  11.775   1.239  0.1885  0.0185  0.1337
12090W        W30294   0.528   9.386  15.418 -0.0156 -0.3250 -0.1114
12091W        W30295   8.115   9.356   2.465 -0.1354 -0.0856 -0.0543
12092W        W30296   4.013  12.987   1.065 -0.1816 -0.1063 -0.1852
12093W        W30297   5.292  16.080  15.455  0.0137 -0.1205  0.1189
12094W        W30298  12.740  16.848  13.497 -0.1617  0.0774  0.1415
12095W        W30299   0.166  10.190   0.015 -0.0630  0.2276 -0.3663
12096W        W30300  10.119  15.476   4.055 -0.0673  0.1475  0.0890
12097W        W30301  14.954   8.811  12.778  0.2941 -0.0425 -0.0903
12098W        W30302   6.018  15.913  14.836  0.2691 -0.1792  0.1922
12099W        W30303  12.937   1.404   3.530 -0.1755 -0.1378  0.0702
12100W        W30304   9.447   5.090   0.091 -0.0496 -0.0298 -0.0416
12101W        W30305   7.031   9.765  14.471 -0.1005  0.3004 -0.0606
12102W        W30306   2.119  15.736   0.795  0.0488 -0.4687  0.3553
12103W        W30307  11.633   8.743  15.184 -0.0836  0.2021  0.1342
12104W        W30308   7.217  17.322  15.958 -0.0532  0.1066  0.0379
12105W        W30309   6.542   6.646  12.815 -0.1786 -0.1565 -0.1465
12106W        W30310   0.590  10.734  14.922  0.0302 -0.0552 -0.0101
12107W        W30311  15.371  12.566  12.413 -0.1535 -0.3471  0.0682
12108W        W30312  17.143  12.836   3.506 -0.0308 -0.1124 -0.0630
12109W        W30313  17.061   1.933  13.334 -0.2806 -0.0095 -0.0323
12110W        W30314   2.440  12.628  13.073 -0.1843  0.1515  0.1865
12111W        W30315   4.437   4.612   2.380  0.1698 -0.0481  0.0474
12112W        W30316  13.128   5.169   2.064  0.2346  0.0840  0.3038
12113W        W30317   0.045   2.598   1.767  0.1882 -0.1014 -0.0747
12114W        W30318  10.462   7.519   4.522  0.1117 -0.0902 -0.0692
12115W        W30319   9.856  10.965   1.905 -0.2506  0.0801  0.3179
12116W        W30320  12.690   1.758   0.199 -0.0714 -0.0361  0.1711
12117W        W30321   6.951   3.100   3.517  0.2531 -0.0009 -0.0632
12118W        W30322  10.935  14.917  16.804 -0.0769 -0.0014  0.1333
12119W        W30323  13.029   7.116  16.173 -0.1122 -0.1834  0.3449
12120W        W30324   4.502   7.056   2.942 -0.0405 -0.3321 -0.1464
12121W        W30325  16.237  16.601   0.071  0.1815  0.2499 -0.4496
12122W        W30326   7.878  10.351  15.135  0.1780 -0.1624 -0.2177
12123W        W30327  13.368  16.615   1.422 -0.0511 -0.3717 -0.3451
12124W        W30328  13.557   8.039  16.941  0.4354 -0.1467  0.0554
12125W        W30329  11.199   4.176   4.570 -0.0118  0.1803 -0.0711
12126W        W30330   5.550  15.057  16.657 -0.0587 -0.2062 -0.2261
12127W        W30331   6.218   8.919  15.909 -0.0668  0.0395  0.2839
12128W        W30332   5.974   4.818   1.968 -0.1533 -0.1777 -0.0251
12129W        W30333  10.404  11.357  16.874 -0.3653  0.1685 -0.1269
12130W        W30334  14.518  11.923   1.637 -0.2086  0.3377 -0.2419
12131W        W30335   5.597   6.228  12.778 -0.2265  0.3868 -0.1956
12132W        W30336   6.092   9.369   1.091  0.0059  0.0804  0.2164
12133W        W30337   1.138  15.342  12.631 -0.2156 -0.1288 -0.2884
12134W        W30338   5.931  16.402   5.903  0.1930 -0.3494 -0.2320
12135W        W30339   8.948   7.361   2.580 -0.1596  0.4083  0.1242
12136W        W30340   4.006   7.780  14.922  0.2062 -0.2936  0.2014
12137W        W30341   1.738   8.340   0.239 -0.0437  0.2919 -0.3490
12138W        W30342   1.868  14.777   3.204  0.0468  0.1924 -0.0072
12139W        W30343   5.537  10.878   0.812  0.2074  0.2169  0.0874
12140W        W30344  16.099   0.790  15.406 -0.1810 -0.0896 -0.2109
12141W        W30345   3.989   4.186   3.029  0.1785 -0.0096 -0.0035
12142W        W30346   3.450   5.922  13.817  0.0620 -0.1444  0.2041
12143W        W30347   6.200   1.903   2.884  0.1948 -0.1863  0.0541
12144W        W30348   3.856   9.276  15.299  0.0496 -0.0267  0.0678
12145W        W30349  14.293  13.240  12.508 -0.2843  0.2620  0.0998
12146W        W30350  12.243  11.728  12.821  0.0866 -0.0803  0.2223
12147W        W30351   0.065  13.523  16.962  0.2613 -0.0255 -0.2395
12148W        W30352  11.314   2.903   4.856  0.1264 -0.0828 -0.0366
12149W        W30353  17.052   0.648  14.630  0.0049  0.0206 -0.0412
12150W        W30354  12.353   6.913   4.888 -0.1953  0.2636  0.2880
12151W        W30355   5.004   2.016  14.885 -0.4982  0.2539  0.0629
12152W        W30356   3.103   3.805   3.195  0.0757  0.1045  0.1193
12153W        W30357  11.906  14.363  16.978 -0.2327 -0.0309 -0.2044
12154W        W30358   5.125   7.056   0.406  0.1049  0.1341 -0.0714
12155W        W30359   6.395   8.049   1.306  0.2193  0.1866  0.1434
12156W        W30360  15.796   9.324   3.598 -0.0831 -0.4188 -0.0740
12157W        W30361   1.181   5.014  14.308  0.0743 -0.0859 -0.2511
12158W        W30362  10.391   4.231   1.652 -0.0719  0.1569  0.0707
12159W        W30363   8.652   2.582  12.684  0.1163 -0.1099 -0.0795
12160W        W30364   5.604  12.903   0.150 -0.1477  0.1435  0.2069
12161W        W30365  10.251   1.448  14.611  0.1570  0.0693 -0.0798
12162W        W30366  10.446  13.009  13.690 -0.4011 -0.1177 -0.0229
12163W        W30367   8.215  14.483   2.016 -0.1724 -0.0377  0.1963
12164W        W30368  16.170  12.814   2.086 -0.1697  0.4287  0.0141
12165W        W30369   3.109  14.006  14.866  0.0323 -0.2223  0.0309
12166W        W30370   3.775   2.820  12.971 -0.0822  0.1359 -0.2883
12167W        W30371  13.336   1.106  13.560  0.0145 -0.1344 -0.1013
12168W        W30372   4.961  12.565   1.917  0.2632  0.0568 -0.0314
12169W        W30373   7.810   5.732  13.137 -0.1285 -0.1866  0.1965
12170W        W30374  12.309  13.032  13.394  0.0085 -0.2749 -0.1254
12171W        W30375   3.017  10.442   3.178 -0.3450  0.1032  0.0616
12172W        W30376   9.183   9.626   2.046 -0.1096  0.0202  0.3225
12173W        W30377  12.657   0.266   5.027  0.0362  0.1862  0.0959
12174W        W30378  13.875  16.570  16.239  0.1531 -0.0576 -0.1434
12175W        W30379   9.743  12.777  16.555 -0.0436  0.1669 -0.2196
12176W        W30380   1.097   2.927   2.860  0.1353  0.0918 -0.0399
12177W        W30381  10.929  13.492   4.102  0.1499 -0.0088 -0.0719
12178W        W30382   3.393  10.188  12.135 -0.0615  0.0845  0.0654
12179W        W30383   3.686   0.789  15.032  0.1182 -0.1319 -0.2469
12180W        W30384  14.443   1.664   3.166  0.2551  0.2643 -0.2034
12181W        W30385  17.053   1.393   3.203 -0.0893  0.1372 -0.0534
12182W        W30386  12.954  16.283  13.285  0.0507  0.2425 -0.0790
12183W        W30387  17.267   2.236  13.653  0.2001 -0.1995  0.2967
12184W        W30388  12.816  13.483  16.311 -0.3287 -0.0156 -0.2180
12185W        W30389   6.744  16.193   0.783  0.3967 -0.1491  0.2967
12186W        W30390   2.228   6.836  14.545  0.1489  0.0588 -0.1582
12187W        W30391   0.849   5.362  17.505  0.0039 -0.0525  0.0425
12188W        W30392   7.829   8.603  16.201 -0.1536  0.1217 -0.4455
12189W        W30393  11.350  16.096  12.374 -0.1574 -0.1070 -0.0232
12190W        W30394   7.197  10.322   0.479 -0.0865  0.0802 -0.4839
12191W        W30395  15.733   4.384   1.405  0.0670 -0.0654 -0.1318
12192W        W30396  11.376   0.696  14.142  0.0856  0.0974 -0.2324
12193W        W30397   9.108  13.857   2.069  0.1126  0.1963 -0.1808
12194W        W30398  11.970  13.184   5.324  0.0324  0.0160 -0.0696
12195W        W30399  15.649   4.004  14.135 -0.0684  0.0947  0.0502
12196W        W30400   7.476   9.334  14.024  0.0585  0.0719  0.1214
12197W        W30401  14.599   6.224   1.501  0.0090  0.2212  0.1228
12198W        W30402   8.815  14.201   2.855 -0.0198 -0.0621 -0.0894
12199W        W30403  16.296  10.130  11.679 -0.0027 -0.1512  0.1244
12200W        W30404   2.603  10.892   1.065  0.2594  0.2610 -0.0560
12201W        W30405   4.143  11.061   1.962  0.1133  0.1823 -0.0288
12202W        W30406  15.232   1.438  12.458  0.3010  0.1723  0.2007
12203W        W30407  15.999   9.856  16.577 -0.1274 -0.0123  0.3306
12204W        W30408   5.896   3.347   0.156  0.1337 -0.2378 -0.0282
12205W        W30409  10.639  17.298   4.870  0.1742  0.1255  0.1542
12206W        W30410   9.953   7.115   4.546 -0.1223  0.1969 -0.2647
12207W        W30411  11.480  10.526  15.772 -0.0585  0.1180 -0.1754
12208W        W30412  16.862   8.684   3.123  0.0014 -0.1499 -0.2146
12209W        W30413  14.495  13.267  15.896 -0.1448 -0.1904  0.2631
12210W        W30414   6.676  10.613   4.640 -0.2832 -0.1663  0.0790
12211W        W30415   6.123   5.518  14.381  0.0867 -0.0262  0.3102
12212W        W30416   2.126   5.259  15.057  0.0332 -0.0121 -0.0345
12213W        W30417  13.677  11.884  16.557  0.1172 -0.0049  0.1256
12214W        W30418   1.689  14.729   6.093  0.0051  0.0761 -0.4040
12215W        W30419   6.269   2.120   0.730 -0.3568  0.0178  0.0893
12216W        W30420   9.369   9.450   4.318 -0.1196 -0.0335  0.4289
12217W        W30421  10.424   7.326  17.239 -0.0608  0.0704  0.2308
12218W        W30422  15.940  11.940   5.433  0.0161 -0.1044 -0.0267
12219W        W30423  14.807  15.121   0.376  0.4431 -0.1356  0.1908
12220W        W30424   5.981   5.013   3.542 -0.0151 -0.2948  0.3452
12221W        W30425   4.538   6.323  14.330  0.1058 -0.2681  0.0367
12222W        W30426  16.834  10.208  15.454  0.1661 -0.0528  0.2287
12223W        W30427  11.450   2.149  14.328  0.3694  0.2435 -0.2348
12224W        W30428  11.064  13.742   3.670 -0.0931  0.0593  0.2063
12225W        W30429  13.592  11.970   4.843  0.2162  0.0702  0.2132
12226W        W30430   8.170  13.468   0.214  0.1762  0.0179  0.1661
12227W        W30431   2.636  16.408   6.250  0.0101 -0.1758  0.0068
12228W        W30432   3.922  10.580   1.208 -0.1074 -0.2082 -0.1010
12229W        W30433   0.568  10.907   2.627 -0.0366 -0.1391 -0.0898
12230W        W30434  14.988  16.088  14.736  0.0310 -0.2732  0.2067
12231W        W30435  15.750   8.190   4.662  0.0768  0.1566  0.1148
12232W        W30436   4.163   0.486   4.750  0.0770  0.3761 -0.0834
12233W        W30437   0.482   7.921   4.412  0.1715  0.0298 -0.1906
12234W        W30438  15.070   8.148  17.284 -0.0138 -0.2755  0.1764
12235W        W30439   0.328   3.962  15.611 -0.0654  0.0787 -0.0032
12236W        W30440   4.263   1.794  16.677  0.1343 -0.2106  0.2019
12237W        W30441   2.433   3.872   2.586 -0.1421  0.0813  0.0185
12238W        W30442   0.552   6.605  16.681  0.0706  0.0415  0.1334
12239W        W30443   7.263  10.679  16.399  0.0566  0.1112  0.2873
12240W        W30444   3.449  15.437   1.325  0.0717 -0.0869 -0.1149
12241W        W30445  11.390  11.104   0.257 -0.0542  0.1200 -0.0926
12242W        W30446  16.848  12.467   3.742  0.0652 -0.1090 -0.0282
12243W        W30447  11.681   7.437   0.797 -0.0020 -0.2745  0.0992
12244W        W30448   1.407  11.622  13.956  0.3773 -0.1873  0.0658
12245W        W30449   2.448   7.322  12.025 -0.2655 -0.3829  0.1721
12246W        W30450  11.561  12.961   1.844 -0.1421 -0.0751  0.2514
12247W        W30451  11.705  10.123  12.698 -0.2821  0.0500  0.1592
12248W        W30452  13.355  13.713  13.881 -0.0797  0.1642 -0.1691
12249W        W30453   0.463  14.342  13.038 -0.0068  0.2879  0.2133
12250W        W30454  15.489   8.509  15.913 -0.1111 -0.1184  0.1013
12251W        W30455   9.334  12.561   4.696 -0.1875  0.2086 -0.0887
12252W        W30456   6.774  16.855  14.786  0.5047  0.0090 -0.2453
12253W        W30457   6.821  12.112  12.729  0.0344  0.3564 -0.0527
12254W        W30458  16.461   7.508  13.862 -0.0855  0.1959 -0.0324
12255W        W30459  14.231  14.214  16.207 -0.1788 -0.0201  0.1116
12256W        W30460  15.404  14.333   4.730  0.1824 -0.3456 -0.1823
12257W        W30461   0.800   9.402   3.922  0.1275 -0.1686 -0.1563
12258W        W30462   1.451   3.658   3.625  0.2310 -0.0986 -0.1101
12259W        W30463   4.718  13.555   0.112 -0.1029 -0.0244 -0.1141
12260W        W30464   5.423  16.004  15.944 -0.1220 -0.2001  0.0153
12261W        W30465  12.268  11.750   1.698 -0.0627  0.2106  0.0296
12262W        W30466  12.802  14.333  17.110 -0.0382  0.2817  0.1035
12263W        W30467  11.966   8.811   4.353 -0.1050 -0.2376  0.0349
12264W        W30468  15.696   0.416  16.172 -0.1660  0.0910  0.3101
12265W        W30469   8.274   7.566   0.239 -0.4927 -0.3144 -0.1414
12266W        W30470   3.212   3.884  17.410  0.2252  0.1279 -0.0342
12267W        W30471  14.111  12.790  15.818  0.0480 -0.2944 -0.1993
12268W        W30472   7.551  11.279  12.399  0.0797  0.0286 -0.4266
12269W        W30473  12.296   2.434  13.763  0.0052  0.2891 -0.4040
12270W        W30474   0.938   9.522   2.855 -0.1779  0.1534  0.2249
12271W        W30475  14.099   8.748  12.614 -0.1109  0.1547 -0.0654
12272W        W30476   4.970  13.737  12.330  0.0509  0.0500 -0.3406
12273W        W30477   4.570   9.396   4.517  0.0585  0.4512  0.0066
12274W        W30478   2.551   2.979   2.866  0.0841  0.1090 -0.0732
12275W        W30479   3.933  15.956   1.991  0.1742 -0.0942 -0.2635
12276W        W30480   7.846   9.839   2.086 -0.2687 -0.0733  0.1661
12277W        W30481   4.978   7.515   0.292 -0.1879  0.0130  0.0012
12278W        W30482   1.688  15.598   4.452  0.0246 -0.0674 -0.2301
12279W        W30483   3.729   9.397  12.022 -0.2418 -0.0567 -0.7141
12280W        W30484   0.378   3.928  13.176 -0.0737  0.1148 -0.1353
12281W        W30485  10.312   4.876  11.813 -0.4571  0.1392  0.0344
12282W        W30486  14.469   3.923  17.298 -0.1345  0.1193 -0.0087
12283W        W30487   6.367   6.312   3.815  0.1403  0.0937  0.1463
12284W        W30488   7.253   0.149   2.578  0.3657 -0.0318 -0.1450
12285W        W30489  10.478  12.786  17.313  0.0768  0.3367 -0.2862
12286W        W30490  11.263  13.999   5.655 -0.1022  0.3150 -0.0203
12287W        W30491  14.848   9.319  14.922 -0.0207 -0.0499  0.0992
12288W        W30492   4.899   9.528   2.179  0.2565 -0.0057 -0.3091
12289W        W30493   1.812   2.453   2.838 -0.1795 -0.1305 -0.0971
12290W        W30494   5.357   8.085  17.132  0.1457  0.0396 -0.0398
12291W        W30495   9.393   2.934   5.124 -0.4092 -0.0008  0.2956
12292W        W30496   0.719   1.984   3.732 -0.1132  0.1941  0.2160
12293W        W30497  14.054  11.392  14.139 -0.2696 -0.1636  0.1762
12294W        W30498  10.207   2.275   2.982  0.4605  0.0305 -0.0535
12295W        W30499  13.788   2.369  17.414  0.0294  0.1998  0.2069
12296W        W30500  14.662  13.204   0.641  0.0293 -0.0668 -0.0571
12297W        W30501   8.920   9.232  16.618 -0.0909  0.1139  0.1524
12298W        W30502   3.024   4.288  16.152 -0.0186 -0.0315 -0.1612
12299W        W30503  14.824   4.235  13.489 -0.1728  0.1050 -0.0615
12300W        W30504  16.358   2.101  11.738  0.0704  0.2108  0.2248
12301W        W30505  14.653   1.643  14.974  0.2089 -0.0133 -0.0697
12302W        W30506  16.479  14.508   3.865 -0.1444  0.0879  0.0323
12303W        W30507  16.975  13.729   0.398  0.2713 -0.0954  0.0621
12304W        W30508  11.547  14.364  16.687  0.1812 -0.1650 -0.0669
12305W        W30509  14.405   6.379  13.462 -0.2221 -0.1113 -0.2563
12306W        W30510  13.690   3.280  15.182 -0.2936 -0.1409  0.0362
12307W        W30511   2.294  13.300   5.154 -0.0555 -0.1238  0.1317
12308W        W30512   8.915  14.899  11.939 -0.0146 -0.0838 -0.1564
12309W        W30513   3.928   0.994  16.041 -0.1149 -0.0024  0.1549
12310W        W30514   5.070  17.263   2.139  0.1536  0.0691 -0.0605
12311W        W30515  15.863  14.551  16.959 -0.1923  0.0373 -0.2905
12312W        W30516  12.069   2.163  16.037  0.0003  0.1427  0.1930
12313W        W30517   2.202   0.189  14.427  0.1029  0.1474 -0.1143
12314W        W30518  13.099   6.475   2.789 -0.0009  0.0388 -0.0095
12315W        W30519  12.889   8.013  12.930 -0.2012 -0.2721 -0.0544
12316W        W30520   5.517  10.999  11.446 -0.0246 -0.0213  0.0895
12317W        W30521  10.414  10.584   1.785  0.0355  0.2173 -0.0797
12318W        W30522  13.253  12.131   0.796 -0.2104 -0.1558 -0.0298
12319W        W30523  10.143   3.025   2.230 -0.1688 -0.1123 -0.1988
12320W        W30524   8.537  14.710   2.404  0.0049 -0.0279 -0.1110
12321W        W30525   7.341  13.559   0.127  0.4266 -0.5341 -0.2846
12322W        W30526   6.898  16.037  12.863  0.1347  0.0147  0.3405
12323W        W30527   9.816   1.682   0.395 -0.3615 -0.2189 -0.0020
12324W        W30528   7.950   1.721   1.492 -0.3767 -0.0781  0.0387
12325W        W30529  15.562   2.429   4.423 -0.0806 -0.2638  0.0142
12326W        W30530   3.702   9.565  14.959 -0.2850 -0.0707  0.0276
12327W        W30531   8.329   3.336   4.263 -0.3872  0.1339 -0.0249
12328W        W30532   8.086  15.862  17.025 -0.0253 -0.3660  0.1078
12329W        W30533   5.744   5.816   1.912 -0.1591 -0.2995  0.0388
12330W        W30534  14.742   0.374  14.218 -0.0345  0.3133 -0.2177
12331W        W30535   8.108   0.399  13.484  0.0492  0.0105  0.1997
12332W        W30536   1.542   3.863   5.822 -0.2023 -0.0793  0.0336
12333W        W30537   9.590   4.598   5.649  0.1182  0.3496  0.1181
12334W        W30538  14.079  11.155   0.671  0.0543  0.0028  0.1817
12335W        W30539  14.682  16.448   5.512  0.0779  0.0370 -0.2515
12336W        W30540   1.874   8.052  15.228 -0.0162  0.1787  0.1551
12337W        W30541   1.966  17.185   2.350  0.1220 -0.0099 -0.3602
12338W        W30542  10.687  10.151  14.318 -0.1543 -0.0456  0.0330
12339W        W30543  14.771   8.851  14.100 -0.0139 -0.2504  0.1146
12340W        W30544   8.922   6.818   3.961  0.2074  0.0475  0.1724
12341W        W30545   9.910  11.726  12.731 -0.0608 -0.0937  0.0894
12342W        W30546  14.666   6.040  17.186  0.1280  0.2350 -0.1080
12343W        W30547   1.781   0.037  15.573  0.3112 -0.0309 -0.1588
12344W        W30548  16.889  16.161  15.681  0.2485 -0.1019  0.1406
12345W        W30549   8.102   4.154  12.555 -0.0166  0.0436  0.0193
12346W        W30550   7.976  13.005  17.455 -0.0850  0.1149 -0.1363
12347W        W30551   2.699  13.331   3.778  0.0543  0.2781  0.0843
12348W        W30552   7.118   2.687  14.794  0.2100  0.0535 -0.0347
12349W        W30553  16.169   7.975   1.214 -0.3841 -0.0918  0.1532
12350W        W30554   0.827  11.418   0.815  0.0787 -0.0054  0.1330
12351W        W30555  12.385   8.342   2.275 -0.0538  0.2129  0.2056
12352W        W30556  12.655   6.316   2.397 -0.0553  0.0675 -0.0732
12353W        W30557   9.857   5.948  13.607  0.1657  0.0113  0.0631
12354W        W30558  16.037   1.493  13.803  0.1237  0.0877 -0.1070
12355W        W30559  11.987  10.827   4.587 -0.1035 -0.0805 -0.2803
12356W        W30560  13.527  14.631  15.992 -0.2587 -0.0245 -0.0819
12357W        W30561  10.949   8.242  14.600 -0.0053  0.2006 -0.0081
12358W        W30562  14.649   2.261  14.094  0.2360 -0.0092  0.1853
12359W        W30563   5.857   9.071   1.403 -0.0501 -0.2100  0.1339
12360W        W30564   4.385   2.723   1.576 -0.0586 -0.0012  0.2765
12361W        W30565   8.617  16.202  16.242 -0.4036  0.1878 -0.1169
12362W        W30566   7.996  17.106   2.764 -0.1966  0.2147  0.2701
12363W        W30567  15.226  13.759   2.789 -0.5062  0.1085  0.0881
12364W        W30568   0.417   7.482  15.953  0.3276 -0.2554  0.2067
12365W        W30569   0.206   8.583  15.128 -0.0059 -0.0373 -0.0230
12366W        W30570  14.301  15.734   4.361 -0.2027 -0.0415  0.2648
12367W        W30571   4.716   7.927   0.248  0.3582 -0.1312  0.0283
12368W        W30572   4.798  14.369  17.512 -0.1418  0.0314  0.0223
12369W        W30573  11.196  11.451  17.504  0.2346 -0.0822  0.0640
12370W        W30574   6.060  13.584  12.876 -0.0772  0.1687  0.2177
12371W        W30575  11.543  15.819  14.462  0.2609 -0.1010  0.4342
12372W        W30576   9.034   6.692  14.568  0.2168  0.1695 -0.0957
12373W        W30577   9.673   1.186   1.811 -0.1770 -0.0123 -0.1651
12374W        W30578  17.036   6.913   3.481 -0.1949  0.0961 -0.1349
12375W        W30579   4.417   7.123  17.124  0.0327 -0.1527 -0.2210
12376W        W30580   3.020  17.250  16.561  0.0230  0.0576  0.0327
12377W        W30581  11.065   2.856   3.552 -0.2168 -0.2899  0.0340
12378W        W30582  16.098   7.356  12.257  0.1796  0.0427  0.2412
12379W        W30583  12.001   3.557   0.127 -0.2780  0.4277 -0.0608
12380W        W30584   0.539   8.173  15.274  0.0733  0.3930 -0.0127
12381W        W30585  14.356  17.053  17.348 -0.1921  0.1373  0.2642
12382W        W30586   2.949  10.709   0.812 -0.2379 -0.1378  0.2082
12383W        W30587  13.525   1.384   4.416  0.4145 -0.2824  0.1099
12384W        W30588  15.297   9.795  16.617  0.1194 -0.3512 -0.3034
12385W        W30589  12.877   8.254   5.249  0.2817 -0.1844 -0.5810
12386W        W30590   7.318   2.763  13.386  0.0079 -0.0637  0.3029
12387W        W30591  15.761   6.770   0.588  0.3682 -0.0993  0.0129
12388W        W30592  13.184  13.243   3.499  0.4461 -0.1110 -0.0899
12389W        W30593   6.442   1.828   1.505 -0.0931 -0.0004 -0.2228
12390W        W30594   1.056   2.950   3.752  0.0131  0.2439 -0.0364
12391W        W30595   6.891   0.873   4.177 -0.1579 -0.1157 -0.0320
12392W        W30596   1.372   4.602   5.086 -0.2773 -0.1117  0.1270
12393W        W30597  15.411   8.277   5.020  0.1639  0.3976 -0.3242
12394W        W30598  13.236   4.408   2.898 -0.2492 -0.0403  0.3195
12395W        W30599   7.383  16.522  13.579 -0.0140 -0.0554  0.2132
12396W        W30600  17.040  10.206  14.936 -0.1695 -0.0473 -0.1057
12397W        W30601  11.858   9.481   1.856 -0.2648  0.0840  0.0513
12398W        W30602   4.835  12.939  12.860  0.5508  0.0508  0.0477
12399W        W30603  13.154   8.969   0.160  0.0610 -0.0867 -0.1150
12400W        W30604  13.961   9.500  15.285 -0.0107 -0.0655  0.1852
12401W        W30605   7.328   4.913  13.770  0.4704 -0.3215  0.0345
12402W        W30606  15.620   9.372  16.536 -0.2633 -0.0193 -0.2852
12403W        W30607   9.057  11.556  13.949  0.0915  0.1756  0.2632
12404W        W30608  11.541   8.782  14.284 -0.0178  0.2188  0.0620
12405W        W30609   2.379   8.139  15.285 -0.1249  0.2865 -0.1488
12406W        W30610   7.126   2.886   5.373  0.2371 -0.2183 -0.1481
12407W        W30611   8.263  15.207  17.503  0.1767  0.0763  0.1220
12408W        W30612   1.978  15.638  14.707 -0.0600  0.0835 -0.1259
12409W        W30613  12.963  16.989  15.941 -0.0206 -0.1150  0.0529
12410W        W30614   6.644   9.145  17.495 -0.0195  0.2066  0.1046
12411W        W30615  16.926   0.283  13.355  0.2103  0.3080 -0.0570
12412W        W30616   8.894   3.678   0.382  0.1732  0.0408 -0.0097
12413W        W30617  15.337   0.551  17.245  0.3511 -0.0601 -0.2576
12414W        W30618  10.520  16.026   0.853 -0.1570  0.2022 -0.0774
12415W        W30619   7.873  15.886  13.055  0.1710 -0.0161 -0.0342
12416W        W30620   6.946   3.283   0.821 -0.0887  0.0972 -0.0112
12417W        W30621   2.218  15.865  12.407 -0.4724  0.0435  0.2630
12418W        W30622  11.348   7.276   1.448  0.0010  0.0178 -0.0615
12419W        W30623  17.201   1.886   1.083 -0.2841  0.2288  0.1905
12420W        W30624   8.063   2.105   4.769  0.2038 -0.3057 -0.0863
12421W        W30625   2.019   8.993  14.416 -0.0606 -0.1043  0.6529
12422W        W30626   8.440  13.064   0.030  0.0646  0.0778 -0.5462
12423W        W30627  12.842   2.437   4.182  0.1915  0.1646 -0.1970
12424W        W30628  10.963  12.628   0.982  0.5200  0.0876 -0.0324
12425W        W30629   2.766   2.346  16.457  0.3586 -0.0197  0.2453
12426W        W30630  16.614   9.007  15.798  0.1285  0.1204 -0.2880
12427W        W30631   3.784  15.036   2.701 -0.0311 -0.0606  0.0782
12428W        W30632   2.608   5.576  12.185 -0.0658  0.2769  0.1427
12429W        W30633   8.564   4.616  13.937 -0.0394 -0.0415 -0.1466
12430W        W30634  11.981   0.236  12.643 -0.1177  0.1696 -0.0635
12431W        W30635  11.128  13.384   3.349 -0.2595 -0.0573  0.1902
12432W        W30636   4.355   4.536   3.045 -0.1361  0.0488  0.2034
12433W        W30637   2.063   4.230  13.719  0.1230  0.1347 -0.4452
12434W        W30638   5.457   8.992  17.033 -0.0375  0.2540 -0.0665
12435W        W30639   9.997   7.628  14.238  0.1233  0.1643 -0.0777
12436W        W30640  12.995  16.002   1.002  0.3013 -0.0776 -0.0057
12437W        W30641   3.809   8.812  15.598 -0.2970  0.0278  0.0795
12438W        W30642   4.222  14.670   2.691  0.0456  0.1889 -0.0703
12439W        W30643   1.874  13.013   4.838  0.0698 -0.0938 -0.1488
12440W        W30644  16.630   8.335  14.190 -0.0968  0.0453  0.1694
12441W        W30645   1.727   0.520  16.450  0.2477 -0.2209 -0.1866
12442W        W30646  16.740  15.719  12.788 -0.0529  0.0907  0.0149
12443W        W30647   1.183   5.692   3.143 -0.0646  0.0709 -0.0176
12444W        W30648  11.686   8.710   4.766  0.1184 -0.0892 -0.1522
12445W        W30649   3.295   0.550   0.432 -0.2183 -0.1623 -0.3212
12446W        W30650   9.273  11.794   0.632  0.2380 -0.1190 -0.0099
12447W        W30651  13.941  12.575  15.101 -0.0864 -0.3701 -0.2897
12448W        W30652   6.280   5.609  16.520 -0.3060  0.0507 -0.0517
12449W        W30653   1.101  12.393   5.864  0.2364 -0.0356 -0.3413
12450W        W30654   3.092   2.274   2.906  0.2970 -0.2009  0.0750
12451W        W30655   5.835  16.743   0.089  0.0255 -0.0099 -0.0993
12452W        W30656   7.195   1.881  16.435  0.0873 -0.2987 -0.0728
12453W        W30657  11.060   5.850  14.301 -0.1541  0.2651  0.0021
12454W        W30658  17.150   4.057   4.835  0.1701 -0.0561 -0.0700
12455W        W30659  14.791  15.655   2.544 -0.2736 -0.3257  0.1508
12456W        W30660   1.819   2.163  15.240 -0.2031 -0.1087  0.1732
12457W        W30661   3.150   7.994   0.711  0.0287  0.1652 -0.2643
12458W        W30662   4.737  17.280   4.220  0.0087  0.0982 -0.1576
12459W        W30663  12.580  12.370  14.366  0.2645  0.0702 -0.1225
12460W        W30664  16.520  16.157   5.303  0.1960  0.2293 -0.1551
12461W        W30665   6.377  13.908   0.598  0.1408  0.0272 -0.2496
12462W        W30666   7.877   2.133   2.226 -0.2320  0.1314  0.1163
12463W        W30667   7.629  16.777  12.632 -0.0535 -0.0288  0.0136
12464W        W30668   2.171  13.172  14.123  0.0255  0.1212 -0.0826
12465W        W30669   7.429   8.104  14.051  0.0075 -0.3898  0.2779
12466W        W30670   7.019  15.743  12.523  0.1837  0.0316  0.0352
12467W        W30671   3.337   8.083   2.054 -0.0702  0.4706  0.0860
12468W        W30672   8.910   7.003  13.883 -0.2175 -0.0230  0.1275
12469W        W30673   0.335   9.985  15.737 -0.4346 -0.0224  0.2518
12470W        W30674   3.474   8.502   1.804 -0.0685  0.2153 -0.0101
12471W        W30675  10.051   7.974  15.970 -0.0763  0.0709 -0.4915
12472W        W30676   9.209   7.021   6.399 -0.0660  0.0939 -0.1166
12473W        W30677   7.683   4.194   2.513  0.0465  0.1138  0.4150
12474W        W30678   1.599   0.235  14.198 -0.0021  0.0025  0.2329
12475W        W30679   1.121   5.273   3.733  0.0921  0.3560 -0.0836
12476W        W30680  15.020   2.607  15.286 -0.1901  0.3415 -0.1974
12477W        W30681   5.067  16.739  16.173 -0.0893 -0.1535  0.1694
12478W        W30682   7.547  12.555  13.172 -0.3241  0.1357 -0.2004
12479W        W30683   2.221   4.227   3.831  0.0859 -0.1898  0.4746
12480W        W30684  16.811  12.917  16.543  0.0974 -0.0148 -0.0517
12481W        W30685   8.889   5.583  12.223  0.0204 -0.1479 -0.2634
12482W        W30686   1.606  17.339  13.416  0.0228  0.1817  0.1487
12483W        W30687  13.530   1.806   4.017 -0.1713  0.1620 -0.2819
12484W        W30688  14.984   6.765  12.708 -0.0360 -0.1815  0.1067
12485W        W30689  12.608   5.036  17.197 -0.2300 -0.1081 -0.0382
12486W        W30690  10.414  10.349  12.551 -0.1003 -0.1579 -0.3605
12487W        W30691   8.001   2.016   3.625 -0.2401 -0.1668  0.5270
12488W        W30692  13.814  12.809   3.946  0.0532 -0.0054 -0.0141
12489W        W30693   3.264   1.140   5.176 -0.0903 -0.0886  0.0629
12490W        W30694   1.554   3.069  13.515 -0.1634 -0.3233  0.0188
12491W        W30695  17.024  13.661  17.278 -0.3899  0.3722 -0.1188
12492W        W30696  16.479  14.067  15.680  0.2818 -0.4483  0.0462
12493W        W30697   7.767   0.761  13.602  0.3409  0.0348 -0.0763
12494W        W30698   3.579  16.329   2.638  0.1505  0.0074  0.1649
12495W        W30699   1.388  16.253   3.706  0.0149 -0.3803  0.1953
12496W        W30700   3.262   4.243  12.973 -0.1519 -0.0887 -0.1747
12497W        W30701  15.960   2.669   1.622 -0.0934 -0.0262  0.1215
12498W        W30702   5.299   9.050   4.744 -0.0327  0.0493 -0.0301
12499W        W30703  12.494   9.564  13.622 -0.1561  0.4553  0.0918
12500W        W30704   3.742   3.555  13.760 -0.1685 -0.2300 -0.1651
12501W        W30705   9.539   0.930  12.341  0.0150  0.1169 -0.2096
12502W        W30706  17.232  13.721   1.316 -0.2462 -0.1201 -0.0361
12503W        W30707   3.975   8.502  13.572 -0.0810  0.0771 -0.0584
12504W        W30708   9.468   3.135   4.169  0.1624  0.2777 -0.0839
12505W        W30709   1.074  10.688  14.856  0.1702  0.0594  0.0135
12506W        W30710   5.472  14.416  13.382 -0.2272 -0.2622  0.2102
12507W        W30711  16.080  13.552  16.002  0.1798 -0.3841  0.0133
12508W        W30712  14.012   4.203  17.446 -0.0239 -0.0509  0.1707
12509W        W30713   2.589   5.865  15.308  0.0195 -0.2819  0.0280
12510W        W30714   6.501   6.009  16.860  0.1574 -0.2209 -0.2731
12511W        W30715   9.383  12.538   2.694  0.0287 -0.1689 -0.2471
12512W        W30716   9.631  15.938  12.448  0.0973  0.2951  0.0766
12513W        W30717  14.970   7.555  15.271  0.0037  0.1537  0.0383
12514W        W30718   9.376   6.545  13.016 -0.2380  0.0336 -0.0797
12515W        W30719  13.152  12.567  13.207 -0.1932 -0.0295 -0.1154
12516W        W30720   3.579   1.520   0.687 -0.2195 -0.0021  0.1814
12517W        W30721  14.849   7.190   4.263 -0.0300  0.2092 -0.1021
12518W        W30722   7.075   6.501   3.374  0.0870  0.1744 -0.0148
12519W        W30723   3.726   2.449  12.025 -0.0926 -0.2728  0.0080
12520W        W30724  13.698   3.890   0.124  0.0333 -0.0207 -0.0166
12521W        W30725  17.051   7.479   6.212  0.1570  0.2778 -0.1415
12522W        W30726  14.560  12.487   1.444  0.5317  0.0176  0.1409
12523W        W30727   4.060   7.081   2.670  0.1327 -0.1379  0.0311
12524W        W30728  13.260   5.251   4.010 -0.1203  0.0245  0.0987
12525W        W30729   5.903  17.314   3.677 -0.0518 -0.0911  0.2384
12526W        W30730  15.713   8.244  11.307 -0.0765  0.1859  0.0466
12527W        W30731   3.312   5.422   1.587  0.1762 -0.1144  0.3458
12528W        W30732  15.571   5.308  12.539  0.5020 -0.0404 -0.0252
12529W        W30733  13.621  15.645   1.555  0.0016  0.0771  0.1095
12530W        W30734  14.209  13.834  14.320 -0.0367 -0.3320 -0.0974
12531W        W30735   5.247   1.344  12.021 -0.1896  0.0077 -0.0739
12532W        W30736   2.483   2.025  12.163  0.4192 -0.3165  0.0850
12533W        W30737   6.964   1.993  16.026 -0.1837  0.0024 -0.1539
12534W        W30738  13.023  14.213   5.499 -0.1837 -0.1533 -0.1081
12535W        W30739   7.734  11.989  13.331 -0.0748 -0.0349 -0.0017
12536W        W30740   9.924  16.069  15.309 -0.1220 -0.0224  0.0677
12537W        W30741   4.469   4.001   1.315  0.1832 -0.2935  0.1665
12538W        W30742  16.175  10.468   3.551  0.0611  0.0947 -0.1255
12539W        W30743   5.947   2.657   1.265 -0.0980  0.3461 -0.0212
12540W        W30744   4.243  11.524   1.711 -0.0520  0.1014 -0.0712
12541W        W30745   4.228  15.306  13.730  0.1763  0.1431  0.0472
12542W        W30746  13.856  11.288   3.747  0.0291  0.3269  0.5265
12543W        W30747  12.820   1.065  14.511 -0.2532  0.0410  0.0489
12544W        W30748   0.524   2.058   0.377  0.0896  0.0811 -0.2382
12545W        W30749  13.673   4.417   3.890 -0.1049 -0.1563 -0.0432
12546W        W30750  16.715   8.296  17.329 -0.1148  0.2777 -0.0160
12547W        W30751  16.863   7.013  11.101 -0.1611 -0.1394 -0.0818
12548W        W30752  13.440  15.292   4.595  0.1384 -0.0386  0.0654
12549W        W30753  14.262   9.279  16.386  0.2154  0.0308 -0.0432
12550W        W30754   7.082  17.313  15.438  0.1270  0.2298  0.1199
12551W        W30755   5.225  13.743  15.475  0.4414  0.0587  0.0134
12552W        W30756  16.643  14.954   1.411  0.0350 -0.0191 -0.0220
12553W        W30757  17.143  10.235  17.157 -0.1631 -0.0669 -0.2081
12554W        W30758  12.483   5.422   1.246  0.1526 -0.1677  0.0658
12555W        W30759  15.152   8.603  13.226  0.0856  0.2076 -0.0612
12556W        W30760  10.961   3.698  12.622 -0.1298  0.2397  0.1479
12557W        W30761  11.621   3.852   4.652 -0.2889 -0.0271 -0.1689
12558W        W30762  14.346  10.351   6.191  0.1098  0.0558  0.0175
12559W        W30763  17.328  16.495   0.174  0.1588 -0.0761  0.0764
12560W        W30764   6.155  11.189   0.145  0.2326 -0.1611 -0.0905
12561W        W30765  11.743   9.695  14.896 -0.2179  0.3573 -0.1170
12562W        W30766  10.844   5.030   5.534 -0.0452  0.2448 -0.2700
12563W        W30767   0.307  13.768   5.012  0.1476 -0.3888  0.0723
12564W        W30768   2.846   0.519  15.431  0.1015 -0.0104 -0.1048
12565W        W30769   3.771  12.172   4.351 -0.1217  0.0124 -0.4954
12566W        W30770   7.490  13.966   4.731  0.2863 -0.1245 -0.0400
12567W        W30771  16.912   5.517  14.233  0.0703  0.2344 -0.0653
12568W        W30772   0.564   1.493   2.021  0.1401 -0.0201 -0.1373
12569W        W30773  16.714   9.483  16.939  0.2532  0.0836  0.1100
12570W        W30774  11.974   1.134  14.023  0.0236 -0.0853 -0.0075
12571W        W30775   5.622  10.494  14.694  0.0482  0.0708 -0.0002
12572W        W30776   4.715   9.776  16.205  0.2055 -0.1027 -0.1788
12573W        W30777  17.289  10.356   1.411  0.2117 -0.2138 -0.1481
12574W        W30778  10.413   8.240   5.219  0.0373  0.2927 -0.2128
12575W        W30779   8.341   3.002  15.613 -0.1938 -0.0688 -0.0311
12576W        W30780   7.982   4.896  15.625  0.0101 -0.0217  0.1401
12577W        W30781   5.595   6.832  14.197  0.2125 -0.1212 -0.2631
12578W        W30782   3.542  13.154   0.860  0.1548 -0.0181 -0.0720
12579W        W30783  12.523   2.414  12.268 -0.2578  0.0119  0.0582
12580W        W30784   5.881   7.554   3.068 -0.0883  0.1388  0.1935
12581W        W30785   8.224   7.991   2.415  0.1315  0.2274 -0.0356
12582W        W30786  12.441   6.139  14.751 -0.0437  0.0220 -0.0415
12583W        W30787   8.260   5.388  14.023 -0.0541 -0.0923 -0.1785
12584W        W30788   8.166  12.825  13.058 -0.0884  0.0601 -0.1554
12585W        W30789  13.475  11.683   2.465  0.0595 -0.1234 -0.2909
12586W        W30790  10.390   3.226   3.159 -0.3541 -0.1856  0.1294
12587W        W30791   2.080   0.379   3.654  0.0710 -0.2504 -0.0133
12588W        W30792  10.952  16.545   4.474 -0.0047  0.2087 -0.1269
12589W        W30793   5.286   7.329  12.826 -0.0806 -0.1488  0.4443
12590W        W30794  10.861   1.654  13.015 -0.3708 -0.0987 -0.1462
12591W        W30795  15.990  10.376  14.618 -0.1323  0.1085 -0.0668
12592W        W30796   1.955  16.903   1.505 -0.2949 -0.0742 -0.1424
12593W        W30797  11.830   0.797   0.118  0.1184  0.3612 -0.0320
12594W        W30798   9.072  11.399   3.039  0.2375 -0.1089 -0.1552
12595W        W30799   9.660   9.301  17.528 -0.1657  0.1438  0.0461
12596W        W30800   1.523   3.625  15.443  0.0473 -0.0411 -0.1329
12597W        W30801   2.632   8.926   3.459  0.1051 -0.0942  0.1272
12598W        W30802  15.611   9.539   4.493 -0.1781  0.0312 -0.0226
12599W        W30803  12.492  16.615   4.972  0.1049  0.1786  0.0001
12600W        W30804  14.048   8.706   2.898 -0.1163  0.1049  0.2103
12601W        W30805  16.548   1.874  15.251  0.1126 -0.1332  0.0448
12602W        W30806  15.156   4.550  13.198  0.0840 -0.0388  0.0045
12603W        W30807   7.601   1.268   4.737 -0.2625 -0.0556 -0.2506
12604W        W30808   3.143   0.734  16.354  0.3503  0.0412  0.2865
12605W        W30809   1.033   7.561   1.790  0.0804 -0.1128  0.0053
12606W        W30810   0.027  12.161   3.579  0.1168 -0.1532 -0.1429
12607W        W30811  14.014  11.818   3.292 -0.0934 -0.1515 -0.3962
12608W        W30812  14.418   1.573   6.092  0.1832  0.2221 -0.0596
12609W        W30813  11.326   5.134   3.725  0.1452  0.2360  0.2303
12610W        W30814  15.118  11.281  14.206 -0.2009  0.1639  0.1583
12611W        W30815   7.987   6.217  14.249  0.1858  0.1338  0.2804
12612W        W30816  16.289   2.453  13.334 -0.0685 -0.3895  0.5726
12613W        W30817  10.574   0.179   5.359 -0.0989  0.1906  0.2481
12614W        W30818   2.310   8.763   2.600  0.1720  0.0518  0.0868
12615W        W30819   4.719  15.292  17.516  0.1096  0.0832  0.1424
12616W        W30820   9.180   9.130  12.188 -0.1063  0.0347 -0.2396
12617W        W30821   0.868   9.959  13.633  0.2402 -0.1722 -0.1003
12618W        W30822   7.159   8.586  15.004  0.2581 -0.1284 -0.1527
12619W        W30823  15.720  15.484  15.923  0.2077  0.1381  0.1282
12620W        W30824   4.792   2.798  12.867  0.1788  0.0456  0.1401
12621W        W30825   9.400   2.874  12.824 -0.0189  0.1739  0.0246
12622W        W30826   6.776  15.452   5.211 -0.1031 -0.2628  0.2938
12623W        W30827  16.902   2.495   5.237 -0.0885  0.0834  0.0914
12624W        W30828   9.548   0.319  17.337  0.1171  0.0833  0.0096
12625W        W30829  16.013  15.710   0.607  0.1300 -0.3437 -0.2523
12626W        W30830  10.246  16.201   3.053 -0.0902  0.0355 -0.1630
12627W        W30831   7.253  15.047  13.000  0.1001  0.0487  0.1789
12628W        W30832   9.900  10.203  17.458  0.2865 -0.1791 -0.1157
12629W        W30833   8.570   9.537  15.445 -0.1159 -0.4002  0.1743
12630W        W30834  16.030  13.860   5.191 -0.0315  0.2650  0.1124
12631W        W30835   6.424  10.221  13.971  0.4354  0.1935 -0.2953
12632W        W30836   4.226  10.118  14.503 -0.0967  0.2856  0.2218
12633W        W30837  10.856  13.676   4.886  0.1717 -0.2758  0.1640
12634W        W30838  11.316   8.194   4.306  0.2052 -0.0726 -0.1955
12635W        W30839  12.971  12.918  16.539 -0.0746  0.1246  0.1087
12636W        W30840   3.677  17.108   0.166 -0.1767 -0.0032  0.0779
12637W        W30841   4.170   3.592   0.422  0.3030 -0.3145 -0.0426
12638W        W30842   8.618   5.843   2.439  0.1607 -0.2320  0.0114
12639W        W30843   2.805  10.518  13.765  0.0187 -0.0595 -0.2632
12640W        W30844  11.037  15.685  15.508  0.1464 -0.1880 -0.2174
12641W        W30845   4.832   3.862   3.003 -0.1907 -0.0561  0.1436
12642W        W30846  10.271   6.305  14.927 -0.0374  0.1872  0.2985
12643W        W30847   8.249   2.520   3.450 -0.1692 -0.0867 -0.1663
12644W        W30848   0.577  16.935   3.169  0.0777 -0.0422  0.1958
12645W        W30849  13.739  16.240   0.791 -0.2255  0.2409  0.1422
12646W        W30850   7.536  17.258  12.921 -0.1652  0.2495  0.2263
12647W        W30851  15.322   1.139  15.615 -0.0606  0.0680 -0.0808
12648W        W30852   9.667  15.431   3.941  0.0961 -0.0196 -0.3501
12649W        W30853  17.132  14.810  17.487 -0.0177 -0.0389 -0.2910
12650W        W30854   8.234   6.880  12.517 -0.1815 -0.2449 -0.1113
12651W        W30855   8.664  11.174   4.105  0.3040 -0.2612  0.0559
12652W        W30856   1.189  15.007   2.323 -0.0185 -0.4080  0.1973
12653W        W30857  17.127   6.824  13.843 -0.3598  0.2574  0.0736
12654W        W30858   2.467  16.123   3.194 -0.0973 -0.4008 -0.0084
12655W        W30859  16.364   7.523  15.769 -0.0598  0.2263  0.0173
12656W        W30860   3.375   0.144   0.142  0.0238  0.1230  0.0755
12657W        W30861   6.280   7.957  12.214 -0.0531 -0.1846  0.0011
12658W        W30862   4.905   3.262   3.783  0.1502  0.0893  0.2349
12659W        W30863   7.318   8.066   2.007  0.1252 -0.0423 -0.0716
12660W        W30864  12.725  14.576  15.206  0.0811  0.2951  0.0746
12661W        W30865  13.845   0.772  14.560  0.0999  0.2478  0.1796
12662W        W30866   5.285   3.264  17.122  0.0434 -0.1179  0.0304
12663W        W30867  12.407  11.242   4.874  0.0127 -0.1691  0.2048
12664W        W30868  12.977   6.690   1.967 -0.1595  0.0225  0.1733
12665W        W30869   7.909  12.975  12.316  0.2613 -0.2821 -0.0863
12666W        W30870   6.266   8.282   4.148  0.0586  0.0016  0.0678
12667W        W30871   3.929   5.200   2.134  0.3222  0.2896 -0.4209
12668W        W30872   0.191   3.240   2.613  0.0456  0.3834  0.2809
12669W        W30873   3.725   8.329   2.955 -0.0872  0.1364  0.1657
12670W        W30874  15.870  16.170  15.651  0.1224  0.1193  0.0166
12671W        W30875  14.585   3.941  13.131  0.0630 -0.0987  0.0120
12672W        W30876   8.159  15.227  15.687  0.2834  0.1028  0.0296
12673W        W30877   0.160  10.868  16.126  0.2795  0.2346  0.2287
12674W        W30878   4.579  13.471   1.115  0.0654 -0.2265 -0.0395
12675W        W30879  16.889   4.775   2.360  0.2050 -0.1055 -0.3356
12676W        W30880  16.255  10.462  13.219  0.2261 -0.1859  0.1276
12677W        W30881   4.820  11.326  15.151 -0.1926  0.2530  0.1236
12678W        W30882   3.750  14.044   0.790  0.0562 -0.0189 -0.3349
12679W        W30883  12.374  15.362  15.415 -0.0400 -0.0423 -0.1105
12680W        W30884   2.816  11.378   0.963 -0.4465 -0.1705  0.2906
12681W        W30885   3.443  11.566   3.338  0.2197 -0.0161 -0.1912
12682W        W30886   1.969   5.516   1.458  0.1415  0.0202  0.1282
12683W        W30887  14.382   4.404   3.087 -0.1754 -0.0626 -0.0740
12684W        W30888   9.244   7.084   0.001 -0.1914 -0.0724  0.2054
12685W        W30889  14.472   6.941  16.813 -0.0357  0.1207  0.0652
12686W        W30890   3.675  16.404  17.497 -0.0551 -0.0601  0.1501
12687W        W30891  14.563   8.561  12.635  0.2672 -0.3537 -0.0130
12688W        W30892   8.648  12.519   0.938 -0.0331  0.2084 -0.1635
12689W        W30893  12.378   8.173  12.871 -0.0101 -0.0695  0.0200
12690W        W30894  17.312   6.378  11.534  0.0985  0.0585  0.0920
12691W        W30895   8.676   1.650  15.508  0.1461  0.1344 -0.2069
12692W        W30896  11.347   0.799   0.248  0.2439 -0.3237 -0.1809
12693W        W30897  13.069  17.333   3.245  0.0187  0.0397  0.0939
12694W        W30898  13.129   9.618  15.434 -0.0944  0.1391  0.0765
12695W        W30899   3.634  12.854  17.097  0.0994  0.2815  0.2537
12696W        W30900  13.489  10.986  15.305  0.0987 -0.0687  0.0971
12697W        W30901   9.843  11.830  17.013  0.0987  0.0259 -0.1092
12698W        W30902  10.981   2.527   5.823 -0.1111 -0.0160 -0.1024
12699W        W30903   2.181   1.374  16.203  0.1967  0.0476 -0.2040
12700W        W30904  10.878   5.101  14.609 -0.2046 -0.0063  0.0298
12701W        W30905  14.523  16.165  16.895  0.1267  0.0219 -0.1002
12702W        W30906   2.737  16.472  14.056 -0.0220  0.2100  0.2270
12703W        W30907  14.700  12.107  13.112  0.0219  0.3113 -0.0268
12704W        W30908  17.000  12.190   1.020 -0.0680  0.1000  0.0347
12705W        W30909   9.392  16.912   1.517  0.0174 -0.0037  0.1017
12706W        W30910   0.536  15.227   4.974  0.1113 -0.1614 -0.3483
12707W        W30911  14.557   2.124  13.618  0.1734  0.0009 -0.2910
12708W        W30912   5.475  12.943  13.445  0.3644  0.0733  0.0604
12709W        W30913  15.310   4.963  12.836  0.1518  0.2167 -0.4154
12710W        W30914   7.264   9.153  17.310  0.2461  0.1246  0.0638
12711W        W30915   3.458  11.271  13.932 -0.0918 -0.2834  0.0718
12712W        W30916   9.427   7.855  16.000 -0.0801  0.0058 -0.0199
12713W        W30917   8.581  12.476   2.163 -0.1727 -0.0393 -0.0186
12714W        W30918   3.828  15.224  13.373 -0.0418  0.0506 -0.2849
12715W        W30919  12.464   2.875   2.214  0.1918  0.0291  0.2689
12716W        W30920  17.081  15.965   3.394 -0.3170  0.0320 -0.0028
12717W        W30921  12.566   4.762   3.370 -0.0505  0.0467 -0.1023
12718W        W30922   3.955  10.023   0.559 -0.1460 -0.2303  0.0340
12719W        W30923   8.570   7.881   0.910  0.0001 -0.2263 -0.2469
12720W        W30924   0.146   1.903   2.581  0.0188  0.1687 -0.0397
12721W        W30925   1.925   4.943   4.543  0.0980  0.1948  0.0660
12722W        W30926  10.325  15.052  15.426  0.3511 -0.2748  0.0297
12723W        W30927  10.520   1.112  16.079 -0.0808 -0.1938  0.2520
12724W        W30928   5.273   8.436   2.499 -0.1824  0.0197 -0.2415
12725W        W30929  11.962  13.582   4.009  0.3977 -0.1331 -0.1151
12726W        W30930  13.482   1.815   4.671  0.1360  0.1623 -0.1241
12727W        W30931   6.702  15.754   3.009 -0.4334 -0.0897 -0.2757
12728W        W30932  16.134   4.547   4.077 -0.0904 -0.1665  0.0911
12729W        W30933   9.649   0.477  13.683  0.0524 -0.0540  0.1821
12730W        W30934   4.848   0.815  13.762  0.0099 -0.3577 -0.0689
12731W        W30935   3.805  16.254   4.168  0.2933  0.2668 -0.0164
12732W        W30936   8.885   3.090  14.442 -0.1347 -0.1408  0.1843
12733W        W30937  11.788  14.432  12.889  0.1976  0.1120  0.1204
12734W        W30938   8.368  15.165  14.501  0.3421 -0.0702 -0.2015
12735W        W30939   3.398   1.345  16.921  0.1057  0.2737  0.0984
12736W        W30940   2.191   0.194  13.817  0.1091 -0.1976  0.0056
12737W        W30941  11.735   8.259  15.814  0.2976  0.1711  0.1404
12738W        W30942   6.616  13.666   2.590  0.1008  0.1105  0.1991
12739W        W30943  10.893   0.077  17.132 -0.3223  0.2242  0.1854
12740W        W30944   6.590  16.655  15.576  0.3999 -0.0195 -0.1951
12741W        W30945   8.318  15.803  15.862  0.0373  0.0254 -0.1911
12742W        W30946  11.429   4.012   3.122  0.2900  0.0992 -0.1853
12743W        W30947  13.648   8.689  13.319  0.1083  0.1650 -0.2235
12744W        W30948   5.775  10.531   5.021  0.1517  0.0275 -0.0141
12745W        W30949  13.191   3.808   0.422 -0.0263 -0.0926 -0.2498
12746W        W30950   3.976  15.073  15.945  0.0236  0.3429 -0.1525
12747W        W30951   7.269   0.612   2.376 -0.0416  0.2876  0.2076
12748W        W30952   9.362  12.117  13.301 -0.0683  0.0343  0.3537
12749W        W30953  10.549   0.068   1.885 -0.3246  0.1725  0.0430
12750W        W30954  16.530  17.294   3.401  0.1241  0.3292  0.1737
12751W        W30955   8.371   4.822   3.879 -0.0173 -0.4927 -0.2268
12752W        W30956   8.323   8.264   1.905 -0.1084 -0.1681  0.0643
12753W        W30957   1.977   0.857   4.197 -0.0767 -0.0942 -0.0320
12754W        W30958  10.347  13.746   4.242  0.1971  0.0052 -0.2713
12755W        W30959  16.252   8.185  17.301 -0.1698  0.0956  0.0228
12756W        W30960  10.657   5.160   4.996  0.2269 -0.0192 -0.0288
12757W        W30961   2.794   1.665   3.284 -0.1488  0.3778  0.2651
12758W        W30962   3.602   6.320   5.341  0.1065 -0.2140  0.2336
12759W        W30963   0.257   6.243  16.790 -0.2894  0.1907  0.0204
12760W        W30964   3.390   5.668  15.286  0.2461  0.0303  0.2174
12761W        W30965   1.524   3.890  17.215  0.0698  0.1832  0.0368
12762W        W30966   0.998  12.138   1.369  0.3523 -0.3654  0.2284
12763W        W30967  16.276   7.695   3.584 -0.0051 -0.0585 -0.1172
12764W        W30968  14.732   6.181   5.314  0.0381 -0.0722 -0.2465
12765W        W30969  16.079   4.668   5.124  0.1645 -0.4209  0.1891
12766W        W30970   3.766  13.988   5.250  0.2657  0.2042  0.2092
12767W        W30971   2.109  13.837  16.439 -0.1535  0.3394 -0.1252
12768W        W30972   0.905   0.499  17.080 -0.1049  0.1902 -0.0965
12769W        W30973   0.787   4.852  15.832  0.1759 -0.0646  0.0322
12770W        W30974  10.563   6.149  16.658  0.2463  0.2151 -0.1458
12771W        W30975   0.384   8.947   4.777 -0.2431  0.5640  0.0348
12772W        W30976   9.900   5.898  12.355 -0.1298 -0.1137  0.0736
12773W        W30977   3.123   1.269   0.586  0.0152 -0.0401 -0.2368
12774W        W30978  10.413  12.695   3.014 -0.4770  0.1973 -0.0518
12775W        W30979   2.812   4.256   5.213 -0.1398 -0.1230 -0.3429
12776W        W30980   2.959   9.642  16.694  0.1181 -0.2157  0.0842
12777W        W30981   6.662   8.885   5.311  0.2211  0.3218  0.0039
12778W        W30982   8.138   0.671   0.733  0.3709 -0.3564  0.1032
12779W        W30983   0.003   8.347  16.164 -0.0275  0.0487  0.1929
12780W        W30984   9.238  10.225  16.066 -0.0653 -0.1190  0.1796
12781W        W30985  15.306   6.546   3.904 -0.1414 -0.1419  0.1246
12782W        W30986   2.630   3.840  14.889  0.0753  0.2483 -0.2180
12783W        W30987  14.033  16.548   2.923  0.0811 -0.0492  0.1603
12784W        W30988   6.629   5.679  14.271 -0.1040  0.2087 -0.0867
12785W        W30989   1.108  11.659  12.794 -0.2511 -0.1334  0.0555
12786W        W30990   7.521  15.493   3.573  0.1884 -0.0106 -0.0516
12787W        W30991   5.096   0.117  13.199  0.0419  0.0632 -0.2632
12788W        W30992  16.512   5.522  11.990  0.0551 -0.0286 -0.1954
12789W        W30993   5.790  16.878   0.579  0.0282 -0.2242  0.0793
12790W        W30994   1.572   2.834   2.999 -0.2367  0.1260 -0.0227
12791W        W30995   5.468  15.086   2.883 -0.4124  0.1704  0.3948
12792W        W30996  10.714  16.146   3.627 -0.1810 -0.2266  0.2182
12793W        W30997  13.208   6.410   4.713 -0.4822 -0.0803 -0.2820
12794W        W30998  15.545  11.305   2.518 -0.0722  0.3864  0.0592
12795W        W30999  16.407   4.760   3.730 -0.1070 -0.1241 -0.3767
12796W        W31000  14.157   4.551   4.088  0.0864 -0.3686 -0.0895
12797W        W31001  15.209   8.928   0.377  0.3855  0.3907 -0.0363
12798W        W31002  12.758   6.003  15.633 -0.2598 -0.1241 -0.0054
12799W        W31003   1.358  11.065  16.592 -0.1866  0.3817  0.1744
12800W        W31004  12.746  13.354  15.704  0.1287  0.0840  0.0400
12801W        W31005   4.676  10.371   4.684  0.3103 -0.1725 -0.0349
12802W        W31006  10.335  17.335   0.909  0.0531 -0.0564  0.1685
12803W        W31007  12.330   8.496  16.811 -0.3649  0.1781  0.1497
12804W        W31008   2.830   3.287  15.420 -0.1378  0.1175 -0.2980
12805W        W31009   7.580   8.448  13.135  0.0652 -0.0508 -0.0545
12806W        W31010  13.918   3.571   3.543 -0.2573 -0.2207 -0.0020
12807W        W31011  14.836   9.813  17.479  0.4157 -0.0870 -0.2426
12808W        W31012  10.494  12.713   1.196  0.1778  0.2208 -0.3067
12809W        W31013   6.527   8.563  13.488 -0.0303 -0.1084  0.0137
12810W        W31014  14.295  15.396  12.370 -0.1924 -0.3759 -0.2042
12811W        W31015   3.992   2.101   4.367  0.3796  0.0813  0.2469
12812W        W31016   2.096   3.213   2.303  0.0555 -0.1230 -0.1974
12813W        W31017   5.253   1.583  12.472  0.2094 -0.0597  0.1407
12814W        W31018   0.376   6.562  12.822 -0.0690 -0.2462 -0.1602
12815W        W31019   5.299   8.453  12.521 -0.2920 -0.2168  0.2075
12816W        W31020   7.072  15.674   1.689 -0.1445 -0.1899  0.2168
12817W        W31021  15.891   4.018   1.772 -0.0142 -0.0786 -0.1255
12818W        W31022  13.410   0.424  15.565 -0.2786  0.3873  0.0966
12819W        W31023   0.571  16.909   0.673 -0.0379 -0.1570  0.2139
12820W        W31024   2.055  13.646   3.791  0.2090 -0.0426 -0.3052
12821W        W31025   3.395   7.377  17.054 -0.0186  0.1678  0.2642
12822W        W31026  16.625   6.569  15.898 -0.0254 -0.3115  0.0449
12823W        W31027  16.292  16.358  14.059  0.0604  0.2608 -0.1124
12824W        W31028   1.690   6.509  15.108  0.1202 -0.1915  0.1142
12825W        W31029   6.807   9.285  15.682  0.0195 -0.0448  0.2229
12826W        W31030  17.229  11.679   3.708  0.0434  0.2937 -0.2459
12827W        W31031  13.830  14.141   0.328 -0.0750 -0.1655 -0.2010
12828W        W31032   6.730   1.221   3.199  0.1885 -0.0059 -0.0419
12829W        W31033   6.032  13.019  14.575  0.0987  0.1638 -0.0478
12830W        W31034   1.841   2.596   3.935 -0.0878 -0.2920 -0.0427
12831W        W31035  10.897   5.038   4.552  0.1636  0.0847 -0.0869
12832W        W31036   0.879   4.564   3.706 -0.0041 -0.1496  0.1662
12833W        W31037  17.054  14.433  13.980 -0.1152  0.1084 -0.2532
12834W        W31038  17.295   7.320  12.129  0.0388 -0.1251 -0.1885
12835W        W31039   1.340   6.835  14.807  0.0682  0.0454 -0.0976
12836W        W31040  17.042  16.422   0.649  0.0430  0.0376  0.0765
12837W        W31041   3.307   0.816   3.635 -0.1282 -0.1639 -0.2648
12838W        W31042  10.253   8.600   0.756 -0.1015  0.3464 -0.0668
12839W        W31043   1.218   6.407   3.873 -0.1705 -0.3825 -0.0641
12840W        W31044   0.373   9.456  12.401  0.3174 -0.1212 -0.0477
12841W        W31045  11.779  14.159  14.949 -0.4508 -0.5763  0.0028
12842W        W31046   1.632  14.439  14.548 -0.0021  0.0021  0.0342
12843W        W31047  17.342  14.642   4.200  0.0513  0.1260  0.1521
12844W        W31048   8.346  14.210  14.381  0.1190  0.2246  0.0516
12845W        W31049   5.791   6.837   0.765 -0.1221 -0.2472  0.2826
12846W        W31050  11.583   9.504   0.830 -0.2715  0.1622 -0.0048
12847W        W31051   2.953  11.394  14.117 -0.0367 -0.2187  0.1947
12848W        W31052   7.957   2.421  15.600 -0.1193 -0.1347 -0.0923
12849W        W31053   8.351  10.846  12.975  0.3243  0.1664 -0.1046
12850W        W31054   1.252  13.640   1.115 -0.0240  0.3305 -0.1855
12851W        W31055  10.182  15.590  16.710  0.2773 -0.0317 -0.0510
12852W        W31056  10.563   8.634   2.461 -0.0479 -0.1259 -0.2532
12853W        W31057  11.782   6.022   2.143  0.0275 -0.0596  0.0000
12854W        W31058   5.003   4.020   0.034  0.0122 -0.2899  0.3004
12855W        W31059  11.306  12.175  16.408  0.0400 -0.0888 -0.3892
12856W        W31060  11.419  17.206  13.362 -0.2117  0.0929  0.0229
12857W        W31061  16.448   3.532   4.563  0.1733  0.1804  0.2449
12858W        W31062   9.291  17.269  12.210  0.1143 -0.2334 -0.1342
12859W        W31063   4.005   1.526   4.895  0.1091 -0.0005 -0.1436
12860W        W31064   7.384  13.669  15.522  0.1626 -0.2177 -0.2236
12861W        W31065  17.073   6.504   2.147 -0.0694  0.1496  0.1991
12862W        W31066   1.851  14.181   3.220  0.1489  0.1849  0.3159
12863W        W31067  16.710  10.201  15.930 -0.0092 -0.0218  0.0412
12864W        W31068   6.200   8.741  14.854  0.2883 -0.0819  0.2573
12865W        W31069  10.354  13.606   0.662 -0.0841 -0.3259 -0.3173
12866W        W31070   7.728   4.635   2.294 -0.0436  0.1343  0.2042
12867W        W31071  14.044   1.364   2.671  0.1246 -0.1992 -0.1064
12868W        W31072  12.060   6.453   4.179 -0.1795  0.0555  0.2160
12869W        W31073  16.120  10.609  15.192  0.0006 -0.2573 -0.1603
12870W        W31074   6.152  11.353   4.666  0.1382 -0.0029 -0.0143
12871W        W31075  16.418   1.726  12.566  0.0261 -0.0534  0.0724
12872W        W31076  10.442  16.772   1.730 -0.1451  0.1198 -0.0022
12873W        W31077  11.280   6.312  16.320  0.2073  0.1689 -0.2285
12874W        W31078  15.445   1.991  15.626 -0.0800 -0.2153 -0.0746
12875W        W31079  15.913  16.072  12.691  0.0268 -0.0236  0.0305
12876W        W31080   4.834  11.630  17.331 -0.1220 -0.0602  0.1425
12877W        W31081  17.075   6.032  13.520 -0.2648 -0.0327 -0.0954
12878W        W31082  12.873  11.153   1.907 -0.0266  0.0034 -0.3475
12879W        W31083   7.613   0.314  15.921 -0.0906  0.0430  0.3471
12880W        W31084   5.215  13.234  12.970 -0.2246 -0.2567 -0.1433
12881W        W31085  17.184  16.849   2.433 -0.1580  0.3833 -0.2572
12882W        W31086   4.469   7.670   3.564  0.4109 -0.1804  0.0107
12883W        W31087   3.517  11.823   0.434  0.0121  0.1864 -0.0193
12884W        W31088   1.892  12.344  16.453 -0.3671 -0.0610 -0.1853
12885W        W31089  13.521   2.063  14.566  0.1475 -0.2012  0.1719
12886W        W31090   9.483  12.561  14.143 -0.2638 -0.4171 -0.1591
12887W        W31091   7.582  10.207  12.127  0.2048 -0.2587  0.2184
12888W        W31092   3.173  16.769   4.775 -0.0662  0.1444 -0.0175
12889W        W31093   1.314   1.265   4.748  0.0515  0.2247  0.4049
12890W        W31094   5.705   4.524   3.419 -0.1772  0.0332  0.1418
12891W        W31095   8.986   6.836   3.459  0.0291 -0.1245 -0.2879
12892W        W31096   9.928   6.944  16.442  0.0576  0.1507 -0.2235
12893W        W31097   3.131   6.787  14.532 -0.2399  0.2567 -0.3456
12894W        W31098  11.248  14.428   1.208  0.1451 -0.0397 -0.0264
12895W        W31099   2.515   0.718   3.653 -0.1366  0.1046  0.0051
12896W        W31100   4.691   5.852  10.856 -0.2157  0.0272  0.0069
12897W        W31101   2.961  17.279  13.085  0.2110  0.0812 -0.2081
12898W        W31102   8.344  11.259   0.445 -0.0039 -0.1095  0.0997
12899W        W31103  12.526   4.721   0.072  0.4441 -0.1373 -0.0918
12900W        W31104   8.881  13.247  11.076  0.0784 -0.0343  0.0971
12901W        W31105  14.821   6.296  14.702 -0.1372 -0.2286 -0.4112
12902W        W31106   8.495   0.766   1.167  0.0608  0.3128  0.0616
12903W        W31107  14.499  10.483   2.340 -0.1235  0.1924 -0.0903
12904W        W31108   4.305   5.937   2.025  0.3005 -0.3125 -0.0726
12905W        W31109  12.363  16.674   3.982  0.1877  0.0662  0.1757
12906W        W31110   3.042  12.876  16.969 -0.1837 -0.0070  0.0911
12907W        W31111   8.754  10.174   4.462 -0.1558 -0.5348 -0.0175
12908W        W31112   2.673  11.472  15.554 -0.2422  0.2657  0.0168
12909W        W31113  13.719   7.616  15.110 -0.4251  0.2188  0.2767
12910W        W31114   9.527   9.739   4.738 -0.0661  0.0008 -0.3121
12911W        W31115   3.704   1.278  15.072 -0.1267 -0.1426 -0.0998
12912W        W31116   6.840   8.161  13.429  0.0493 -0.2362  0.1720
12913W        W31117  13.712  16.267  17.178 -0.0250 -0.0021 -0.0788
12914W        W31118  15.290  10.431  16.787 -0.0638  0.2600  0.1206
12915W        W31119  16.041   5.537  13.744 -0.2837  0.0806 -0.0590
12916W        W31120  12.521   6.631  16.805  0.0222  0.1250  0.0400
12917W        W31121   3.380  12.926  12.579 -0.0541  0.2521  0.1037
12918W        W31122   6.884  10.790  17.024  0.0410  0.1501 -0.1282
12919W        W31123   0.737  13.290   1.813  0.1866 -0.0275  0.1208
12920W        W31124   7.947   2.902  14.251 -0.0965 -0.0350  0.0765
12921W        W31125  12.351   3.283   1.948  0.2393  0.0565 -0.1654
12922W        W31126  13.824   7.454   3.794  0.2230 -0.1699 -0.0228
12923W        W31127   5.170  17.038   0.199  0.1999  0.3041  0.0370
12924W        W31128   1.889   7.895  16.774  0.0175  0.1576 -0.1790
12925W        W31129   3.556  15.560   1.945  0.1314 -0.0871  0.0565
12926W        W31130   9.361  10.562  14.554  0.0819  0.1741  0.0561
12927W        W31131  13.607   3.887  11.874  0.2006  0.1027  0.0918
12928W        W31132   2.233   2.354   4.488  0.1481  0.1435 -0.2475
12929W        W31133   0.041   1.244   1.195 -0.1660  0.1671  0.0299
12930W        W31134   9.481  15.556   1.116 -0.0503  0.0583 -0.1075
12931W        W31135   3.646   6.913   1.031 -0.0064 -0.0336  0.0847
12932W        W31136   8.530  10.275  14.024 -0.2130 -0.0172  0.1515
12933W        W31137  17.213   5.916  16.262 -0.0037 -0.1884 -0.0568
12934W        W31138   8.834   3.321  13.465  0.1296  0.1648 -0.2244
12935W        W31139   1.043  11.440  14.248  0.3590  0.3749 -0.0572
12936W        W31140   8.930   4.189   1.265  0.2881 -0.3132 -0.1506
12937W        W31141  11.426  11.104   4.609  0.0617  0.0034  0.3519
12938W        W31142  12.716   4.217  14.177 -0.0091  0.3843 -0.2437
12939W        W31143   3.604   0.143   0.618 -0.0115  0.0545 -0.0535
12940W        W31144  11.212  16.138  14.849 -0.1826 -0.1714  0.1605
12941W        W31145   9.558   0.611   4.848 -0.2078 -0.1082  0.0515
12942W        W31146  14.116   1.583  13.974  0.1005  0.1359  0.2462
12943W        W31147   9.109   8.567  13.625 -0.0731  0.0551  0.1753
12944W        W31148  14.790  16.193  12.387  0.0819  0.1601 -0.1065
12945W        W31149   8.251   0.498   3.029  0.2685  0.0752  0.0948
12946W        W31150   8.479   3.310   5.181  0.3312 -0.1470  0.1757
12947W        W31151   7.198  13.001  16.817  0.2737 -0.1405 -0.0428
12948W        W31152   1.632   6.410  13.364 -0.0950  0.0755  0.0530
12949W        W31153  12.655  10.169   4.356 -0.1281  0.0622 -0.0676
12950W        W31154  12.020   3.374  11.705  0.2948  0.2978  0.1587
12951W        W31155   1.893   8.933   4.433 -0.1576 -0.0064  0.2620
12952W        W31156   9.559   8.456   4.578  0.0712  0.0177 -0.0870
12953W        W31157  16.256   1.270   2.581  0.0297 -0.2138  0.3123
12954W        W31158   9.898  17.312   0.708  0.3475  0.2243 -0.0141
12955W        W31159  11.809   1.904   4.328 -0.0733  0.1172 -0.2717
12956W        W31160   2.407   5.131   4.452 -0.2548 -0.0952  0.2358
12957W        W31161  13.806   7.999   3.447 -0.1848 -0.1242 -0.0694
12958W        W31162  10.737  11.661   4.450  0.1279  0.1733 -0.0073
12959W        W31163  12.669  10.137  12.966  0.0813  0.0469  0.0400
12960W        W31164   6.763   8.141   5.059  0.3199 -0.2340  0.0684
12961W        W31165  15.437  16.849   4.972  0.4089  0.1871 -0.0391
12962W        W31166  12.646   2.059  13.965  0.0029  0.2861  0.0975
12963W        W31167  11.622   5.078  11.004  0.0723  0.0187 -0.1874
12964W        W31168   1.154   3.196   1.063  0.1921  0.3880  0.1034
12965W        W31169   9.498   9.602   1.139 -0.2286 -0.1066  0.3440
12966W        W31170   6.354  14.043   2.758 -0.0726 -0.0405  0.0039
12967W        W31171  13.583   4.430   0.019  0.0173 -0.1470 -0.3466
12968W        W31172   8.517   1.190  14.019 -0.0447 -0.0850  0.1744
12969W        W31173   8.835   2.987   4.306  0.2000 -0.1496  0.0830
12970W        W31174  10.553   0.022   4.062  0.0914  0.2005 -0.1337
12971W        W31175   4.347  10.800  16.326  0.1638 -0.0311  0.0072
12972W        W31176  11.898  13.948  14.411  0.0225 -0.0551 -0.0077
12973W        W31177   1.131  15.352  17.105 -0.1220  0.2727  0.5037
12974W        W31178   7.599   1.650   2.457  0.3052  0.2867 -0.3866
12975W        W31179  11.455   2.938  14.312  0.0886 -0.2408 -0.0642
12976W        W31180  16.337  12.746   3.589 -0.0605  0.0542  0.0189
12977W        W31181  10.339   4.365   2.452 -0.0221  0.1434 -0.1347
12978W        W31182   0.363   2.959  16.961  0.1507  0.1168  0.1917
12979W        W31183   4.854   0.051   0.369 -0.2229 -0.0879 -0.2670
12980W        W31184  14.779  15.105  14.365 -0.1845  0.1813  0.0172
12981W        W31185   2.274  12.170  13.499  0.0827 -0.2911 -0.1616
12982W        W31186   6.947  14.678   1.509 -0.2257 -0.0498  0.1058
12983W        W31187   5.596   5.877   5.535 -0.0367  0.3262 -0.3057
12984W        W31188   6.032   1.675  15.469  0.1204 -0.0391  0.3763
12985W        W31189   9.369   7.669   0.509  0.1504 -0.0614 -0.0265
12986W        W31190   3.569  15.767  12.335 -0.0901 -0.1446 -0.3419
12987W        W31191   8.394  12.642  15.482  0.0638 -0.2025 -0.2370
12988W        W31192  11.886   2.027  14.503  0.1078 -0.2625 -0.0005
12989W        W31193   1.083   6.968   5.136  0.1985  0.2127  0.2247
12990W        W31194   5.268  13.988  13.295  0.0597 -0.0497 -0.1277
12991W        W31195  11.667  12.575  14.983 -0.1763 -0.0131  0.1378
12992W        W31196   8.948  15.781   3.436 -0.0003 -0.1820  0.2421
12993W        W31197   7.508   4.779  15.573 -0.1047 -0.0434  0.0481
12994W        W31198   9.427   2.314   2.578  0.0578  0.0377 -0.0600
12995W        W31199  14.920   4.634   5.220 -0.1475 -0.3947 -0.1920
12996W        W31200   8.466  14.456   3.079  0.3173 -0.0658  0.1221
12997W        W31201  17.192   4.556  17.049  0.0596 -0.1072 -0.1536
12998W        W31202  13.174   4.008   4.822 -0.0887  0.1081  0.1517
12999W        W31203   1.051   5.803   0.331 -0.1947  0.1341 -0.2338
13000W        W31204   3.900   3.365   2.682 -0.1266 -0.0290  0.0201
13001W        W31205   7.703  14.719  13.574  0.2530 -0.2326  0.3857
13002W        W31206  16.374   0.363   4.782  0.0744  0.1100  0.1487
13003W        W31207  15.250  14.457   2.219  0.0907  0.1293  0.0353
13004W        W31208  13.798  12.144  17.153  0.1709  0.0681  0.0724
13005W        W31209  10.943   2.704  16.983 -0.2119 -0.0134  0.3852
13006W        W31210  10.900   6.255   5.164 -0.3401  0.1174 -0.0531
13007W        W31211   2.543  15.798  16.482  0.1435 -0.0717  0.0200
13008W        W31212  13.033   2.839  11.890  0.1347 -0.1103 -0.3541
13009W        W31213   5.337   6.717   1.074 -0.0682 -0.0318  0.0551
13010W        W31214   8.829  10.151   3.172  0.0781 -0.2023 -0.1643
13011W        W31215   0.344   2.837  12.222 -0.0042  0.2261 -0.4243
13012W        W31216   0.391   7.185   2.747  0.2370 -0.3875  0.1226
13013W        W31217   8.673   2.588   1.336 -0.1781  0.2071 -0.1883
13014W        W31218  16.813  14.695   0.304  0.0879 -0.2522 -0.0721
13015W        W31219  17.292   3.846  12.932  0.0099 -0.1230  0.4514
13016W        W31220   5.363  15.364   0.786  0.1097 -0.1574  0.1451
13017W        W31221   5.839   6.533   0.239 -0.3464  0.1177  0.2609
13018W        W31222   6.864  10.268  15.612 -0.0010  0.3571  0.0490
13019W        W31223  17.064  12.875  12.670 -0.3078 -0.1498  0.6468
13020W        W31224   5.387   7.635  16.351  0.4344  0.2470 -0.0279
13021W        W31225  10.447  12.992   1.618  0.1545  0.2018  0.1597
13022W        W31226  16.808  14.221   4.766  0.1253  0.2085  0.3255
13023W        W31227  17.041  10.606   3.051 -0.1666  0.1554  0.3330
13024W        W31228   5.347   1.958  12.818 -0.2108 -0.0810 -0.1944
13025W        W31229  10.663  12.235   1.026 -0.0512 -0.0839 -0.0971
13026W        W31230  12.889  14.709   5.594  0.1174  0.1266  0.0257
13027W        W31231   9.302  15.024   0.385  0.0663  0.1744  0.1566
13028W        W31232  16.694   3.078  17.416 -0.2101 -0.1568 -0.0202
13029W        W31233  16.604   2.768  15.706 -0.0889  0.1119 -0.0889
13030W        W31234   2.858  12.582   4.137 -0.3472  0.0436  0.0174
13031W        W31235   7.504  17.295  14.688 -0.0381 -0.1747 -0.6436
13032W        W31236  17.081  13.276   1.242  0.1618 -0.0639 -0.0470
13033W        W31237  12.393   1.918  14.721 -0.1769  0.2212 -0.0423
13034W        W31238   0.180   9.624   0.331  0.3818  0.0423 -0.1503
13035W        W31239   1.742   0.233   5.696 -0.1198 -0.0263 -0.0841
13036W        W31240   2.340  16.288   2.694  0.1150 -0.1587  0.1638
13037W        W31241   2.490   5.283  16.752  0.3888 -0.3105  0.2742
13038W        W31242  16.201   9.934  14.665  0.1958 -0.3124 -0.4087
13039W        W31243  12.742   3.182   3.295 -0.1452 -0.0604  0.2549
13040W        W31244  15.746   4.747   4.781  0.1378 -0.0939 -0.3344
13041W        W31245   5.584  10.330  13.445 -0.2477  0.0009 -0.2257
13042W        W31246  10.488   5.616  15.887  0.1273 -0.1794 -0.0780
13043W        W31247   2.085   0.660   3.061  0.0960 -0.0393 -0.1167
13044W        W31248   6.890   2.031  14.317 -0.0484  0.1490  0.0174
13045W        W31249  12.979  11.399  12.804 -0.1749  0.1411 -0.0407
13046W        W31250   1.803   6.444  16.344  0.0063 -0.1835 -0.0909
13047W        W31251  10.457   8.361  17.347 -0.0479  0.2269  0.0121
13048W        W31252   4.131   9.131   0.925 -0.0327 -0.0260 -0.2904
13049W        W31253  10.157  16.903   0.533  0.2581  0.2745  0.1451
13050W        W31254   6.386  15.230   0.343 -0.3797  0.0840 -0.1498
13051W        W31255   9.886   4.189  16.208 -0.1643 -0.1983  0.2060
13052W        W31256  14.420   0.621   2.349 -0.1453 -0.1976  0.1795
13053W        W31257   9.874   4.068   2.553 -0.0481  0.3007 -0.0092
13054W        W31258  15.917   8.962   0.726 -0.2998 -0.0614  0.1878
13055W        W31259   4.496  10.705   2.190  0.1657 -0.0219  0.0026
13056W        W31260   9.838  14.636  17.263 -0.3251  0.0827  0.1033
13057W        W31261  16.773   5.528   3.700  0.0126 -0.1044  0.0860
13058W        W31262  12.459   9.082  13.794  0.1118  0.0677  0.3246
13059W        W31263  10.277   1.251  15.080  0.2942  0.1236 -0.0693
13060W        W31264   6.473   6.011  13.941 -0.1590  0.1069 -0.0630
13061W        W31265  17.169  10.913   1.132 -0.2181  0.3454 -0.1605
13062W        W31266  15.528   9.659   5.214  0.2417 -0.3600  0.1669
13063W        W31267   1.501   3.242   2.676 -0.3757 -0.0043 -0.1182
13064W        W31268   4.323   9.007  16.450  0.3104  0.0982  0.0786
13065W        W31269  15.544  15.942  17.279  0.0842  0.0376 -0.1168
13066W        W31270   1.026   9.845  16.467  0.0981  0.1738  0.1803
13067W        W31271   7.392   7.389  17.401 -0.1902  0.0422  0.1419
13068W        W31272  17.064  14.215   0.956  0.0529  0.0457  0.1371
13069W        W31273  15.850   1.943   3.783 -0.0983 -0.1871  0.1308
13070W        W31274  13.331   7.367   1.206 -0.0837  0.0076 -0.1132
13071W        W31275  13.448   4.910   1.632 -0.1410 -0.1763 -0.1515
13072W        W31276   4.976  15.268  17.045 -0.0559  0.2063  0.0526
13073W        W31277   7.782  17.002   2.037 -0.1793 -0.2127  0.1059
13074W        W31278   4.566   9.688  13.493 -0.0147 -0.1528 -0.3789
13075W        W31279  12.488   6.453   3.498 -0.0590 -0.0135  0.1265
13076W        W31280   1.224  15.146   0.365 -0.2077  0.6279  0.0664
13077W        W31281   1.847   2.618   4.487 -0.1032 -0.1483 -0.1577
13078W        W31282  12.369   6.563   0.641 -0.0312  0.0931  0.0774
13079W        W31283  10.704  14.783  16.179 -0.0192 -0.1064  0.0365
13080W        W31284   5.905   2.144  15.040 -0.2319 -0.1478 -0.0166
13081W        W31285   7.896   7.688   2.815  0.0158  0.2310 -0.0488
13082W        W31286   9.584  11.904   1.721 -0.1800  0.0309 -0.0738
13083W        W31287  16.280  15.504   4.858  0.1011  0.1106 -0.2214
13084W        W31288  13.187   5.760  13.177  0.0889 -0.0080 -0.2540
13085W        W31289  12.147   2.041  12.292  0.1479 -0.0291  0.1789
13086W        W31290  13.481  11.214  14.799 -0.0218 -0.0349  0.2405
13087W        W31291   7.039   9.466   0.770  0.2701 -0.0019  0.0402
13088W        W31292  17.216  14.834   2.126  0.0410 -0.2354  0.2788
13089W        W31293  12.148  13.872  12.506  0.0043 -0.1928  0.0545
13090W        W31294  14.860  17.342  14.980  0.0907 -0.0243  0.0024
13091W        W31295   4.250   4.570  11.951 -0.3882 -0.1752  0.1185
13092W        W31296  12.798  11.924  15.040  0.0674 -0.1029  0.0962
13093W        W31297   0.342   4.392  13.558  0.3403 -0.3078  0.1557
13094W        W31298  14.620  16.564   4.998  0.1076  0.0695 -0.1721
13095W        W31299   1.539  11.416   3.052 -0.0042 -0.1706 -0.2389
13096W        W31300   2.979  13.905  13.454  0.0925  0.0268  0.1164
13097W        W31301  13.754  11.567  13.742 -0.0820 -0.4870 -0.3260
13098W        W31302   0.819  16.948  15.101  0.2074 -0.2896  0.0610
13099W        W31303  14.479  16.304   3.106  0.0965 -0.3312  0.1095
13100W        W31304   2.661   4.398  14.566 -0.0981 -0.1483 -0.2044
13101W        W31305  13.017   4.868   5.499  0.2823  0.1998 -0.0560
13102W        W31306   1.816   6.725   0.712  0.1845 -0.2327 -0.0873
13103W        W31307   5.086  14.529  16.077  0.0018  0.0713 -0.0945
13104W        W31308  11.872  16.762   0.215  0.3483  0.5758 -0.0197
13105W        W31309  10.375   0.709   2.485  0.2505 -0.2059 -0.0856
13106W        W31310  17.083  11.218  17.307  0.1192 -0.2512  0.0218
13107W        W31311   7.409   1.985   2.150 -0.0786 -0.0749 -0.0360
13108W        W31312  12.833   7.157   0.984  0.0274  0.1096  0.1704
13109W        W31313  11.312  15.487  17.385 -0.0470 -0.0222  0.1794
13110W        W31314  10.241   4.248   3.335 -0.2865 -0.1296  0.2751
13111W        W31315   7.840  13.272  12.811 -0.3385  0.1198  0.1355
13112W        W31316   9.279   3.258   1.534  0.0144  0.1364 -0.2979
13113W        W31317   3.699  12.544  13.458 -0.0622  0.0749 -0.2039
13114W        W31318   3.659   7.919   0.793 -0.2917 -0.1197 -0.0884
13115W        W31319  16.153  14.013  13.013  0.0079 -0.3216 -0.1691
13116W        W31320  12.771  11.076  13.110  0.2816 -0.0365 -0.1336
13117W        W31321   6.598   9.477  16.600 -0.1174 -0.1116 -0.1530
13118W        W31322  13.481   0.440   1.894 -0.0176  0.1040 -0.2149
13119W        W31323  13.079   9.278  14.443  0.1144 -0.0530  0.0456
13120W        W31324  10.763  12.435   2.818 -0.0136 -0.2449  0.0872
13121W        W31325  15.795  15.928  13.210 -0.1084 -0.1329  0.0215
13122W        W31326   5.242  15.538   4.471 -0.3476 -0.0592  0.1843
13123W        W31327  14.788   1.430   4.814  0.3591 -0.0300 -0.2022
13124W        W31328  15.750   8.766   1.223  0.0111  0.1251  0.0011
13125W        W31329  12.993   7.096  16.732  0.0594 -0.2545 -0.0354
13126W        W31330  13.376   3.716   3.894  0.0106 -0.0849 -0.1960
13127W        W31331   0.257   2.329   2.863  0.1890 -0.4630 -0.0888
13128W        W31332   8.002   3.959   0.192  0.1442  0.1751 -0.0772
13129W        W31333   4.583  16.548  15.111  0.2056 -0.0284 -0.1135
13130W        W31334  12.354  12.129  16.860 -0.0282  0.0374 -0.1214
13131W        W31335   4.493  14.528   5.817  0.2269  0.0411 -0.0604
13132W        W31336   1.332   2.264  15.207  0.2350  0.0319  0.0730
13133W        W31337  13.008   5.435  13.492  0.0309  0.0229 -0.1457
13134W        W31338   2.467   6.639   0.263 -0.0872 -0.1834  0.0477
13135W        W31339   8.920  17.185   3.334 -0.1575  0.2029  0.0557
13136W        W31340   3.487  16.003   3.896  0.0982  0.2618  0.1266
13137W        W31341   6.651  14.907   3.242 -0.2643 -0.2785 -0.0869
13138W        W31342  14.633  13.205  13.925  0.0754 -0.2820  0.2165
13139W        W31343   5.608   1.460   5.719 -0.0075 -0.0523  0.0614
13140W        W31344  13.946   1.369   4.765  0.3495 -0.0641  0.1833
13141W        W31345  15.849  11.861  14.301 -0.0840 -0.0208  0.0738
13142W        W31346  13.817   8.728   4.035  0.1532 -0.0622 -0.0549
13143W        W31347   1.484  13.233   1.377  0.1869  0.2426 -0.1114
13144W        W31348   9.419   1.909  15.789  0.1948 -0.1233  0.0391
13145W        W31349  10.826   2.757  12.332 -0.0508 -0.0096  0.1676
13146W        W31350   3.446   6.393   0.352 -0.0418  0.5048 -0.4981
13147W        W31351   1.679  11.866   1.444  0.0310  0.1362  0.0779
13148W        W31352   8.570   8.907   3.654 -0.2513  0.3905  0.0366
13149W        W31353  14.802   0.267   0.313  0.0748 -0.2263 -0.2893
13150W        W31354   7.819  10.858   2.283 -0.1335 -0.0231  0.4381
13151W        W31355  14.564   9.967   2.209 -0.1410  0.0894 -0.1314
13152W        W31356   4.422   3.937   4.334  0.1243  0.3413 -0.1137
13153W        W31357  11.089  10.885  13.573 -0.2182 -0.2646  0.0101
13154W        W31358   8.934  11.568   5.417  0.1173  0.2072 -0.0365
13155W        W31359   8.849   9.214   0.220  0.0673  0.1829 -0.2855
13156W        W31360   1.239   0.944   0.506 -0.0131 -0.2877 -0.0571
13157W        W31361  14.760  15.209   5.992 -0.0918 -0.1939  0.0141
13158W        W31362  14.230   7.783  16.944  0.2023 -0.0026 -0.0840
13159W        W31363   5.667   6.132   3.666  0.3138  0.0705 -0.1060
13160W        W31364  12.837   6.554  13.791  0.2986 -0.3319  0.1348
13161W        W31365   7.124  11.245   3.968 -0.1660  0.2002  0.0035
13162W        W31366  11.037  14.396  14.670 -0.2893 -0.2700  0.0577
13163W        W31367   6.141  15.636   3.269 -0.2842  0.4157  0.3962
13164W        W31368   5.490  16.450   3.283  0.2473  0.0161  0.1510
13165W        W31369   6.734  16.909  13.873 -0.1407  0.0467  0.3119
13166W        W31370   9.741  12.857   4.662  0.0274 -0.0132  0.2143
13167W        W31371  10.749  16.719   3.516 -0.0552 -0.0810  0.0086
13168W        W31372   6.277   6.783  13.833  0.1959  0.2844  0.1034
13169W        W31373   7.771  13.037  16.981  0.0393  0.1705  0.1841
13170W        W31374  16.188  14.932   1.572 -0.1688 -0.0956 -0.0206
13171W        W31375   8.466  16.819  16.794  0.1910 -0.0687 -0.0225
13172W        W31376   4.276  11.447  13.724  0.0887 -0.2578  0.1189
13173W        W31377  15.753   6.142  14.902  0.0379  0.1162  0.0695
13174W        W31378   6.967   5.618   5.111  0.4600  0.0094  0.0030
13175W        W31379   5.256   0.419   4.720  0.1697  0.0119 -0.0463
13176W        W31380  12.903   5.267  14.937  0.1257  0.0053 -0.2293
13177W        W31381   1.601   4.400  13.642  0.0650  0.1084 -0.3970
13178W        W31382  10.010  12.819  13.786 -0.0678  0.0076 -0.1956
13179W        W31383  14.613   5.511   0.418 -0.2860 -0.1591 -0.1412
13180W        W31384   6.312   7.336   5.156 -0.0827 -0.1671  0.0990
13181W        W31385   1.230  13.720   4.191  0.0937  0.1897  0.1166
13182W        W31386   7.523  12.007  16.723 -0.6191  0.1369  0.1027
13183W        W31387   8.348   3.813  17.100  0.0870  0.0010  0.1257
13184W        W31388   2.449  11.856  15.326 -0.1409  0.2939  0.0742
13185W        W31389   3.577   6.599  15.491  0.2959  0.0459 -0.2329
13186W        W31390   7.514  12.961   2.823 -0.0912  0.4007 -0.1642
13187W        W31391  12.312   2.411  15.663  0.0001  0.0538 -0.0699
13188W        W31392   8.696   0.583  13.529  0.3213 -0.3474  0.0110
13189W        W31393  10.778   6.111   2.270  0.0050  0.0477 -0.2675
13190W        W31394   3.562  11.956   3.927 -0.1138 -0.3707  0.0634
13191W        W31395   0.722  10.571  13.593 -0.1551 -0.1717 -0.0742
13192W        W31396   3.692   7.459   1.078  0.0308  0.0604 -0.1198
13193W        W31397   4.357   4.894   0.965  0.0806 -0.0293 -0.1367
13194W        W31398   2.266   6.116  17.134  0.1013  0.1484  0.0122
13195W        W31399   1.865  14.980   4.903 -0.0247 -0.2554 -0.0619
13196W        W31400   7.921   0.203   3.648  0.2725  0.0456 -0.2700
13197W        W31401   7.875   9.793   4.760  0.0902 -0.2380 -0.1791
13198W        W31402   9.453  13.148   2.300 -0.0394 -0.2684 -0.2759
13199W        W31403   7.156  14.589   3.841 -0.1244  0.1596  0.0368
13200W        W31404   4.628   9.321   3.974  0.0944  0.0518 -0.2526
13201W        W31405   6.985   1.060   1.357  0.0784  0.0497  0.3962
13202W        W31406   7.502  15.610  13.398 -0.0803  0.0363  0.4544
13203W        W31407   0.661   2.964  13.396 -0.0370 -0.0307  0.0555
13204W        W31408   5.546   8.391   4.248 -0.2112 -0.0303  0.0194
13205W        W31409  11.042  14.186  17.407 -0.0129 -0.2755 -0.2107
13206W        W31410   5.978   7.077  11.943 -0.3191 -0.1208 -0.3180
13207W        W31411   7.027   8.689  13.287 -0.1118  0.1709  0.2245
13208W        W31412  11.716   3.941   2.691 -0.1350 -0.2755  0.2712
13209W        W31413  16.725   4.150   2.449  0.1832  0.0747  0.2064
13210W        W31414  10.318   0.946   1.815  0.2318  0.1627  0.2768
13211W        W31415  14.708   7.974   3.823  0.1680  0.0736 -0.0033
13212W        W31416   2.374   7.257  13.785 -0.2785  0.2182  0.0488
13213W        W31417  15.479   4.388  17.514 -0.2235  0.4330  0.0441
13214W        W31418  13.563  12.993  15.962 -0.0739  0.1856  0.1962
13215W        W31419  16.206  10.891  15.906 -0.4844 -0.1323 -0.1467
13216W        W31420   7.296   7.455   3.436  0.2514 -0.3586  0.1443
13217W        W31421  10.841  12.353  16.305 -0.2476  0.2120 -0.2366
13218W        W31422   3.056   8.254  16.322  0.0813  0.4232 -0.0126
13219W        W31423  14.839   0.398   2.628  0.2758 -0.4093 -0.1297
13220W        W31424   3.479   3.079  17.520  0.0681  0.0879 -0.1109
13221W        W31425   2.876   5.100  12.926 -0.1883 -0.1886 -0.0729
13222W        W31426   9.385   9.910   0.683 -0.0506  0.3636 -0.1183
13223W        W31427   4.326  12.557   1.292 -0.1136 -0.0973 -0.2139
13224W        W31428   9.056   7.743  13.749 -0.5086 -0.2221  0.0172
13225W        W31429  15.639  12.860   2.080  0.1455 -0.1714 -0.3994
13226W        W31430  16.838   6.371   1.166 -0.3688  0.0519  0.1239
13227W        W31431   7.063   5.822   0.250 -0.1466  0.1899 -0.2990
13228W        W31432  13.089  15.319  14.904 -0.0052 -0.2013 -0.0856
13229W        W31433  11.649   6.512   4.598 -0.1031  0.1304 -0.1701
13230W        W31434   7.012  15.299   2.243 -0.0481 -0.1502 -0.0707
13231W        W31435  15.834   5.501   3.529 -0.0367  0.1452  0.2424
13232W        W31436   2.839   0.070   0.038 -0.2015 -0.1187  0.0417
13233W        W31437   9.098  12.657  16.753 -0.0033  0.2918 -0.0333
13234W        W31438   2.254  13.775   2.534  0.2444  0.2364  0.0568
13235W        W31439  11.138   6.080  13.146 -0.1345  0.2715  0.2087
13236W        W31440  13.951   1.521   3.114 -0.2000 -0.3673 -0.3969
13237W        W31441   9.530  10.434  15.103  0.0384  0.0489 -0.0824
13238W        W31442  14.500  16.961   5.392 -0.1581  0.0815 -0.0315
13239W        W31443   9.837   4.589  16.504  0.0265  0.0073 -0.4554
13240W        W31444   4.935  10.543   3.880  0.1048 -0.1207  0.0477
13241W        W31445  12.350  12.235  13.890  0.2727 -0.3083  0.1561
13242W        W31446  12.394  16.289  14.717 -0.1091  0.0296 -0.4762
13243W        W31447  16.675   1.677   1.190 -0.3134  0.1804  0.2013
13244W        W31448   8.271   7.573  17.257  0.0711 -0.3467  0.1366
13245W        W31449  14.439  12.540   5.679 -0.0164 -0.1012 -0.0037
13246W        W31450   7.286   6.250  17.377 -0.1262  0.1346  0.0634
13247W        W31451   8.084   0.558   5.380 -0.0981  0.2150 -0.3581
13248W        W31452   9.086   4.533   5.485 -0.0289 -0.0124 -0.0936
13249W        W31453  16.235   5.138  12.040 -0.3775 -0.1104 -0.0126
13250W        W31454   9.608  10.661  13.054 -0.1285  0.2466 -0.1375
13251W        W31455   0.311  11.213   3.511  0.2229  0.0407  0.0824
13252W        W31456   2.795  14.075   3.313 -0.2902  0.0992  0.3265
13253W        W31457   2.066  11.990   3.540  0.1594  0.0048  0.1469
13254W        W31458  12.169   5.312  16.557 -0.1937  0.0290  0.1696
13255W        W31459   4.461   3.464  16.798  0.0610 -0.0005 -0.1506
13256W        W31460   2.836  15.369  13.266  0.0329  0.0394  0.2143
13257W        W31461   8.920   2.421   4.596 -0.1945  0.0641  0.0559
13258W        W31462  10.103   3.048  17.383 -0.1136 -0.1807 -0.0163
13259W        W31463  12.245   8.222  15.997  0.0119  0.0375 -0.0576
13260W        W31464   4.859   9.695   4.175 -0.0937 -0.0914 -0.0301
13261W        W31465  12.773   7.224  12.490 -0.0647  0.0705  0.2169
13262W        W31466   4.789   8.892   4.073 -0.0033  0.3378 -0.0475
13263W        W31467  10.382   8.933   2.886 -0.3391 -0.0426  0.3937
13264W        W31468   2.750  11.862  14.159  0.0117 -0.3213 -0.1163
13265W        W31469   9.814   9.815  16.551 -0.1797 -0.2232 -0.1486
13266W        W31470  12.316  11.940   0.487 -0.0798  0.0878 -0.0919
13267W        W31471   5.393  14.896   1.003 -0.0499 -0.2287  0.0371
13268W        W31472  16.991   5.174  12.786  0.1291  0.1240 -0.1542
13269W        W31473  17.012   7.563   5.188 -0.0147 -0.5490 -0.0232
13270W        W31474   2.180   6.664   2.601  0.2392 -0.0828 -0.1329
13271W        W31475   5.100   0.829   4.543  0.2296  0.0729  0.2661
13272W        W31476  15.057  17.284  16.607 -0.0319 -0.0409  0.0028
13273W        W31477   6.980   9.041  15.192 -0.1198  0.0959  0.2757
13274W        W31478   4.915   9.712  12.357 -0.0404  0.1857 -0.1562
13275W        W31479  10.579  15.310  16.910 -0.0791 -0.1866  0.0739
13276W        W31480   8.036  12.944  14.073  0.1613  0.0242 -0.0796
13277W        W31481   5.118   1.498   2.279 -0.1582  0.2032  0.1747
13278W        W31482   9.946   6.094  15.678  0.1516  0.2650 -0.4398
13279W        W31483   9.537   5.775   4.638 -0.2571  0.2889 -0.3183
13280W        W31484  13.561   0.675   3.773 -0.3256 -0.1219  0.2607
13281W        W31485   2.425   3.349   1.892 -0.1623  0.1017 -0.2231
13282W        W31486   7.262   3.528  13.545 -0.0095 -0.0930 -0.3696
13283W        W31487   9.442   2.006   0.266  0.1243 -0.4133  0.0097
13284W        W31488   2.810   1.265  14.164 -0.0246  0.0180  0.0243
13285W        W31489   4.744   2.843   2.047  0.2772 -0.1300 -0.0305
13286W        W31490   6.141   1.489  16.451  0.1100 -0.0793 -0.0619
13287W        W31491  16.540   8.291   6.388  0.2358  0.2048 -0.1017
13288W        W31492   6.796   8.724  16.625  0.0119  0.2750  0.1249
13289W        W31493   5.540   6.846   2.486 -0.0410 -0.1773 -0.1271
13290W        W31494   6.673   6.328  15.819 -0.1134 -0.1349  0.1246
13291W        W31495   6.135   8.798  13.929 -0.3389  0.2540  0.3405
13292W        W31496   8.664  10.191  11.897  0.1529  0.0945  0.0369
13293W        W31497  13.197  12.080   5.775  0.4105  0.0044  0.1128
13294W        W31498  14.710  16.344   1.264  0.0025  0.0661  0.0888
13295W        W31499   6.066   0.578   0.624 -0.2985 -0.0754 -0.1604
13296W        W31500  15.795   5.272  16.012  0.2491 -0.1118 -0.2411
13297W        W31501  11.362   6.327   3.055  0.2362  0.1287  0.1635
13298W        W31502  16.980   5.891   1.281  0.2175 -0.0312 -0.2045
13299W        W31503   4.679   3.884  14.148 -0.0988  0.3548  0.1348
13300W        W31504  14.190   4.151  13.313  0.1825  0.3381  0.2694
13301W        W31505  10.188  11.084  15.687  0.0004  0.1916  0.1174
13302W        W31506  16.773   3.263  16.966  0.1043 -0.1097 -0.0421
13303W        W31507   0.156  12.098  12.463 -0.0626 -0.1410  0.2283
13304W        W31508   2.751   6.098  15.683 -0.0971  0.2199  0.2082
13305W        W31509   7.450   7.961  11.058 -0.0925 -0.3356 -0.0766
13306W        W31510   4.744  12.505   4.746 -0.2964  0.2960  0.0651
13307W        W31511   3.018   5.225   0.721 -0.0866  0.1680 -0.0796
13308W        W31512  11.432   6.951  13.336  0.0747  0.0007 -0.1173
13309W        W31513   6.234  13.348  12.357 -0.0215  0.0115  0.0332
13310W        W31514  14.271  12.553  16.554 -0.0159 -0.2698 -0.0009
13311W        W31515   5.979  12.452   2.644 -0.0570  0.1277 -0.0893
13312W        W31516  16.433   8.795   0.536 -0.2812 -0.2478  0.0001
13313W        W31517   1.081  12.515  12.948  0.2148  0.0408  0.2626
13314W        W31518  14.642   4.972  12.097  0.1254  0.1284  0.0305
13315W        W31519  10.396  14.854   0.226  0.0836 -0.0592 -0.2014
13316W        W31520   7.528   5.946  14.961 -0.1422 -0.0406 -0.0474
13317W        W31521  12.726  15.558   1.090 -0.0850 -0.2353  0.1962
13318W        W31522  12.559  10.669   1.779  0.1271  0.0256  0.0836
13319W        W31523   7.662  15.955   2.816 -0.1005 -0.0909 -0.0883
13320W        W31524  16.504  14.567   1.744 -0.0970  0.1221 -0.0209
13321W        W31525  10.158  10.822   0.639 -0.1838  0.0960  0.2195
13322W        W31526   8.545  10.913  16.427  0.0735 -0.2832 -0.1860
13323W        W31527   7.666   7.500  16.081  0.0156  0.3893 -0.1758
13324W        W31528  14.267   4.733   4.818  0.1787  0.1030 -0.0230
13325W        W31529  13.736  10.979   4.730  0.0753  0.0656  0.2686
13326W        W31530   2.360  14.831   4.507  0.0055  0.1575  0.3599
13327W        W31531   1.108  13.121   0.470 -0.1899  0.0623  0.1519
13328W        W31532   6.654   0.814  16.509 -0.1621  0.1214  0.0263
13329W        W31533  16.748   5.484  15.650 -0.2150 -0.1372  0.0569
13330W        W31534   3.744  14.278   2.652  0.0128 -0.0297 -0.1018
13331W        W31535  16.369  11.138   3.578 -0.0396 -0.2536 -0.1681
13332W        W31536   5.151  15.962  13.894  0.0296 -0.3680 -0.4608
13333W        W31537   7.646  10.704   4.884 -0.0773 -0.0213  0.1974
13334W        W31538   0.553  14.400  12.442 -0.1373 -0.2906 -0.3383
13335W        W31539   6.037   5.156   4.842 -0.1189  0.3158 -0.1759
13336W        W31540   2.785  16.969   1.834  0.3388  0.1978 -0.0605
13337W        W31541   4.154   1.992   4.795  0.1525 -0.1891  0.0876
13338W        W31542  16.241  12.846  16.633 -0.1689  0.1895 -0.1002
13339W        W31543  15.365  16.845  15.348  0.1250 -0.0374 -0.0752
13340W        W31544  16.072  16.952   2.250  0.1785  0.2361  0.0918
13341W        W31545  17.320  11.304   4.594 -0.0813  0.1118 -0.1243
13342W        W31546  11.083  14.042   4.134 -0.0345 -0.1167 -0.1627
13343W        W31547   8.710  10.415   1.819 -0.1509 -0.5180 -0.1356
13344W        W31548   8.883   5.216  12.931 -0.1852 -0.3291  0.0797
13345W        W31549   9.350   8.676  16.166  0.0164  0.0344  0.0382
13346W        W31550   1.692   1.232  12.972  0.2395 -0.1714  0.0033
13347W        W31551  12.981  11.958  13.639 -0.0045  0.0632  0.1406
13348W        W31552   6.873  13.437  15.571 -0.0018 -0.0981  0.1855
13349W        W31553  10.956  11.723   1.118 -0.2460  0.2557  0.0975
13350W        W31554  16.729   6.332  17.190  0.1761 -0.0781  0.0383
13351W        W31555   7.510   3.932   1.409  0.3454 -0.0655  0.0745
13352W        W31556   3.436  16.672   5.153 -0.2010 -0.2228 -0.1210
13353W        W31557  17.247  15.200   1.799  0.2209 -0.0099 -0.2537
13354W        W31558   8.344  10.205   2.374 -0.0932 -0.1494 -0.0561
13355W        W31559   2.573   2.219   2.420 -0.0974 -0.0024 -0.2081
13356W        W31560  15.437   7.848   3.247 -0.0335  0.3857 -0.1313
13357W        W31561   3.186  10.046  12.925 -0.1017 -0.0537  0.2581
13358W        W31562  16.641   3.122  13.081  0.4175 -0.0918 -0.1945
13359W        W31563   3.670   9.720   2.548 -0.4099  0.0779  0.2629
13360W        W31564   8.054  11.013  14.202 -0.1837 -0.0611 -0.1516
13361W        W31565   7.060   3.032   0.062  0.1930  0.2491  0.0137
13362W        W31566   6.705   7.034  13.571 -0.1812  0.1723 -0.1643
13363W        W31567  11.805  16.986  15.757  0.0247  0.0612 -0.0753
13364W        W31568   4.054   2.794   5.007  0.0552  0.0101 -0.2001
13365W        W31569   8.380   6.735   0.107 -0.3116  0.0594 -0.0183
13366W        W31570  16.337   4.496  14.732  0.2011 -0.0543 -0.0322
13367W        W31571   1.277   0.771   0.961  0.1774 -0.0459  0.2966
13368W        W31572  15.235   9.333   1.325  0.0261  0.0955 -0.2710
13369W        W31573   2.240   7.464  17.047  0.0625  0.2020  0.1829
13370W        W31574   3.545   4.549  13.300 -0.0910 -0.3481  0.0541
13371W        W31575  11.830   0.721  16.358  0.2792 -0.1810 -0.0407
13372W        W31576   2.424   7.057   3.903  0.2046 -0.0019 -0.0831
13373W        W31577  15.865   5.728  12.691 -0.0216  0.0915  0.1458
13374W        W31578  15.926   5.195  17.043 -0.0084 -0.0404  0.2087
13375W        W31579  13.974   1.914   2.782 -0.1389  0.1718 -0.0363
13376W        W31580   3.346   6.196  12.380 -0.0358 -0.2032 -0.0137
13377W        W31581  15.882  14.502   0.526  0.1411 -0.0005 -0.1105
13378W        W31582  14.511  17.034   2.278  0.0042  0.1073 -0.2544
13379W        W31583   5.647   6.183  16.180  0.1021  0.0662  0.1043
13380W        W31584   4.753   7.649  15.436  0.0617  0.0888  0.0379
13381W        W31585   6.884   5.249   4.721  0.1270  0.4924 -0.0466
13382W        W31586  14.359  15.389  13.668  0.2004 -0.0387  0.0898
13383W        W31587   1.569   0.729   0.196  0.1423 -0.1443 -0.1421
13384W        W31588   8.887  11.209   0.732  0.0834  0.1657  0.0386
13385W        W31589   7.432   5.096  16.592 -0.2042 -0.0351 -0.3159
13386W        W31590   2.689   4.125  15.735  0.0134 -0.0316 -0.0664
13387W        W31591  12.189   1.176  15.732 -0.1733 -0.5751 -0.1590
13388W        W31592   5.562   6.359  12.311 -0.0355  0.1343  0.1851
13389W        W31593   4.143   4.371  15.319 -0.0141  0.1527  0.0621
13390W        W31594   4.973   1.246   0.076 -0.1997  0.0793 -0.1762
13391W        W31595   3.885   0.787  14.041  0.1995 -0.0304 -0.1832
13392W        W31596  13.209  11.651  14.795 -0.1440 -0.1094 -0.5700
13393W        W31597   7.758   7.064   1.602 -0.0913 -0.0187 -0.0727
13394W        W31598  11.512   1.113  16.767 -0.1637  0.0541 -0.0944
13395W        W31599   0.543   1.320  14.277 -0.1219  0.0492  0.0146
13396W        W31600  13.141  16.162   5.584  0.4677 -0.4560  0.0735
13397W        W31601  16.188   7.131  14.116  0.1052 -0.1585 -0.1516
13398W        W31602   7.286   8.340  17.310  0.3462  0.1315 -0.0860
13399W        W31603  10.028   5.369  17.191  0.0469  0.2839 -0.1559
13400W        W31604   2.404  16.664  16.095  0.0025 -0.0575 -0.1293
13401W        W31605  10.254   5.890   5.358 -0.1713 -0.2884  0.0130
13402W        W31606   5.694  14.597  15.707 -0.0460  0.1650 -0.0719
13403W        W31607  14.443  12.209   0.670 -0.2840 -0.0373 -0.3127
13404W        W31608  12.970  12.830   4.872 -0.1210 -0.1850  0.1775
13405W        W31609   2.012  14.520   4.731  0.0016  0.2280 -0.1122
13406W        W31610  13.993  11.956  15.318  0.1073  0.0703 -0.1688
13407W        W31611  16.991  12.684  16.947 -0.2414  0.3128  0.3343
13408W        W31612  13.269  11.182   1.178 -0.0731  0.0867  0.1024
13409W        W31613  12.363   5.236   3.446  0.0192  0.2000  0.0013
13410W        W31614   8.296  10.418   1.485  0.1353 -0.4534  0.1471
13411W        W31615   3.453   9.040   3.033  0.2989  0.0313  0.1091
13412W        W31616   4.132  12.589   0.794 -0.0793  0.0165 -0.1134
13413W        W31617   4.232  10.121   1.739  0.0130  0.0758 -0.0536
13414W        W31618   0.789  13.956   4.949  0.0996  0.1083 -0.0278
13415W        W31619   5.216   4.190  15.756  0.2719 -0.0777  0.4619
13416W        W31620  16.337   8.008  13.935  0.1856  0.0917  0.1849
13417W        W31621  16.468   7.356  11.930  0.0344 -0.2075 -0.0176
13418W        W31622  10.265  11.148   0.281  0.1520  0.2826  0.0274
13419W        W31623   0.187   1.024   1.624 -0.1220 -0.2442  0.1436
13420W        W31624   0.270   1.285  13.104  0.0025 -0.1003 -0.0042
13421W        W31625   3.202  15.587  16.270 -0.3628  0.0697 -0.0788
13422W        W31626   0.979  14.289  13.801  0.0790 -0.1559 -0.2249
13423W        W31627   5.228  10.466   0.868 -0.2089  0.1115  0.0885
13424W        W31628  13.262   1.182   2.199  0.0057  0.0479  0.0620
13425W        W31629   2.337   5.997   0.432  0.0495  0.0624 -0.1917
13426W        W31630  15.691  11.709  12.680 -0.1727  0.0773  0.0017
13427W        W31631   9.252   8.379   1.715 -0.1916  0.2247  0.0962
13428W        W31632  12.006  13.910  15.337  0.1643  0.0201  0.0823
13429W        W31633  13.554   1.975  17.103  0.0475 -0.0987 -0.0324
13430W        W31634   4.533  16.987   0.224 -0.3085 -0.0243  0.3543
13431W        W31635   4.348   6.554   1.360  0.0218 -0.0344  0.1280
13432W        W31636  14.186   2.269  17.152 -0.0074  0.1715  0.0821
13433W        W31637  10.223   5.779   1.535  0.0827  0.1372 -0.1981
13434W        W31638   5.297  15.620  15.016 -0.0759 -0.1033 -0.2579
13435W        W31639  16.519   3.219   1.035  0.1051  0.1162  0.0757
13436W        W31640   1.607   1.676  17.057 -0.0902 -0.2302 -0.0470
13437W        W31641   2.542   9.397  15.299 -0.2647  0.1343  0.0118
13438W        W31642   9.494   3.869  16.220  0.1839  0.2778 -0.0522
13439W        W31643   4.258  15.209   4.511 -0.1391  0.0408 -0.1133
13440W        W31644   1.398  14.229  15.822 -0.1243 -0.2228 -0.0143
13441W        W31645   2.734   9.574  12.579  0.0125 -0.0242  0.1378
13442W        W31646   4.453  10.901  14.089 -0.0158 -0.2959  0.2413
13443W        W31647   1.252  11.998   1.983 -0.1273  0.0265 -0.0796
13444W        W31648   3.072  13.573  13.813 -0.1692 -0.1083  0.0705
13445W        W31649   9.352  13.134  16.668 -0.4200  0.2108  0.0187
13446W        W31650  10.892   2.101   3.936 -0.1610 -0.0074 -0.2164
13447W        W31651   9.347  10.021   2.576 -0.0788  0.0777 -0.1193
13448W        W31652  10.946  11.881  13.775  0.2103  0.0664  0.2441
13449W        W31653   1.291   1.743  14.376  0.0784 -0.0589 -0.1376
13450W        W31654  12.071   0.025   2.226 -0.1042  0.0910 -0.4482
13451W        W31655   9.102   6.309   1.662  0.4493  0.1333 -0.0995
13452W        W31656   8.801  11.853  17.106 -0.1389 -0.1310 -0.0066
13453W        W31657   4.085   1.739   3.151  0.0879  0.0796 -0.0224
13454W        W31658  15.909  15.430  13.089  0.2810 -0.0330 -0.2136
13455W        W31659   5.259   1.012   0.425 -0.2546  0.0727 -0.0707
13456W        W31660   7.662   8.238  16.511  0.0853  0.0998  0.2370
13457W        W31661  15.505  13.558   4.546 -0.1122 -0.2405  0.2688
13458W        W31662  10.610  17.053   0.328 -0.0516 -0.0101 -0.3756
13459W        W31663   7.222  12.580   2.844  0.0540 -0.0432  0.2219
13460W        W31664   6.470  15.074   5.406  0.0290  0.2672 -0.0097
13461W        W31665   2.003   4.529  13.289  0.0570  0.0455  0.2552
13462W        W31666   2.092  13.379   4.506 -0.4542  0.2035 -0.0403
13463W        W31667  10.037  11.305   2.292 -0.0749  0.1126  0.2088
13464W        W31668   1.228   4.207   0.918 -0.1796 -0.2275  0.1325
13465W        W31669   4.216   9.913  16.295 -0.1651  0.0625  0.3830
13466W        W31670  15.376   7.520  14.300  0.0219 -0.1648  0.0543
13467W        W31671  12.557   0.686   3.706  0.0294  0.0773 -0.0835
13468W        W31672   5.261   5.388  12.574 -0.1766  0.1268  0.1035
13469W        W31673   8.899  15.250   3.583 -0.0652  0.0426  0.0225
13470W        W31674  10.200   9.166   0.770  0.4548  0.1135 -0.0638
13471W        W31675   6.966   2.396  13.398  0.0856 -0.1850 -0.2268
13472W        W31676  15.162   0.690   3.504 -0.0680  0.0499  0.1354
13473W        W31677   2.144   8.232  12.764  0.2243  0.0536  0.2956
13474W        W31678  11.622   3.891  13.830  0.0306 -0.0038  0.3347
13475W        W31679  10.442  13.113  15.889  0.2139  0.1033  0.1551
13476W        W31680   7.391  13.280   0.944  0.1987  0.1912  0.0607
13477W        W31681   4.447   5.614  13.696 -0.1348  0.1852 -0.1644
13478W        W31682  12.531   8.382   3.644  0.2082 -0.1196  0.1223
13479W        W31683  12.937   1.750  16.746  0.0454 -0.2945 -0.1500
13480W        W31684   2.958  15.418   1.793  0.0134 -0.0228  0.2976
13481W        W31685  12.897   4.766  15.033  0.3532  0.5095  0.1486
13482W        W31686  14.919   8.315   4.171 -0.2760  0.0015 -0.0177
13483W        W31687  11.365   4.887  16.675  0.2180 -0.0726  0.0112
13484W        W31688   4.402   8.536   2.233  0.0230 -0.1256  0.1731
13485W        W31689  10.135  11.782  12.267  0.0068  0.1000 -0.1043
13486W        W31690   4.374   9.985  16.770 -0.0641  0.3415  0.1998
13487W        W31691   7.396  11.155   1.453  0.1938  0.0238  0.0579
13488W        W31692   9.090   8.977  12.708 -0.0742 -0.0636  0.1093
13489W        W31693   5.553   8.859   6.217 -0.1687  0.4799  0.1596
13490W        W31694  12.948   2.675   2.045 -0.0793  0.1223  0.0451
13491W        W31695   5.435   0.045   2.911  0.0891 -0.0363  0.0899
13492W        W31696   1.423   7.592   1.417 -0.3416  0.2892 -0.0888
13493W        W31697   3.799  14.566  14.646  0.1639 -0.0044  0.2173
13494W        W31698   6.054   7.258   4.216 -0.1054 -0.0972  0.0952
13495W        W31699  14.924  12.220  13.510 -0.0700  0.2198 -0.0123
13496W        W31700   9.551  10.232  16.509 -0.2225  0.0712  0.3166
13497W        W31701  16.565   6.009   4.472  0.2655  0.0886  0.1475
13498W        W31702   5.781   2.599   3.745  0.3235 -0.1674 -0.0907
13499W        W31703   9.696   0.747  17.062  0.1030 -0.4827 -0.0052
13500W        W31704   5.692  13.902  17.477  0.2185 -0.1450 -0.0238
13501W        W31705   9.450   6.175   2.073 -0.1109  0.1837 -0.1793
13502W        W31706   0.479   8.330   2.109  0.0700 -0.2854  0.0639
13503W        W31707   6.370  15.517   1.493  0.0527 -0.1259  0.0279
13504W        W31708   4.130   3.072   4.100 -0.2487 -0.1451  0.0714
13505W        W31709  12.608  12.119   1.681  0.0030  0.3316  0.0830
13506W        W31710   5.739  10.044   0.118 -0.2948  0.1375  0.6828
13507W        W31711   6.090   6.309  15.058  0.0280 -0.2716 -0.0555
13508W        W31712   9.535   8.975   2.417 -0.1626  0.0597 -0.2435
13509W        W31713   0.197   1.422  16.484  0.1202 -0.2280 -0.0733
13510W        W31714  15.240  15.352   2.437 -0.3241 -0.0745  0.1305
13511W        W31715   7.142  16.789  12.575  0.0405  0.2496  0.0995
13512W        W31716   3.040  11.935   5.327 -0.0639  0.2004 -0.1026
13513W        W31717  10.827   6.539  16.502 -0.1437  0.3523 -0.2279
13514W        W31718  10.214  14.277  12.658  0.5228  0.1731  0.0691
13515W        W31719   5.879   5.998   6.014 -0.0247 -0.0883  0.0557
13516W        W31720   3.485   3.276   2.202 -0.0795  0.1661  0.2824
13517W        W31721   6.482   5.493   1.030 -0.0086  0.0169 -0.1935
13518W        W31722  12.500   4.511  15.210 -0.0860 -0.2356  0.1574
13519W        W31723  16.506  11.948  15.112 -0.1074 -0.0923 -0.1909
13520W        W31724  12.086  15.757  16.771 -0.0205 -0.2955 -0.0670
13521W        W31725   1.858  10.207  14.611 -0.0228  0.0049  0.3698
13522W        W31726  15.870   8.119  13.653  0.0391 -0.1788  0.2994
13523W        W31727  12.101  13.326   4.791  0.0170 -0.1916 -0.1491
13524W        W31728   5.258  10.757  11.811 -0.1625 -0.0910 -0.0138
13525W        W31729   8.576  14.262  17.392  0.0986 -0.1184 -0.1940
13526W        W31730  15.593  17.090  14.555  0.1248 -0.0575  0.3311
13527W        W31731  10.529  15.460   1.585  0.0378  0.0872 -0.1291
13528W        W31732  10.057   6.881   0.373  0.1718  0.4469 -0.1678
13529W        W31733  11.265  12.648   0.576 -0.0092 -0.2261  0.0189
13530W        W31734  12.420   1.894   2.226 -0.2625  0.1330 -0.3831
13531W        W31735   0.760   8.537  12.838  0.2326  0.1273 -0.1130
13532W        W31736  10.178  16.008  13.671  0.0454 -0.0880  0.1858
13533W        W31737   7.696   5.263  17.013  0.0179 -0.3158 -0.4143
13534W        W31738   7.951  16.974   0.482  0.0814 -0.1033  0.0041
13535W        W31739  11.905   0.166   1.749 -0.0971  0.2385 -0.0588
13536W        W31740   2.227  13.990  14.211  0.0357 -0.2289  0.0892
13537W        W31741  13.676   8.884   0.394 -0.2210 -0.1990 -0.0746
13538W        W31742   8.105   7.616  16.356  0.2005  0.1703 -0.2204
13539W        W31743   8.557   9.544   1.167 -0.1198  0.0059 -0.1852
13540W        W31744  14.346  16.741  14.036  0.0444  0.0792 -0.0714
13541W        W31745  10.710   3.881   1.323 -0.1577  0.1368  0.0423
13542W        W31746   5.385   2.828  13.194  0.3080 -0.2736  0.0082
13543W        W31747   8.962   7.899  14.724 -0.1346  0.2656  0.1604
13544W        W31748   6.527   2.255   2.035  0.0645  0.1165  0.3144
13545W        W31749  15.215   8.538   2.262  0.2390 -0.0691  0.0439
13546W        W31750   1.298   3.940  14.107  0.0819 -0.1923  0.2547
13547W        W31751   4.705   9.473   1.046 -0.0844  0.1794  0.0240
13548W        W31752  15.060   1.358  14.961  0.2204 -0.0615 -0.0564
13549W        W31753  11.022  15.380  16.748 -0.0081 -0.0831  0.2130
13550W        W31754  12.083   0.989   1.473  0.0337 -0.2627  0.0361
13551W        W31755   9.875   8.126  15.549 -0.0970  0.0371  0.0616
13552W        W31756   7.197  10.571   5.138 -0.2209 -0.0018  0.0333
13553W        W31757  13.262   3.428  13.865 -0.0456  0.2717 -0.0169
13554W        W31758   2.491  10.821  16.255 -0.0042 -0.1219  0.2099
13555W        W31759  14.632   2.724  14.281  0.0675  0.0136 -0.3976
13556W        W31760   5.912   0.470   2.810  0.0670  0.2063 -0.0692
13557W        W31761   2.277   0.698   1.461 -0.3229  0.2374 -0.1060
13558W        W31762   5.332   1.542   0.217 -0.0244  0.2474 -0.2054
13559W        W31763  10.953   3.611  16.519  0.1562 -0.0483 -0.2649
13560W        W31764   3.298   1.692   5.229  0.0107  0.2857  0.1435
13561W        W31765   7.930  17.338   1.273 -0.1264 -0.1740 -0.0172
13562W        W31766   7.923   4.143   1.615 -0.2952 -0.1960  0.1774
13563W        W31767  12.031   8.154   4.830  0.0611 -0.1310 -0.2699
13564W        W31768  16.111  14.851   5.298 -0.2379 -0.2178 -0.1372
13565W        W31769  17.178  13.740   1.840  0.2411 -0.2708  0.2944
13566W        W31770   1.217   6.899   4.094 -0.0568  0.1509 -0.1579
13567W        W31771  14.407   9.762  13.589 -0.0416  0.1170 -0.1316
13568W        W31772   4.541   7.048   1.476 -0.1392 -0.3277 -0.0975
13569W        W31773  17.254   6.434  12.911  0.2233 -0.0641 -0.0567
13570W        W31774  14.393   2.087   0.020  0.1231 -0.1299 -0.1141
13571W        W31775   1.402  11.687   5.510  0.3112 -0.0249 -0.0028
13572W        W31776   9.167  11.073  15.734 -0.0058 -0.1621  0.0224
13573W        W31777   2.052   1.848  12.553 -0.1165  0.1965 -0.1693
13574W        W31778   1.426  10.350   5.395  0.2841  0.0088 -0.3060
13575W        W31779   7.858   2.442   1.247  0.0748 -0.3254  0.0254
13576W        W31780  16.987   5.216   0.971 -0.0137 -0.0312  0.1374
13577W        W31781   9.139  15.204   5.281  0.0239  0.4322  0.0257
13578W        W31782   5.566  11.270   4.909  0.1790  0.1373 -0.2457
13579W        W31783   6.805  13.432  13.128 -0.1209  0.1468 -0.1934
13580W        W31784   0.130  16.191  12.582  0.2466  0.1408  0.0352
13581W        W31785  17.073   1.979  17.225 -0.0165 -0.1328  0.0642
13582W        W31786  12.549   0.547  12.849  0.0647  0.3073  0.0394
13583W        W31787   8.125  15.645   1.896 -0.2344 -0.0037 -0.0095
13584W        W31788   0.291   5.927   4.932  0.0596 -0.2054  0.0107
13585W        W31789   6.631   2.396  13.965  0.2864  0.1751  0.2981
13586W        W31790  11.761   5.281  14.655 -0.0467  0.2396  0.2014
13587W        W31791   9.588   5.308   4.304  0.0942 -0.2683 -0.3238
13588W        W31792  15.438   7.822  15.539  0.3868 -0.0021  0.0205
13589W        W31793   6.793   3.192   4.457 -0.0460  0.2682  0.4306
13590W        W31794   8.194   8.851  15.963  0.0254 -0.2246 -0.0232
13591W        W31795   5.495  11.869  15.698  0.2116 -0.1500  0.3697
13592W        W31796   7.973   2.455   2.575  0.1844 -0.4843 -0.1294
13593W        W31797  15.393  12.450   1.105 -0.0363  0.1284  0.1508
13594W        W31798  10.414  11.308  12.846 -0.3176 -0.2545 -0.1168
13595W        W31799   9.592   0.375  16.485  0.1097 -0.2657 -0.1704
13596W        W31800   7.597   3.202   2.886 -0.0068  0.0638 -0.4799
13597W        W31801  11.392  11.614  12.485  0.2956 -0.2273  0.0012
13598W        W31802   4.654   0.507   0.683 -0.1988 -0.3377 -0.0476
13599W        W31803   4.458  15.092   3.541  0.1426  0.0245 -0.2399
13600W        W31804   9.250   3.267  13.149 -0.2609  0.2038 -0.1692
13601W        W31805   7.920   9.961  12.355  0.1506  0.1593  0.0687
13602W        W31806  12.377  13.608   4.407  0.2136 -0.0741  0.0933
13603W        W31807   0.554  11.696   2.635 -0.3572  0.1272  0.0259
13604W        W31808  16.249   1.893  14.000  0.1919  0.3070 -0.0379
13605W        W31809   0.346   2.989  15.992 -0.2731 -0.1699  0.1317
13606W        W31810   7.383   0.203   1.227 -0.0529 -0.3344  0.2569
13607W        W31811   9.570  12.652   4.180 -0.2195 -0.2615  0.0301
13608W        W31812  11.923  17.118  13.341 -0.2982  0.0903 -0.3556
13609W        W31813  13.301   9.870   2.607 -0.2656  0.3195 -0.1095
13610W        W31814   1.870  12.332   1.647  0.2534  0.1660 -0.0961
13611W        W31815  11.650   8.312   3.898  0.0655  0.0371 -0.1381
13612W        W31816  12.722  15.358  17.287 -0.2146 -0.2103  0.2662
13613W        W31817   1.809   2.145   3.736  0.1474  0.1551 -0.2689
13614W        W31818   0.897  15.551   5.284 -0.0111 -0.3794 -0.0017
13615W        W31819  13.966   3.922  12.844  0.0858  0.1442  0.0055
13616W        W31820  15.333   7.430   0.995  0.1833 -0.1023  0.3973
13617W        W31821   2.759  15.542   0.368 -0.0742 -0.0187  0.1513
13618W        W31822   5.986  12.092  15.432  0.0080  0.3954 -0.1567
13619W        W31823   5.665   5.772  13.370 -0.1984  0.1293  0.0843
13620W        W31824  14.983   7.593   3.416  0.0630 -0.1792 -0.2443
13621W        W31825  11.046   6.515  12.381  0.0404  0.1669  0.1459
13622W        W31826   3.899   4.544  14.761 -0.0808  0.0595 -0.0878
13623W        W31827   3.441   9.704  16.795  0.0658  0.1410 -0.1188
13624W        W31828   4.328  15.305   1.861  0.1739  0.0180  0.3011
13625W        W31829  15.413   7.907   1.139 -0.1055  0.2642  0.1339
13626W        W31830   3.429  13.770  16.132 -0.0500  0.0033  0.0975
13627W        W31831   0.903   2.794  13.018 -0.0936 -0.0289 -0.0716
13628W        W31832   1.543   9.753   0.872  0.0189 -0.2796 -0.0237
13629W        W31833  14.284   1.121  14.685  0.1811 -0.0938  0.1301
13630W        W31834   3.922  12.630  14.684  0.2436 -0.1602 -0.0386
13631W        W31835   5.647   4.495   0.984  0.1533  0.1510 -0.1315
13632W        W31836   7.941   1.857  12.298 -0.0266 -0.1879  0.0790
13633W        W31837  14.562   1.149   6.321  0.0693 -0.1480  0.2371
13634W        W31838  11.849   4.877  13.288 -0.1663  0.0604 -0.0168
13635W        W31839   3.587  16.728   4.002  0.1325  0.2005  0.0336
13636W        W31840  11.568  13.465  16.666  0.0518 -0.0381  0.2791
13637W        W31841   4.375   2.273   3.184  0.1319 -0.1012  0.0157
13638W        W31842  12.630  12.839  14.650 -0.0587 -0.2442  0.1961
13639W        W31843   2.252  13.729   1.708  0.0510 -0.3922  0.1388
13640W        W31844   6.672  16.750   5.257 -0.3428  0.2664 -0.2700
13641W        W31845   5.769   5.593   2.447  0.1525  0.0390  0.1400
13642W        W31846  11.332  12.673   2.402 -0.1864  0.0839  0.0509
13643W        W31847   8.365  13.149  12.771  0.3539 -0.1418  0.1960
13644W        W31848  16.694   9.606   4.705  0.0747 -0.3833 -0.0165
13645W        W31849   8.739   5.961  13.710  0.0266 -0.1429  0.0751
13646W        W31850  12.859  13.568   1.194  0.0791  0.2274 -0.0072
13647W        W31851   2.635   4.871   1.968 -0.2224  0.0930 -0.1011
13648W        W31852   9.311   0.174   5.718  0.0872  0.1445  0.2312
13649W        W31853   9.549  15.403  16.132 -0.0616  0.0112  0.1529
13650W        W31854   4.196   3.019   1.189  0.0791 -0.4526  0.2198
13651W        W31855   9.102   8.563  13.150 -0.1966 -0.0376 -0.3054
13652W        W31856  11.752   6.924   3.133  0.1877 -0.0053  0.0986
13653W        W31857  10.419   5.757   0.464 -0.0857  0.0414  0.1317
13654W        W31858  13.902   1.098   1.536 -0.0632  0.2670 -0.0251
13655W        W31859  14.217   7.901  14.998  0.0401 -0.2112 -0.0589
13656W        W31860   9.759  14.577  14.770 -0.0052 -0.2739  0.1683
13657W        W31861  17.301   7.834  12.204 -0.3383  0.0449 -0.1122
13658W        W31862   8.432   1.691   0.134  0.2192 -0.0644  0.1606
13659W        W31863   3.419  12.501   4.064 -0.1600  0.1927  0.1021
13660W        W31864   9.935   8.278  17.358  0.0942 -0.2469  0.0991
13661W        W31865  15.797  16.409   3.872 -0.1169  0.3448  0.2460
13662W        W31866  14.085  15.531  17.260 -0.1949  0.1150 -0.1907
13663W        W31867   0.302  10.588   4.788  0.0797  0.1430 -0.0861
13664W        W31868   7.299   1.217  12.588  0.1095 -0.3228 -0.2590
13665W        W31869  11.490   1.601  16.827  0.0764  0.2374 -0.1536
13666W        W31870  10.724   8.053  12.974 -0.2579  0.2604  0.2882
13667W        W31871  14.701   5.755  16.845 -0.0472  0.0770 -0.0381
13668W        W31872   0.412   1.661   4.507  0.0461  0.0344  0.1057
13669W        W31873   9.858  13.626  12.502  0.4096 -0.1516 -0.0765
13670W        W31874   5.865  13.665   1.283 -0.1077  0.3740  0.1096
13671W        W31875   4.052   9.910   3.755 -0.0480  0.0377  0.2176
13672W        W31876   5.109   9.682   1.288  0.0051 -0.1153  0.1427
13673W        W31877  10.130   9.342   2.241 -0.2390 -0.1252  0.0997
13674W        W31878  15.149  14.192  14.681 -0.0598  0.1243 -0.0028
13675W        W31879   7.225   9.528   1.717  0.1598 -0.1930  0.4238
13676W        W31880  10.103   1.224  13.878 -0.0050  0.1591 -0.0696
13677W        W31881  11.885  14.742   2.088  0.0862 -0.1543  0.0073
13678W        W31882   1.665  17.004  12.506 -0.1930  0.1600 -0.0185
13679W        W31883  13.683   0.275  13.226  0.2795 -0.2250 -0.0161
13680W        W31884   0.546   6.242   4.196  0.1482 -0.3396 -0.1256
13681W        W31885   4.243  17.274   3.970 -0.0646  0.0858  0.1433
13682W        W31886  17.189  16.596  13.120  0.0121 -0.0747  0.3328
13683W        W31887  14.983   2.203   0.539  0.2572  0.2231 -0.0617
13684W        W31888   4.471   4.159   2.728 -0.1401 -0.2290 -0.1989
13685W        W31889   1.533  17.128  12.961  0.0025 -0.1390 -0.2335
13686W        W31890   0.649   1.412   3.624 -0.0098 -0.0208  0.0323
13687W        W31891   2.518  10.670   5.020  0.0822 -0.1734 -0.0587
13688W        W31892  11.787  10.874  11.461 -0.3384 -0.1669  0.1195
13689W        W31893   5.906   5.884  14.767  0.0282 -0.3278  0.4096
13690W        W31894   6.886   6.092  13.363  0.0641  0.0986 -0.0111
13691W        W31895  13.412  13.203   2.719  0.0602 -0.0022  0.0511
13692W        W31896   8.481  10.713   5.956 -0.1230 -0.3376  0.3630
13693W        W31897   6.537   2.801   0.007 -0.0568 -0.3338 -0.1737
13694W        W31898   7.364  13.261  17.271  0.1291 -0.2815 -0.0283
13695W        W31899  14.845  16.292   1.783  0.3019 -0.0586  0.0674
13696W        W31900   0.142   2.884   0.545  0.0166 -0.0862  0.2378
13697W        W31901  15.943  10.262  17.453 -0.0015  0.2730  0.2660
13698W        W31902   4.971  15.972  16.746 -0.0104  0.1414  0.1381
13699W        W31903   0.093  10.604   3.362  0.2337 -0.2918  0.0835
13700W        W31904   3.478  17.037   6.152 -0.1519 -0.2066  0.0708
13701W        W31905  14.145   2.597   4.718 -0.1387 -0.1277  0.0948
13702W        W31906   3.407   9.809   0.752  0.0435  0.2015  0.0976
13703W        W31907  17.022   3.416  15.009 -0.2742  0.1555 -0.0500
13704W        W31908  12.497   9.642  17.311 -0.1879 -0.0053  0.0161
13705W        W31909  12.986   2.463   5.258  0.2240 -0.0890  0.0334
13706W        W31910   5.624   0.772   0.863  0.5075 -0.2476  0.0177
13707W        W31911   4.758  11.606   5.139  0.0652  0.0855  0.0035
13708W        W31912   1.868   0.423  15.997 -0.0581 -0.0070 -0.0662
13709W        W31913  17.079   1.554  14.275  0.4713 -0.2021  0.0314
13710W        W31914  16.105  10.707   5.675  0.0932 -0.1946  0.3412
13711W        W31915  15.338  10.665   2.543 -0.0670  0.1929 -0.2845
13712W        W31916   4.112   6.259   0.012 -0.1891 -0.0243 -0.0189
13713W        W31917   6.651   2.207   3.553 -0.1659 -0.2465  0.0314
13714W        W31918  10.328  15.759  14.201  0.0834  0.2613 -0.1271
13715W        W31919   8.935  14.769   1.843 -0.0850 -0.1218  0.2460
13716W        W31920   5.160   7.755   2.108 -0.1195  0.0688 -0.3331
13717W        W31921  15.736  16.001   1.995  0.0933  0.0790  0.0364
13718W        W31922  14.719  14.156  13.135  0.1196 -0.1411  0.0528
13719W        W31923  15.577  14.698  16.591  0.2468 -0.2394 -0.1093
13720W        W31924   0.483  11.480  17.265  0.0526  0.1513 -0.0781
13721W        W31925  15.740  12.153  15.670  0.1121  0.1510 -0.0662
13722W        W31926   2.346   7.295  13.011 -0.0756 -0.1267 -0.0649
13723W        W31927   1.507   5.674   1.450  0.1297  0.2197 -0.0489
13724W        W31928   1.712   9.920   1.351  0.2814  0.1408 -0.0367
13725W        W31929   9.493   5.308   5.479 -0.0294 -0.0335  0.0177
13726W        W31930   6.278   6.660  13.288  0.1083  0.0831 -0.1035
13727W        W31931   5.375   5.982  14.807  0.0263  0.0024 -0.0627
13728W        W31932   7.661   4.796  16.894  0.0777 -0.1081 -0.1029
13729W        W31933   3.764   3.241  12.497  0.1262  0.2879  0.0657
13730W        W31934  12.662   7.085  15.501  0.1111 -0.0830 -0.1750
13731W        W31935  10.049   3.341  14.826  0.1001 -0.1051 -0.2831
13732W        W31936  15.104  10.133  16.369  0.3438 -0.2930 -0.0576
13733W        W31937   3.373  12.579   5.821  0.0231  0.2435 -0.1164
13734W        W31938  10.403   0.610  16.291  0.3084 -0.2734  0.2097
13735W        W31939  13.229   5.840  15.472 -0.2084 -0.1472  0.2426
13736W        W31940   8.518  13.453  15.419  0.2629 -0.0489 -0.1041
13737W        W31941  16.249  15.226   3.974 -0.0868  0.0457 -0.0417
13738W        W31942   1.989   7.787  16.232  0.2245  0.1731 -0.0821
13739W        W31943   5.273   7.506   3.888 -0.1953 -0.0921  0.0100
13740W        W31944   2.169  14.528  12.880 -0.1189  0.0112  0.3134
13741W        W31945   1.038   6.081  13.612  0.1330 -0.0398  0.0639
13742W        W31946  15.694  11.656   4.661 -0.0305  0.2400 -0.3358
13743W        W31947   3.473  12.347   3.130  0.2234 -0.3650  0.0535
13744W        W31948  14.239   7.001  15.871 -0.0814  0.0088 -0.4437
13745W        W31949  10.291   8.955   3.955  0.0877  0.2142  0.0954
13746W        W31950  10.604  16.138  12.293  0.1841 -0.1560 -0.1062
13747W        W31951   7.484   4.278   1.962 -0.1473 -0.1587 -0.4160
13748W        W31952   2.139   1.605  17.222  0.0496 -0.2737 -0.0230
13749W        W31953   9.861  16.360   0.537  0.0950 -0.0572  0.3736
13750W        W31954   8.582  11.310  14.748  0.0015 -0.1013  0.1927
13751W        W31955  15.656   1.170   0.156  0.1406  0.1952  0.0986
13752W        W31956  16.465   5.011  11.553  0.0470  0.0785 -0.2331
13753W        W31957  15.891   5.116   3.151 -0.1927  0.0863 -0.1589
13754W        W31958  15.385  16.464   3.474 -0.0270  0.0317 -0.0867
13755W        W31959   2.464  15.741  15.928 -0.1197  0.0205 -0.1798
13756W        W31960   8.453  14.815   1.674  0.2881 -0.2458  0.0551
13757W        W31961   9.335  15.744   3.056 -0.0468 -0.0579  0.1159
13758W        W31962   3.423   8.705  12.833 -0.1889  0.2540 -0.0028
13759W        W31963   0.797  10.052   3.042 -0.1512  0.2666  0.4956
13760W        W31964  16.909  15.464   4.763 -0.0031 -0.1640 -0.1437
13761W        W31965  13.661  11.309   5.270 -0.1838  0.3060  0.0650
13762W        W31966   1.227   5.843  14.008  0.0245 -0.1146  0.1314
13763W        W31967  14.924   6.413   1.104  0.1055 -0.0172 -0.2062
13764W        W31968   4.346   5.082   4.854 -0.0266  0.0231 -0.1637
13765W        W31969  15.185  16.521  14.560 -0.1538 -0.4107  0.0610
13766W        W31970  16.923   1.773  15.882  0.1765 -0.1571  0.2004
13767W        W31971   0.063   7.112   1.629  0.0359  0.0579 -0.0114
13768W        W31972  11.701   4.361   4.710 -0.1202  0.0799 -0.1994
13769W        W31973   4.892  16.778   5.145  0.0435  0.1920  0.3066
13770W        W31974  15.364   8.916   0.873 -0.0381  0.0594  0.1341
13771W        W31975  10.373   9.260   3.270  0.2111 -0.2636  0.3572
13772W        W31976   6.592  15.689   2.020  0.0273 -0.0326  0.1580
13773W        W31977   7.961   4.613  17.226  0.0263 -0.1392 -0.0440
13774W        W31978   7.338  16.096   5.674  0.0252  0.0119  0.2054
13775W        W31979   8.143   5.396   2.051 -0.1853  0.1367  0.0189
13776W        W31980  10.001   1.928  15.745  0.0809  0.0901 -0.0246
13777W        W31981   5.309   2.486   2.713 -0.5249  0.1042 -0.1806
13778W        W31982  12.277  15.686   2.568 -0.1979 -0.2061  0.2268
13779W        W31983   5.255   8.404  13.717  0.1706  0.0126 -0.3071
13780W        W31984   3.465  14.655  15.282 -0.0631 -0.0670 -0.0071
13781W        W31985   6.079  16.695   4.875  0.2906 -0.0371 -0.0265
13782W        W31986   8.944  12.211  12.983 -0.1272 -0.0750  0.0042
13783W        W31987   5.843   8.631   3.903 -0.0014  0.0570 -0.2888
13784W        W31988   4.080   8.830  15.066 -0.0373  0.2836 -0.0283
13785W        W31989   0.194   9.128   0.282 -0.1078 -0.0854  0.3371
13786W        W31990  17.119   5.028   0.302 -0.2956 -0.0727 -0.1625
13787W        W31991  17.149   0.276   1.201  0.2595  0.0349  0.0696
13788W        W31992   9.632   2.263  15.519  0.0382  0.2058  0.2125
13789W        W31993   2.940   1.962   1.843 -0.2504  0.1186 -0.2025
13790W        W31994   7.584  10.409  13.060  0.2641  0.3574 -0.0613
13791W        W31995   8.516  16.630  13.291 -0.1831 -0.1268 -0.1975
13792W        W31996   6.610   7.463  16.910 -0.1343  0.1047  0.0090
13793W        W31997   5.720   2.377   2.455 -0.0342 -0.0374 -0.3272
13794W        W31998  11.057   5.720  11.009  0.2664 -0.0491  0.2373
13795W        W31999   1.843   5.907  13.232  0.0024  0.0870 -0.2017
13796W        W32000   4.299   5.910   2.543 -0.1284 -0.0337 -0.3651
13797W        W32001   7.923  15.267  17.145  0.1178  0.1675 -0.2086
13798W        W32002   9.130   1.986  12.997  0.0091 -0.0166 -0.6648
13799W        W32003  12.480   2.339   2.085 -0.0728  0.0279  0.4210
13800W        W32004   7.732   5.624  14.053 -0.0966 -0.3030 -0.1163
13801W        W32005  13.886  15.854  11.663  0.1031  0.0109  0.0108
13802W        W32006   6.081  14.959  12.271 -0.1228  0.1158  0.0239
13803W        W32007  11.397  12.028  12.862  0.5102 -0.0246  0.0041
13804W        W32008  12.509   1.487   3.943  0.0662  0.1791 -0.1790
13805W        W32009  15.551  13.732   5.519  0.1871 -0.0428  0.3116
13806W        W32010   9.086   0.122  16.428 -0.0613 -0.1563 -0.1707
13807W        W32011   2.401   0.335   1.845  0.0619  0.1240  0.0203
13808W        W32012  11.074   1.218  16.554  0.1935 -0.2162  0.2467
13809W        W32013  10.310   9.741   1.516 -0.0016  0.0603  0.0792
13810W        W32014   0.725  16.484  14.816 -0.1002 -0.1681  0.1997
13811W        W32015   8.540  13.212   1.670  0.1225  0.3585  0.0288
13812W        W32016   5.107   4.571  12.164  0.2098 -0.2785 -0.4220
13813W        W32017   5.565   8.357  14.212 -0.0843 -0.1246 -0.2175
13814W        W32018   0.931   2.670   0.993  0.2921  0.1900 -0.0392
13815W        W32019   7.963  15.766   3.680 -0.0355  0.1832 -0.0286
13816W        W32020  11.158   4.405  16.342  0.0602 -0.0914 -0.3584
13817W        W32021  13.397   3.160   4.687  0.0157  0.1299 -0.2689
13818W        W32022   3.650   6.764  14.175  0.1947  0.1137 -0.1177
13819W        W32023  10.846  11.814   1.633  0.1950 -0.2010  0.0432
13820W        W32024   0.597   6.104   0.448  0.0739 -0.0606 -0.2524
13821W        W32025   6.769   4.407  14.157 -0.3480 -0.0990 -0.0054
13822W        W32026   0.404   6.506   1.059 -0.1096 -0.2247 -0.4323
13823W        W32027  11.804  11.373   2.808  0.2374  0.0213  0.3564
13824W        W32028   2.454   9.353  13.448  0.0849  0.1842 -0.1602
13825W        W32029  10.154   9.823  15.085 -0.0490  0.0650 -0.0540
13826W        W32030  16.067   9.176  13.426 -0.0577  0.2337 -0.3340
13827W        W32031   7.414   0.208  16.953 -0.0456  0.1413  0.0262
13828W        W32032  14.513   9.620  15.274 -0.3392  0.3138  0.1918
13829W        W32033   5.295   0.660   3.562 -0.1013 -0.1699  0.4198
13830W        W32034  10.241   5.319   1.192  0.0849 -0.0936  0.0705
13831W        W32035   4.657  15.347  15.123  0.1791  0.1487  0.4059
13832W        W32036   6.899   1.614   1.341  0.0183  0.0916  0.1556
13833W        W32037   9.777   5.633  13.263 -0.4098  0.1505  0.4534
13834W        W32038   2.172   7.689  15.448 -0.0647 -0.1856 -0.0058
13835W        W32039   4.291  15.742  14.001 -0.1405 -0.2094  0.1940
13836W        W32040   2.963   7.409  12.284 -0.2333  0.2540 -0.0448
13837W        W32041   0.473   0.279   2.746  0.2139 -0.1310  0.2024
13838W        W32042  12.100   8.234   2.687 -0.1586  0.2004  0.1292
13839W        W32043  11.211  14.822   1.620 -0.3172  0.1320 -0.0471
13840W        W32044  16.142  15.029  12.510  0.3268  0.1207 -0.0551
13841W        W32045   0.240   9.926  12.577 -0.2921  0.2912 -0.1783
13842W        W32046  13.938   2.794  17.114 -0.2240  0.1742 -0.1736
13843W        W32047   6.298   1.642   1.038 -0.2181 -0.1223  0.0431
13844W        W32048  10.857  10.394   3.153 -0.0288 -0.4235 -0.0948
13845W        W32049   1.202  13.711   5.158  0.0594  0.1924 -0.0300
13846W        W32050   7.818   8.460   4.319  0.0211 -0.3383  0.2266
13847W        W32051   6.209  10.258  17.215  0.0476  0.2565 -0.2130
13848W        W32052   6.780   9.026   3.644  0.0686 -0.0076 -0.0342
13849W        W32053  16.443   9.552   3.586 -0.0045  0.2919  0.2637
13850W        W32054   4.570   2.002  15.805 -0.0348 -0.1728  0.3433
13851W        W32055   7.002   2.146  17.179  0.0758  0.0184  0.1239
13852W        W32056  11.776  15.369   5.127 -0.1207 -0.0937  0.1373
13853W        W32057  14.709  14.034  16.283  0.1525  0.1740  0.0639
13854W        W32058  14.846   6.784  13.211 -0.1269  0.0044  0.1186
13855W        W32059  14.612   6.433  16.847  0.0179  0.0796  0.1009
13856W        W32060   6.153  14.334  16.923  0.1393  0.0395  0.1361
13857W        W32061   7.893  16.354  12.743 -0.1107  0.2448 -0.0817
13858W        W32062  16.620   1.117   0.025  0.3383 -0.0023 -0.0826
13859W        W32063  14.190   9.504   3.456  0.1204 -0.0059  0.1722
13860W        W32064   3.414   0.802   3.084  0.1682 -0.0011 -0.0150
13861W        W32065   9.069  13.080   0.542 -0.0016 -0.2254 -0.0422
13862W        W32066   7.737   0.781   4.678 -0.1022  0.3061  0.0529
13863W        W32067   6.353  16.281  12.185  0.2319 -0.0230 -0.1569
13864W        W32068   6.562  14.153  14.478 -0.0778 -0.0440  0.1662
13865W        W32069   7.348   3.435   3.226  0.1084 -0.1595  0.2532
13866W        W32070   8.283   9.917  16.700 -0.1016 -0.0212  0.3104
13867W        W32071  16.882  13.797  15.331  0.0533  0.1176  0.1840
13868W        W32072  12.234   1.397   5.426 -0.0762  0.0998  0.0449
13869W        W32073   6.175  15.636   3.809 -0.1475 -0.0646 -0.1401
13870W        W32074   2.640  11.928   2.910 -0.0225  0.1090 -0.1757
13871W        W32075   6.277  14.786  11.784 -0.1943 -0.1378 -0.0113
13872W        W32076  14.903  10.943   1.973  0.2336 -0.0804 -0.3879
13873W        W32077   8.603  12.194  15.419  0.0339  0.0619 -0.1040
13874W        W32078  16.116   1.637   0.369  0.1727  0.0025  0.0522
13875W        W32079   6.368  12.064   2.299 -0.0986  0.1598  0.1708
13876W        W32080  10.480   0.790   4.524  0.1378 -0.0109 -0.1266
13877W        W32081   3.580  14.895   1.193  0.1456  0.1453  0.0707
13878W        W32082  15.476  12.728   3.435 -0.2478  0.2306 -0.0831
13879W        W32083   1.265   2.297  16.592 -0.0188 -0.0970 -0.1063
13880W        W32084   2.126  15.657   0.282  0.0504 -0.1119 -0.0395
13881W        W32085   5.904  14.260   2.956 -0.0714 -0.1456  0.3325
13882W        W32086   7.427  14.434   3.381 -0.0281 -0.3237  0.1744
13883W        W32087   0.684  13.371  12.580 -0.1864 -0.2658  0.0388
13884W        W32088   5.317  12.522  13.717  0.0755 -0.0561  0.1974
13885W        W32089  10.453   1.368  13.294 -0.0230  0.2647 -0.0422
13886W        W32090   8.682   6.004  13.015 -0.2814 -0.0436 -0.1779
13887W        W32091  11.084  16.052  15.912  0.2054 -0.0137 -0.3005
13888W        W32092  16.906  10.704  17.448  0.1138  0.0512  0.1274
13889W        W32093   1.255  16.594  15.023 -0.2089 -0.0714 -0.3110
13890W        W32094  16.778  17.185   4.492  0.3475 -0.2164 -0.0058
13891W        W32095  10.483   4.348   0.315  0.1936 -0.0041 -0.1415
13892W        W32096   1.479   1.683  12.745 -0.0155  0.2543  0.4573
13893W        W32097  12.600  15.358   4.969  0.1584 -0.0855 -0.0632
13894W        W32098   9.851  16.851   3.522 -0.3928 -0.2222 -0.0935
13895W        W32099  14.815  15.322   0.855 -0.1205  0.0242  0.0667
13896W        W32100   5.230   2.900  12.667 -0.0556 -0.0459  0.2176
13897W        W32101   1.344   5.786  15.034  0.0889 -0.3502  0.1449
13898W        W32102   9.074   4.183  15.932  0.1379  0.0534  0.2326
13899W        W32103   0.476   7.338  17.439 -0.2599  0.1136  0.1955
13900W        W32104  12.452   6.227   1.055 -0.0416 -0.0602 -0.0483
13901W        W32105   5.954  10.487   5.596 -0.0307  0.1308 -0.1821
13902W        W32106   5.006   7.238   1.230 -0.1115 -0.2012  0.2065
13903W        W32107   3.060   1.094  17.150  0.1236  0.0146 -0.1044
13904W        W32108  12.313   7.087  12.251  0.2971 -0.4816 -0.0540
13905W        W32109   0.223   5.958   0.069 -0.2992 -0.1010  0.0495
13906W        W32110  13.685  12.371  14.078 -0.3389  0.3571  0.0370
13907W        W32111  14.143   7.491  13.982  0.0141 -0.1685  0.2159
13908W        W32112  15.623   6.067   2.679 -0.5931 -0.0612  0.0127
13909W        W32113  13.389   4.601   2.166 -0.1530 -0.0352 -0.0445
13910W        W32114   7.833   4.417  14.430  0.0971  0.0021 -0.1222
13911W        W32115   0.926   4.489   0.543  0.2159  0.0914  0.2193
13912W        W32116   1.394  13.101   5.012  0.0005 -0.0218  0.0075
13913W        W32117   1.438  14.921  12.627  0.2311  0.1124 -0.0885
13914W        W32118   9.171   1.282   1.816  0.1981 -0.2247  0.1498
13915W        W32119   1.581   0.467   5.245 -0.1738 -0.0769 -0.0870
13916W        W32120  11.151   6.555  12.994 -0.2810 -0.0637 -0.6043
13917W        W32121   2.776  17.313   3.500  0.1984 -0.1568 -0.0019
13918W        W32122   1.637  12.110  17.462  0.3200  0.2763 -0.4033
13919W        W32123   4.124   0.949  14.896 -0.0633 -0.1128 -0.2669
13920W        W32124   4.607  13.488  12.132  0.0450 -0.0785 -0.0506
13921W        W32125  12.498   1.447  16.802 -0.3580  0.1319 -0.1017
13922W        W32126   2.767   3.950  17.146  0.0259  0.0886 -0.2814
13923W        W32127  12.091   4.821  14.439  0.2046  0.3026  0.4338
13924W        W32128   7.854   9.568  13.664 -0.0176  0.1634 -0.1217
13925W        W32129  14.384  14.277   1.709 -0.0069  0.0197 -0.1196
13926W        W32130   1.256   0.738  12.449 -0.0372  0.0764 -0.2552
13927W        W32131   1.702  10.619  16.699 -0.0180  0.2698  0.0273
13928W        W32132   2.464   5.292  14.663  0.1397 -0.2110 -0.1383
13929W        W32133   6.156   8.432  14.275  0.0441  0.1966 -0.1995
13930W        W32134  14.450  13.180   2.701  0.0583 -0.0030  0.1277
13931W        W32135   2.938   5.783   1.746  0.2540 -0.0032  0.2861
13932W        W32136  10.070  16.412   1.840 -0.1985  0.3406 -0.0895
13933W        W32137  10.679  12.623   4.707 -0.4093 -0.2928  0.2761
13934W        W32138  16.441  11.696  15.554  0.1998 -0.0087  0.4122
13935W        W32139   0.220   6.397  15.007 -0.0116 -0.1067  0.0389
13936W        W32140  17.263   1.388  16.006 -0.2128 -0.0655  0.1510
13937W        W32141   9.810  16.980  16.023  0.0068  0.0241  0.2647
13938W        W32142   6.968   3.605   5.369  0.0516  0.0912 -0.1389
13939W        W32143   4.542  10.854  14.941  0.4324 -0.2782  0.4024
13940W        W32144  16.843  14.335  17.495  0.0899  0.1714  0.0315
13941W        W32145   4.234   5.377  15.316 -0.1544  0.1919 -0.0250
13942W        W32146  11.240   8.287   0.552  0.1280 -0.2546  0.2864
13943W        W32147  10.175   3.347  16.173 -0.2459 -0.0145  0.2577
13944W        W32148  16.397   8.612  15.564  0.0010 -0.2562 -0.6794
13945W        W32149   8.160   1.106  17.012  0.2802  0.0603  0.1907
13946W        W32150   0.267   6.108   3.743  0.1306  0.1769  0.0895
13947W        W32151   4.929   0.834  15.606 -0.1755 -0.0237  0.0864
13948W        W32152   9.784   7.754  17.012  0.0043 -0.0808 -0.0402
13949W        W32153   1.244  15.857   0.755  0.0959 -0.3848 -0.2272
13950W        W32154  11.129   3.269   5.233  0.1317  0.1707 -0.0624
13951W        W32155   6.146   0.683  17.064  0.2613 -0.2758 -0.0899
13952W        W32156   9.577   6.068   2.756  0.0215 -0.2328 -0.4247
13953W        W32157   6.696  11.641  12.484 -0.0300 -0.1693  0.3787
13954W        W32158   9.392  13.803   4.189  0.2001 -0.2066 -0.0528
13955W        W32159   6.839   2.920  12.265 -0.0162  0.0633  0.1624
13956W        W32160   2.686   7.498   4.021 -0.0805  0.0275  0.1213
13957W        W32161   4.037   6.952   4.645  0.1186 -0.2540 -0.0597
13958W        W32162  11.517   5.962   3.500 -0.2317  0.2810  0.1735
13959W        W32163  13.815   7.269   0.987  0.0052 -0.0612  0.0717
13960W        W32164   2.640   5.356  13.735  0.0554 -0.1402  0.0403
13961W        W32165   9.189   6.037  12.934 -0.1865  0.1005  0.0013
13962W        W32166   9.050   5.615  13.790 -0.0426 -0.2120 -0.0429
13963W        W32167   5.508   3.946  16.709 -0.0614  0.0790 -0.1520
13964W        W32168   9.624   0.967   3.461  0.0932 -0.2733 -0.0868
13965W        W32169   5.896  10.848   1.389  0.0302  0.1562  0.2515
13966W        W32170  10.718   4.933  13.393 -0.1778  0.2580  0.0244
13967W        W32171  14.720  11.378   3.352  0.1936 -0.3337 -0.0361
13968W        W32172   6.863   1.685   4.403 -0.1513  0.0225 -0.2476
13969W        W32173  11.126   1.601   0.483  0.3024 -0.0832 -0.3221
13970W        W32174   6.613   4.112  12.887  0.2749 -0.1027 -0.1067
13971W        W32175   0.185   8.779   2.497 -0.2339  0.1582  0.1360
13972W        W32176  10.102   4.601   5.956 -0.1537 -0.0421 -0.2715
13973W        W32177  10.732  13.502   1.583  0.0419 -0.0261 -0.1542
13974W        W32178  15.722  10.467   4.371  0.0040 -0.0767 -0.2687
13975W        W32179   9.003   7.491  14.176  0.0962  0.1877  0.0621
13976W        W32180   9.090   2.647  12.373 -0.4195  0.0248  0.1774
13977W        W32181  17.305   4.867  16.177  0.0745 -0.3396 -0.0699
13978W        W32182  11.747   6.572  16.381  0.0436  0.0220  0.1292
13979W        W32183   5.047  14.417   2.255 -0.0271  0.0411  0.0173
13980W        W32184   7.276   4.889   2.381 -0.0346  0.1415  0.3290
13981W        W32185   2.463   8.691   3.029  0.0403 -0.1610 -0.0288
13982W        W32186   9.466  13.890  17.167  0.0572  0.2423 -0.2067
13983W        W32187  15.872   8.248  15.624  0.2084  0.2129 -0.2333
13984W        W32188  15.795  16.911  13.001  0.3951  0.2220 -0.2062
13985W        W32189  13.296  13.247   1.351 -0.2273  0.3484 -0.4577
13986W        W32190  11.489  14.171  13.211 -0.0053 -0.0087  0.0338
13987W        W32191  15.035   4.639  15.567 -0.0073  0.1597 -0.1217
13988W        W32192  10.844   1.512   0.980  0.0380 -0.2337  0.2794
13989W        W32193   9.590  15.620   1.592  0.0332  0.0841 -0.0206
13990W        W32194  11.254   1.982   2.871 -0.0121  0.3017  0.0826
13991W        W32195   0.133   7.227  13.944 -0.1332 -0.1613 -0.0456
13992W        W32196   3.419  14.719   2.514 -0.1656  0.2623  0.2012
13993W        W32197  11.445   5.786  11.781 -0.0422  0.4646  0.0878
13994W        W32198   9.022   0.751   1.070 -0.1020 -0.2182  0.4771
13995W        W32199  13.930  12.205  14.516  0.1665 -0.0348  0.0300
13996W        W32200   2.517   7.496   4.880  0.3236  0.0395  0.2617
13997W        W32201  11.037   7.703  12.396  0.0203 -0.2419  0.0300
13998W        W32202  10.134   9.263  17.403 -0.1929  0.1184  0.0600
13999W        W32203   3.016   3.473   4.856  0.3037  0.1158 -0.0632
14000W        W32204   1.883  14.860   3.876 -0.1083 -0.3537 -0.2123
14001W        W32205   8.214   2.056  16.374  0.2063 -0.1191 -0.2659
14002W        W32206   0.732   6.840  12.614 -0.2387  0.0939  0.2015
14003W        W32207  16.577   3.339   1.815  0.0945  0.3813 -0.0406
14004W        W32208   6.974  12.891   0.819  0.2310 -0.1978 -0.1142
14005W        W32209  13.517  15.696  16.114 -0.2718 -0.2266  0.1491
14006W        W32210  14.654  10.917  16.546  0.0544  0.1353  0.0561
14007W        W32211  15.036  16.823   5.285 -0.0540 -0.2971  0.1066
14008W        W32212  13.374   0.956  11.809 -0.0488 -0.1004  0.0303
14009W        W32213   8.327   0.592  17.126  0.1126 -0.0644  0.0993
14010W        W32214   2.068   2.730  15.126  0.0370  0.1524 -0.4176
14011W        W32215  17.116  17.134  13.970 -0.2152  0.0152 -0.1143
14012W        W32216  16.566  11.167   5.414  0.2907 -0.0513 -0.2139
14013W        W32217  16.588  14.765   6.371  0.0754 -0.0712  0.0420
14014W        W32218   6.799   8.086   0.962  0.1006 -0.0292 -0.1532
14015W        W32219   0.941   0.336  12.371 -0.1344  0.2326  0.0237
14016W        W32220   0.663   0.345   4.673 -0.0146 -0.1063  0.1905
14017W        W32221   2.938  14.186  12.597 -0.0220 -0.0504 -0.0956
14018W        W32222  13.076  14.598  14.296 -0.0043  0.1542 -0.1025
14019W        W32223  13.955   2.613   4.177  0.0930 -0.0443  0.0397
14020W        W32224  15.001   8.974  11.933  0.0499 -0.3594  0.2426
14021W        W32225   7.486  13.284  12.432 -0.3511 -0.1308  0.0931
14022W        W32226  10.837  10.596  17.360 -0.1566 -0.0143  0.3888
14023W        W32227   8.058   9.398   0.250  0.2414  0.3632  0.0429
14024W        W32228  10.711   9.106   3.721  0.1302 -0.0980  0.0799
14025W        W32229   5.981  16.444  13.977  0.0416  0.1817 -0.1412
14026W        W32230   2.485  11.915  12.908 -0.0801  0.0285 -0.2493
14027W        W32231   8.427   7.805  13.861 -0.1902 -0.0345 -0.3686
14028W        W32232  15.767   3.814  17.479 -0.1363  0.1311 -0.0031
14029W        W32233  12.949  11.598   2.616 -0.4416  0.2325 -0.0393
14030W        W32234  15.041   1.243   2.774  0.6298  0.1941 -0.4680
14031W        W32235   5.439  12.801  15.343  0.0859  0.1692  0.1457
14032W        W32236   6.781   0.792  13.705 -0.0061  0.0815  0.1194
14033W        W32237   5.699   0.640   4.726  0.0170  0.0913 -0.2432
14034W        W32238  14.587   0.845   2.820 -0.2147  0.5623 -0.0775
14035W        W32239  16.649   8.418   0.283  0.1424 -0.1315 -0.5234
14036W        W32240   5.715  13.245  13.086 -0.0148 -0.0451  0.3674
14037W        W32241   9.338  15.651   2.036 -0.2982 -0.2527 -0.0364
14038W        W32242   2.101  10.998   0.499  0.0803 -0.0366  0.1133
14039W        W32243  14.007  14.967  15.445 -0.0797  0.0637  0.0462
14040W        W32244   8.357  16.375   2.206  0.2043  0.2090 -0.1068
14041W        W32245   2.857   5.515  14.987 -0.1133  0.2093 -0.1263
14042W        W32246   0.198   7.123  16.205 -0.2247  0.2488 -0.2373
14043W        W32247  15.629  15.000   1.627  0.2710 -0.3059  0.0796
14044W        W32248  11.206   3.779   4.874 -0.0742 -0.1974  0.2239
14045W        W32249   4.668  14.114  15.097 -0.1090 -0.0474 -0.0656
14046W        W32250   2.223   5.853   2.212  0.2551  0.1946  0.2358
14047W        W32251   4.766  14.384  14.503  0.0628  0.0898 -0.3002
14048W        W32252  12.978  10.725   4.166 -0.2650 -0.2709  0.1468
14049W        W32253  11.301   2.703   1.816  0.0499 -0.2500  0.0943
14050W        W32254  11.398   8.671  15.685 -0.1052 -0.0739 -0.0598
14051W        W32255  10.913  12.209   4.681 -0.0534 -0.1023  0.0241
14052W        W32256   9.382   0.839   4.050  0.0352  0.0864  0.4980
14053W        W32257  14.040   7.776   0.752  0.0404 -0.0315  0.0256
14054W        W32258   5.317  15.387   3.982  0.2565  0.1138 -0.3159
14055W        W32259   1.790   4.271  12.483  0.2461  0.2569  0.3397
14056W        W32260   9.195   1.443  16.126  0.1595 -0.1345  0.1477
14057W        W32261   4.049  12.855   1.567  0.1660  0.0661 -0.0560
14058W        W32262  10.160  10.189   0.600  0.2492  0.2351  0.0081
14059W        W32263   2.452  14.341   4.391  0.0165 -0.1399 -0.1708
14060W        W32264  16.380  16.090   4.220 -0.0277  0.0409 -0.1257
14061W        W32265  17.043   2.501   2.200  0.1472  0.2833 -0.0747
14062W        W32266   1.905   2.863   0.113  0.3580 -0.3505  0.2765
14063W        W32267   2.027   4.717  13.764 -0.1307  0.0673  0.2040
14064W        W32268   3.335   4.193   4.180  0.0586 -0.0447 -0.3613
14065W        W32269   7.904   3.674   1.577 -0.1003 -0.0220  0.0571
14066W        W32270   1.877  13.503  15.632  0.1996 -0.0036  0.0136
14067W        W32271   0.452   1.689  12.761 -0.0260  0.0031  0.3474
14068W        W32272   6.821   6.533  12.322  0.3204  0.4477 -0.0219
14069W        W32273  10.615  16.726   2.532  0.0214 -0.1716 -0.0881
14070W        W32274   9.116  10.064   1.753 -0.2044 -0.2096  0.1583
14071W        W32275  15.879  14.125  15.202  0.1615  0.2122 -0.0924
14072W        W32276   1.578  10.599   0.119  0.2490 -0.1772  0.0559
14073W        W32277  15.628   4.423   1.933 -0.0706  0.3426 -0.1414
14074W        W32278   6.771   3.673  14.587  0.0815 -0.0273 -0.0534
14075W        W32279   1.191  13.782   1.620  0.0592  0.0610 -0.1832
14076W        W32280   2.334   4.408  15.506  0.0862 -0.1521  0.1129
14077W        W32281   3.540   6.331  15.902 -0.0399  0.0117 -0.2121
14078W        W32282   5.516   2.960   1.442 -0.1658 -0.0514 -0.0401
14079W        W32283   1.125   6.651   2.378  0.0698 -0.4837 -0.2595
14080W        W32284   6.196  17.037  17.455  0.0869 -0.0564 -0.0181
14081W        W32285   9.009  11.422  15.054 -0.1700  0.0310 -0.2346
14082W        W32286  14.045   7.578   4.401  0.1185  0.0983 -0.0952
14083W        W32287  14.784   0.853   4.908 -0.1341 -0.0349 -0.1080
14084W        W32288  10.870   4.529   4.750  0.0912 -0.0569  0.0833
14085W        W32289   2.641  16.273  15.815 -0.0518 -0.0943 -0.1254
14086W        W32290  10.018   7.588   4.323  0.0011 -0.2407  0.1128
14087W        W32291   2.447  16.798   6.610 -0.1190 -0.2130  0.1411
14088W        W32292  12.616   8.662  12.668  0.2077 -0.1316 -0.0549
14089W        W32293   5.816  14.987   4.825  0.0127 -0.0675 -0.2353
14090W        W32294  12.471   8.274  15.435  0.1075 -0.0977 -0.0438
14091W        W32295   6.965  16.910  15.753  0.2006  0.1272  0.0169
14092W        W32296   7.561   7.745  14.646 -0.1153  0.1053 -0.5556
14093W        W32297  10.788  16.401  12.698 -0.3002  0.0505 -0.1144
14094W        W32298  16.633  15.889   1.249 -0.0719  0.0765  0.0214
14095W        W32299   5.001   8.746  16.812 -0.0634  0.1788  0.0664
14096W        W32300   4.403   8.525  12.639 -0.2278 -0.2457  0.2765
14097W        W32301   4.124  13.365  16.306 -0.0732  0.1334 -0.0912
14098W        W32302  16.429   6.796  17.374 -0.1698 -0.1225  0.3121
14099W        W32303   0.630  13.014  16.715  0.2038  0.2632 -0.0660
14100W        W32304   6.760  10.983   4.228  0.0929 -0.1121  0.1878
14101W        W32305  15.606  10.394   2.186  0.3111  0.0949 -0.0809
14102W        W32306  15.199  14.015   4.257  0.2822  0.3227 -0.0253
14103W        W32307   0.909  13.043  13.639 -0.0390 -0.0356  0.0733
14104W        W32308   0.923  16.320  17.521 -0.0647  0.0561 -0.4181
14105W        W32309   5.671  12.255  12.765 -0.0604  0.2397 -0.2761
14106W        W32310   4.962   3.118  16.525  0.0429  0.1584 -0.3130
14107W        W32311   5.057   6.877  12.970 -0.0059 -0.1130 -0.0910
14108W        W32312  10.646  12.150   1.930  0.2089 -0.0078  0.0948
14109W        W32313   2.383   8.004  17.112 -0.2199 -0.2060  0.6019
14110W        W32314  16.699  12.425   5.560 -0.0722 -0.1380 -0.2248
14111W        W32315  16.179   6.663   1.453 -0.1881  0.0163 -0.3848
14112W        W32316  10.937   4.832  16.241 -0.0303  0.2100  0.0627
14113W        W32317  13.102  10.842   3.715  0.0428 -0.0640  0.0851
14114W        W32318  10.904   0.736  12.956 -0.2557 -0.1433 -0.0358
14115W        W32319  11.262   0.973   3.131 -0.1974 -0.1627  0.0185
14116W        W32320  13.131   5.996   0.482  0.4945  0.0289 -0.1959
14117W        W32321  10.177  12.507   4.820  0.3572 -0.1237  0.1147
14118W        W32322   4.537   5.262  12.219 -0.0049 -0.1870  0.0365
14119W        W32323   4.466   8.033  17.203 -0.1542  0.2159  0.1152
14120W        W32324   6.098  12.817  12.208 -0.2136 -0.1513 -0.2318
14121W        W32325  11.513   9.216  15.195  0.1893  0.0404  0.2986
14122W        W32326   3.610   4.820  15.095 -0.0146 -0.0875 -0.0359
14123W        W32327  15.437   7.568   4.199  0.0678  0.1042 -0.0697
14124W        W32328   6.095   1.223  14.323  0.3036  0.0038 -0.0861
14125W        W32329   1.128  12.242  15.384  0.3326 -0.0104 -0.0874
14126W        W32330   6.107   3.926   0.746 -0.1837  0.0957  0.1452
14127W        W32331   2.993  15.127   4.147  0.2555  0.2597 -0.0941
14128W        W32332   6.793  12.156  16.390 -0.0378 -0.0346  0.0377
14129W        W32333   9.590   2.691  16.413 -0.2571  0.0057 -0.1402
14130W        W32334  11.822  14.185   1.225 -0.1005  0.0216 -0.0310
14131W        W32335  12.777   8.058   3.948 -0.1474 -0.1653  0.1182
14132W        W32336  10.672   6.546   0.915  0.0528 -0.5048 -0.1996
14133W        W32337  14.082   2.406  15.441 -0.0765  0.0695  0.1860
14134W        W32338  15.935  11.955   3.736 -0.1399  0.0782  0.2683
14135W        W32339  14.766   3.690   4.249  0.1609  0.0642 -0.2009
14136W        W32340  12.185   1.611  14.153 -0.0820 -0.2491 -0.4455
14137W        W32341   5.107   0.542   0.523  0.0280  0.1290  0.0439
14138W        W32342   6.291   2.393   3.803  0.5039 -0.1945  0.0559
14139W        W32343   1.180   6.113  13.082  0.3525  0.1835 -0.4814
14140W        W32344   9.830  10.331   4.008 -0.1664 -0.0234  0.0560
14141W        W32345   0.317  13.887  15.196  0.2021 -0.0066 -0.2090
14142W        W32346  11.166   1.454   2.987 -0.4090  0.1617  0.2111
14143W        W32347   1.999  12.999   0.982  0.0149  0.1640  0.0214
14144W        W32348   4.055   4.950  12.999 -0.2101 -0.0548  0.1156
14145W        W32349   3.363  11.393   0.942 -0.0340 -0.0870  0.2718
14146W        W32350  10.480   8.711   4.386  0.1323  0.0269 -0.1233
14147W        W32351   7.260  12.021  13.059 -0.1092 -0.1932 -0.0286
14148W        W32352  12.304   8.832   0.200 -0.2403 -0.3477  0.1183
14149W        W32353   7.283  11.687   4.257  0.1397  0.2811 -0.1461
14150W        W32354   7.863  10.386   1.838  0.1729 -0.2286  0.0729
14151W        W32355   7.300  10.412   0.957 -0.0944 -0.5511  0.0123
14152W        W32356  17.102   9.381  16.599 -0.0464  0.1597 -0.0814
14153W        W32357  14.003  14.982  16.480  0.1511  0.2442 -0.1103
14154W        W32358   8.806   2.383   3.144  0.0508  0.0358 -0.0269
14155W        W32359  10.163  13.592  16.550 -0.1119  0.0113  0.0858
14156W        W32360   9.464  12.869  14.683  0.1297 -0.1950 -0.0925
14157W        W32361   5.972   5.384   2.854 -0.1373 -0.1960 -0.1705
14158W        W32362   4.875   3.949   4.694  0.0024 -0.1143  0.4006
14159W        W32363  12.068  13.855  13.065  0.1080 -0.0727  0.1235
14160W        W32364   9.960  14.695  13.497  0.2632 -0.1954  0.0568
14161W        W32365  10.446  14.806  12.371  0.0205  0.1486 -0.2089
14162W        W32366   1.939   9.814   1.979  0.1212  0.0193 -0.0174
14163W        W32367   1.926   5.627   0.567 -0.1658  0.4956  0.2322
14164W        W32368  10.829   4.995  12.616  0.0267  0.0923 -0.0763
14165W        W32369   4.755   1.510  16.673  0.2849 -0.0998  0.2081
14166W        W32370  10.015   9.058  13.896  0.3254 -0.1280 -0.1420
14167W        W32371  11.431   7.080   4.669  0.2612  0.0942  0.5289
14168W        W32372   1.369  15.125  14.231  0.1935 -0.1404 -0.1839
14169W        W32373   4.118  11.287   4.574  0.1284  0.0182 -0.0404
14170W        W32374   5.493   8.482  16.042 -0.3856 -0.1311 -0.0323
14171W        W32375  16.173   5.887   0.839  0.3079 -0.3378 -0.2623
14172W        W32376   9.589   5.442  16.256 -0.0765 -0.0427  0.1785
14173W        W32377  13.522   1.537  12.761  0.1057  0.0100 -0.4459
14174W        W32378   1.741  16.735   0.825 -0.1172 -0.0236  0.0209
14175W        W32379  14.371   5.565   1.402  0.2320 -0.2867 -0.1402
14176W        W32380  12.871   1.702   0.671 -0.0398  0.2287  0.1483
14177W        W32381  12.782  13.974   2.435 -0.0084 -0.0700 -0.1037
14178W        W32382   6.132   2.596  14.247 -0.1344 -0.4357  0.1632
14179W        W32383  16.180  11.794  12.641  0.2198 -0.0631  0.0294
14180W        W32384  14.493   4.317   0.315 -0.0923  0.3063 -0.1672
14181W        W32385  10.297   4.233  13.852 -0.3514 -0.3641  0.0337
14182W        W32386   9.395  13.711  16.216  0.0568 -0.1220  0.2338
14183W        W32387   3.616   9.936   3.321  0.1499  0.1727  0.0991
14184W        W32388   8.623  11.113   4.595 -0.1631  0.2719  0.0884
14185W        W32389   3.495  15.592  16.677  0.1665 -0.0100  0.1709
14186W        W32390   1.639  14.002   5.697  0.0375  0.1301  0.2532
14187W        W32391   1.219   3.802   3.201  0.0429  0.2330 -0.2576
14188W        W32392   4.770   3.281   2.819  0.3128 -0.2767  0.0679
14189W        W32393  13.717   2.971  15.856 -0.1359  0.1226 -0.0867
14190W        W32394   4.855   5.352   0.814  0.0648 -0.0620 -0.1386
14191W        W32395   1.001   1.024  12.096 -0.0590 -0.0104  0.1926
14192W        W32396   9.397  11.306  17.440 -0.0359 -0.0487 -0.0366
14193W        W32397   1.170   4.497   2.319  0.1348 -0.2716  0.0304
14194W        W32398   6.856  14.987   3.687 -0.1719 -0.0094 -0.1328
14195W        W32399  14.282  10.440  17.212 -0.0423 -0.1508 -0.0204
14196W        W32400   5.735  14.141  15.442 -0.1576  0.0434 -0.2294
14197W        W32401  16.961  12.069   5.199 -0.2048  0.2190  0.0563
14198W        W32402  16.532   2.859   5.153  0.1370  0.0659  0.0814
14199W        W32403   0.360   6.919  12.202 -0.0800  0.1655 -0.1682
14200W        W32404  12.376   1.716   0.819  0.1079 -0.0495  0.2396
14201W        W32405   2.780   8.849  14.200 -0.0843  0.1179  0.1648
14202W        W32406  12.026   6.039   4.597  0.1122  0.0194  0.1652
14203W        W32407   2.337   2.813   4.197 -0.0966  0.3493 -0.1172
14204W        W32408   5.060   7.041   4.098  0.1786 -0.1129 -0.3136
14205W        W32409  12.083  13.482   0.663  0.1072 -0.1871 -0.1233
14206W        W32410   3.872  16.592   1.037 -0.0758 -0.3090  0.0116
14207W        W32411  10.487   0.972  12.820  0.0429  0.0466  0.3229
14208W        W32412   5.249  14.681  16.559  0.2352 -0.0644 -0.1985
14209W        W32413   2.592   1.748  13.246 -0.0602 -0.0305  0.1824
14210W        W32414   2.948  12.136  12.855 -0.0075 -0.3243 -0.1056
14211W        W32415  10.149   2.591   0.617  0.2291 -0.0516 -0.0127
14212W        W32416   1.608   6.678   3.711  0.0261 -0.0993  0.1636
14213W        W32417   3.727   1.394   2.932  0.1761 -0.0193 -0.1332
14214W        W32418   6.456  17.276  13.727  0.0086  0.2071 -0.1114
14215W        W32419   0.603  13.853  16.985  0.0627  0.1880 -0.1738
14216W        W32420   0.638  11.680   4.422 -0.0003 -0.0884 -0.3154
14217W        W32421   1.633   2.878   0.550 -0.2311  0.0306 -0.0683
14218W        W32422   9.566   0.402   4.270 -0.1362 -0.2596 -0.0126
14219W        W32423  14.298   0.103  17.028  0.0780 -0.1802  0.1385
14220W        W32424   4.078   6.413   1.834 -0.0405 -0.1489 -0.0703
14221W        W32425   0.472  14.839  17.435 -0.0346  0.1251  0.0481
14222W        W32426   7.069   5.935  15.671  0.0197  0.0994 -0.2185
14223W        W32427   8.343  13.672  12.784  0.1857  0.0050  0.3998
14224W        W32428  13.320  16.972  12.576  0.1162  0.0527  0.3405
14225W        W32429   9.043   7.230  15.894 -0.1140 -0.0534 -0.0570
14226W        W32430  15.867  10.672   5.178 -0.1810 -0.1983  0.1475
14227W        W32431   9.789  17.124   0.264 -0.1042 -0.0472 -0.2724
14228W        W32432  14.796  12.605   5.239  0.1909  0.3445  0.1401
14229W        W32433   1.418   9.219  12.526 -0.1647 -0.2055  0.1266
14230W        W32434   6.101   4.039  14.193 -0.0167 -0.0535 -0.0348
14231W        W32435   3.843   0.657  13.555 -0.1844  0.1599  0.1032
14232W        W32436   7.430  16.481  14.129  0.2613 -0.1052 -0.0674
14233W        W32437  14.936  11.042   1.118 -0.0839  0.1564  0.0137
14234W        W32438  10.326  16.681   5.675 -0.2835  0.0535 -0.2442
14235W        W32439   0.865   2.767   2.360  0.3737  0.0940 -0.0578
14236W        W32440   9.509  11.919  15.580  0.0424 -0.3352 -0.1737
14237W        W32441   7.998   3.146   1.315 -0.0556 -0.1111 -0.0204
14238W        W32442  10.970   2.316   1.605 -0.2414  0.0787  0.3826
14239W        W32443   0.602  10.471   3.595  0.1143 -0.0852 -0.1972
14240W        W32444   3.325  10.370  14.839 -0.2747  0.0156  0.0999
14241W        W32445   6.440   8.592  16.270 -0.1623 -0.0572  0.2970
14242W        W32446   9.073  16.766   4.928 -0.1378 -0.1381 -0.0198
14243W        W32447   3.022  10.719  16.798 -0.1118 -0.3488 -0.0424
14244W        W32448   3.285   0.502   4.793 -0.0055  0.2800 -0.3017
14245W        W32449  15.061   5.700   2.451 -0.1911 -0.2653 -0.2933
14246W        W32450  14.071  10.084  14.467  0.0168 -0.3561  0.4374
14247W        W32451   9.960  15.405   5.749  0.1914  0.1034 -0.0012
14248W        W32452  15.140  15.257  12.692 -0.4000 -0.0029 -0.3414
14249W        W32453   1.003   8.521   4.079 -0.1454  0.1590  0.2549
14250W        W32454  11.553   4.671  15.623 -0.0647 -0.1125 -0.1046
14251W        W32455   7.047  14.592   2.317  0.1357  0.3098 -0.0506
14252W        W32456   0.874   8.279   4.454  0.2204 -0.2769 -0.2728
14253W        W32457  11.234   3.578   4.425 -0.1417  0.0240  0.2679
14254W        W32458  14.319  17.039   2.756 -0.1090  0.0905  0.1384
14255W        W32459   8.504   1.329  14.604 -0.3901  0.0781 -0.0366
14256W        W32460   9.162  13.219  16.182 -0.1003 -0.3230 -0.3152
14257W        W32461   0.877   9.032  14.248 -0.1008  0.1133 -0.0443
14258W        W32462  13.833  16.296  15.513  0.1595  0.3324  0.0241
14259W        W32463   8.358   4.806   0.005 -0.1906 -0.1528 -0.0517
14260W        W32464  15.477   4.375  12.884  0.2126 -0.0276 -0.3363
14261W        W32465   9.172   3.424   0.059 -0.0234  0.1784 -0.0613
14262W        W32466  15.335   3.894  12.615 -0.1416  0.2151 -0.1299
14263W        W32467   5.493  11.796  12.075  0.0781 -0.0643 -0.3542
14264W        W32468   8.123   7.526   2.295  0.2793 -0.1500 -0.5451
14265W        W32469  14.695  10.318   4.585  0.0135 -0.1677  0.1512
14266W        W32470   8.276   9.191   1.535  0.2291  0.0289  0.4188
14267W        W32471  17.257   9.370  12.734  0.1864 -0.2907  0.1721
14268W        W32472   9.581   9.933  15.238 -0.0993 -0.3090 -0.0337
14269W        W32473   8.589  11.754  12.956  0.1136 -0.0619 -0.0317
14270W        W32474   9.654  17.162  14.079 -0.1439  0.0652  0.0662
14271W        W32475  12.244   7.016   2.996 -0.2725 -0.2178  0.0538
14272W        W32476   4.704   4.567   1.125 -0.0094  0.2783  0.1054
14273W        W32477   0.183  16.958  15.861  0.3828 -0.0390  0.0089
14274W        W32478  11.682   8.635  13.738 -0.0722  0.0024  0.3628
14275W        W32479  10.950  13.093   3.779  0.0294  0.0779  0.1836
14276W        W32480   1.768   9.586   4.490 -0.3048  0.0527 -0.0881
14277W        W32481  13.981   8.285  16.678  0.2827  0.0793  0.4924
14278W        W32482   9.096   9.174   4.587 -0.1321 -0.1117 -0.2042
14279W        W32483   6.262   1.128  16.790  0.0120  0.1437 -0.1904
14280W        W32484   5.148  16.420  15.808  0.0785  0.1030 -0.0424
14281W        W32485   5.061   5.892  16.694  0.0727  0.0971  0.2816
14282W        W32486   5.589  13.202  16.352 -0.1423  0.1267 -0.2834
14283W        W32487   1.948  12.077   4.958 -0.1770 -0.0420 -0.0474
14284W        W32488  13.077  14.994  12.671  0.0228  0.0580 -0.0540
14285W        W32489  15.787   5.211   0.177  0.1154 -0.0951  0.1800
14286W        W32490   8.522   4.310  13.564  0.1185  0.2001  0.1351
14287W        W32491   6.316   3.270   4.249  0.3042 -0.1083 -0.1124
14288W        W32492   3.655   5.382  13.194  0.3500  0.0080  0.0103
14289W        W32493   5.347  15.046  12.467 -0.2323 -0.0820  0.0517
14290W        W32494  17.053   0.345   0.721  0.0927 -0.2802 -0.1836
14291W        W32495   6.221   3.530  15.204 -0.0864 -0.0013 -0.1560
14292W        W32496   1.717   8.795  13.182  0.2420 -0.0085 -0.4670
14293W        W32497   5.369  16.206   1.139 -0.2770  0.0279 -0.3552
14294W        W32498  13.958   6.741  14.983  0.1362  0.0695  0.2237
14295W        W32499  11.642   2.163   5.137 -0.1439  0.1519  0.1076
14296W        W32500  14.578  11.535   1.363  0.0088 -0.0454  0.3260
14297W        W32501   3.078   7.320   4.359  0.2596 -0.1358  0.3413
14298W        W32502  12.406  10.753   4.873  0.0753 -0.2494 -0.0225
14299W        W32503   1.124   7.605  13.593 -0.2006 -0.0771  0.1109
14300W        W32504  10.394  12.044  16.129  0.0922  0.1601  0.0994
14301W        W32505   9.212   2.554   4.215 -0.0195 -0.1447 -0.0092
14302W        W32506  10.893   6.993  15.628 -0.0660  0.1440 -0.1289
14303W        W32507  12.940  12.406  16.538 -0.1920  0.0967  0.1346
14304W        W32508  16.375   6.745   3.045 -0.0850  0.2697  0.1673
14305W        W32509  13.299   7.686   5.119 -0.0646 -0.2844  0.2132
14306W        W32510  13.600   5.552  11.880 -0.2100  0.0605 -0.2991
14307W        W32511   3.587  12.783   1.898 -0.0702 -0.1612 -0.0389
14308W        W32512   5.097   5.751   4.793  0.0297  0.0628 -0.1417
14309W        W32513  15.130  11.425   2.168 -0.2168 -0.0038  0.3373
14310W        W32514  11.630   7.003  16.086 -0.0816 -0.1569 -0.1131
14311W        W32515   4.805  16.957   0.732 -0.1521  0.0561  0.0848
14312W        W32516   2.425   5.823   5.125 -0.1116 -0.2421 -0.0721
14313W        W32517   9.501   5.702  13.961 -0.1664  0.2963 -0.1684
14314W        W32518  11.396  16.146   2.457  0.2358  0.1895 -0.3469
14315W        W32519  10.335   7.810  13.197  0.0173  0.0493 -0.0600
14316W        W32520  13.198  16.465  15.805 -0.2833  0.2188 -0.1404
14317W        W32521  12.361  10.596  14.431  0.4322  0.0472 -0.2430
14318W        W32522   6.922   3.439  12.048 -0.1011 -0.0629  0.1381
14319W        W32523  12.573  13.109  15.240 -0.1552 -0.1744 -0.2144
14320W        W32524   4.458   6.658   4.540  0.2949 -0.3559 -0.0732
14321W        W32525   7.522  14.475  13.172  0.0939 -0.0498  0.1691
14322W        W32526  12.748  13.674   2.792 -0.4133 -0.0124 -0.2080
14323W        W32527  10.248  13.222  17.387 -0.0455 -0.0247 -0.0855
14324W        W32528   2.682  12.592   2.324 -0.0012  0.0675  0.4262
14325W        W32529   4.072  11.219  16.408 -0.2287  0.0306  0.3064
14326W        W32530  14.057  10.554   5.452 -0.1410 -0.1485  0.2411
14327W        W32531   3.004  17.043   5.151 -0.0232 -0.1273  0.2498
14328W        W32532   2.806  11.014  14.431  0.2085 -0.0116 -0.0341
14329W        W32533   3.063   9.525   4.496 -0.3145  0.0881  0.0933
14330W        W32534   9.765  14.448  12.491 -0.2568 -0.1391  0.1109
14331W        W32535   8.652   5.746   4.394  0.2795 -0.0915 -0.2471
14332W        W32536  10.695  16.236  13.695  0.0129  0.1265  0.0923
14333W        W32537  15.136   4.415   2.289 -0.2018  0.2902  0.1780
14334W        W32538   7.047   4.573  14.577 -0.0338  0.1745 -0.0897
14335W        W32539  14.630  15.781   3.385  0.4609  0.2321 -0.1875
14336W        W32540  10.007   0.879  12.950 -0.1762 -0.0145 -0.2577
14337W        W32541   2.469  13.426   1.338 -0.1194 -0.3176  0.0450
14338W        W32542   6.663  13.190   5.871  0.1016 -0.2305  0.0671
14339W        W32543   8.582  16.620   5.101 -0.1022 -0.1343  0.1125
14340W        W32544  10.995  12.987   3.005  0.0461 -0.0492  0.0637
14341W        W32545   8.683   8.036  12.498  0.0608  0.1264 -0.1937
14342W        W32546  14.736  11.860  12.665  0.0292  0.0153  0.1434
14343W        W32547  16.682   4.747   3.215  0.0286 -0.0137 -0.0086
14344W        W32548   4.017   0.139  13.445 -0.1677  0.0765  0.0758
14345W        W32549  12.051  10.419   4.289 -0.0559  0.0828 -0.1518
14346W        W32550   5.024  13.758  12.862  0.0421 -0.3402 -0.3414
14347W        W32551   7.451  16.413  14.611 -0.0858 -0.0576 -0.1898
14348W        W32552   2.537  13.416  14.413  0.1844 -0.0406 -0.1030
14349W        W32553   4.577   6.581  17.372  0.0216  0.0482  0.1097
14350W        W32554   7.228  11.420   1.857 -0.1516  0.1306 -0.1828
14351W        W32555  10.974   4.271   4.152 -0.0220 -0.3350 -0.0653
14352W        W32556  11.539  13.705   3.476  0.1399  0.0482 -0.3778
14353W        W32557   9.783  10.148   4.574 -0.3058 -0.0891  0.1800
14354W        W32558  10.109   9.464   0.384  0.0438 -0.1046 -0.2081
14355W        W32559   1.887  10.525   0.559 -0.0735  0.0482  0.1572
14356W        W32560   2.915  10.023   4.478  0.1251 -0.0518  0.0517
14357W        W32561  10.672   3.876   1.885 -0.0910  0.1633  0.3567
14358W        W32562  15.626  15.277   2.776  0.2963 -0.0514 -0.1551
14359W        W32563  15.435   5.638   1.819  0.0321  0.1595 -0.1313
14360W        W32564  11.389   2.938   2.674  0.0141 -0.0260 -0.2373
14361W        W32565  14.398   1.919   5.096  0.0512  0.0910 -0.1657
14362W        W32566   0.995   3.071   4.233 -0.1140 -0.1956  0.5530
14363W        W32567   2.991   7.559   4.854 -0.0347 -0.1405 -0.0473
14364W        W32568   8.963  12.222  13.545 -0.2526  0.0490 -0.0446
14365W        W32569  10.542   9.963   3.976 -0.0215  0.2120 -0.0291
14366W        W32570   8.774   4.326   3.161  0.0028 -0.2117 -0.3541
14367W        W32571   0.738   8.794  15.303 -0.2083 -0.0489  0.1860
14368W        W32572   4.671  10.682  15.916  0.3129 -0.1154  0.3530
14369W        W32573   6.188  14.991  15.705 -0.0305 -0.0307 -0.1557
14370W        W32574  14.575   7.524  12.787  0.0834 -0.0772  0.1454
14371W        W32575   5.011   5.380   2.903 -0.1748 -0.1794  0.0539
14372W        W32576   8.663   2.074  12.762  0.0415 -0.2518  0.2966
14373W        W32577   7.362  15.062   3.858 -0.4468 -0.1050 -0.2479
14374W        W32578   3.385  14.948   0.062  0.2218 -0.4979  0.3444
14375W        W32579   2.218   3.741   3.692  0.0455  0.1455  0.1310
14376W        W32580   2.023   0.955  14.742 -0.3398 -0.2672  0.0869
14377W        W32581  15.622   0.336   4.406  0.1002 -0.1721 -0.1222
14378W        W32582   5.873  15.200   1.687  0.0942 -0.2882  0.0767
14379W        W32583  13.248  16.168   2.290  0.0853 -0.1194  0.2660
14380W        W32584  10.883   1.189  13.121  0.2073  0.0790  0.0948
14381W        W32585  10.039   0.066  16.403  0.4175  0.2866 -0.1065
14382W        W32586  14.709   2.142  14.955  0.0112 -0.0159 -0.0431
14383W        W32587   9.144  12.829   3.072  0.1235  0.0287  0.2425
14384W        W32588   3.370   1.557  15.990 -0.0977 -0.3292  0.2506
14385W        W32589  11.611   3.068   5.294  0.2085 -0.1290  0.0502
14386W        W32590   4.608  12.947  11.349  0.0012  0.0059 -0.0880
14387W        W32591  12.879  11.519   1.149 -0.0031 -0.1687 -0.0717
14388W        W32592  15.993   8.248  12.332 -0.3346  0.1716 -0.1509
14389W        W32593   4.201   1.943   3.951 -0.3619  0.1023  0.2233
14390W        W32594   4.084   0.367  16.908  0.2113 -0.2765  0.0268
14391W        W32595  12.074  15.926   0.393  0.3401  0.1607  0.1062
14392W        W32596   9.790   6.424   0.589  0.0401 -0.0991  0.4303
14393W        W32597   2.120   4.245   2.335 -0.0668  0.0190  0.1873
14394W        W32598   3.335   4.445   1.744  0.0611 -0.0323  0.0259
14395W        W32599  14.213  13.552   5.097  0.2095  0.0215  0.1287
14396W        W32600  17.332   8.187  15.395 -0.2356 -0.3126 -0.2431
14397W        W32601  11.726   9.820   2.276  0.1407  0.0909  0.0317
14398W        W32602  12.666   5.552  17.375 -0.2506 -0.1560  0.0746
14399W        W32603   0.884   2.421   1.559 -0.2172  0.4371 -0.0530
14400W        W32604   9.264  13.220   5.243 -0.2444 -0.1854  0.0446
14401W        W32605   7.256   8.421  11.250 -0.0462 -0.1860  0.2327
14402W        W32606  15.696  11.821  13.270 -0.2396 -0.1447  0.2380
14403W        W32607   3.194   1.918   4.652 -0.0508  0.2336 -0.1673
14404W        W32608   4.517  15.145   5.697  0.0003  0.2306  0.0587
14405W        W32609  12.853   1.042   3.847  0.0618 -0.2597 -0.2191
14406W        W32610   6.269  16.316  15.285 -0.2382  0.3480  0.0393
14407W        W32611   1.248  10.539   5.819  0.0730  0.1753  0.1415
14408W        W32612  12.377   7.219  11.617 -0.2658  0.0739 -0.0504
14409W        W32613  13.325   8.513  13.826 -0.2168 -0.1073 -0.0191
14410W        W32614   1.758  14.470  13.619 -0.0527  0.4934  0.0436
14411W        W32615  11.828  17.044   4.692 -0.1127  0.1098  0.2060
14412W        W32616   0.756   3.758   1.210  0.2899  0.3166 -0.1246
14413W        W32617  15.219  14.138   0.772  0.1675  0.1838 -0.1757
14414W        W32618  11.450   4.137  14.292  0.2058  0.2995  0.0372
14415W        W32619   5.309   3.008   2.525  0.0516  0.2107 -0.1240
14416W        W32620   5.099   4.454   2.399 -0.3142 -0.0660 -0.0182
14417W        W32621   2.558   5.640  16.407  0.1870 -0.0579 -0.1083
14418W        W32622   8.686  15.692  16.275 -0.0296 -0.1813  0.0712
14419W        W32623   0.120   2.875  16.493  0.0297  0.2424 -0.2038
14420W        W32624  12.870   2.743   3.026  0.0126  0.3804 -0.1221
14421W        W32625   3.881   2.677   4.400 -0.0866 -0.1718  0.1269
14422W        W32626   7.136  14.214  15.312  0.4932  0.1546 -0.3314
14423W        W32627   8.668   5.242   3.425 -0.0932 -0.1273 -0.0979
14424W        W32628   0.076   3.907  16.069 -0.0928  0.1532  0.0250
14425W        W32629  16.258  16.292   1.333  0.0075  0.1639  0.0699
14426W        W32630   8.968   5.498   2.745  0.0318  0.0476 -0.2925
14427W        W32631   7.304   3.255   5.610 -0.1074 -0.2442 -0.1198
14428W        W32632   8.958  10.839   3.720 -0.0073 -0.0357 -0.1000
14429W        W32633   3.610   5.742  12.046 -0.0226 -0.3498  0.1129
14430W        W32634   5.457   6.930  12.122  0.2002 -0.2115 -0.1841
14431W        W32635  11.152  15.602   0.400  0.1254  0.3531 -0.0732
14432W        W32636   9.530   5.469  14.438 -0.0762  0.2268  0.0840
14433W        W32637   3.989  15.597  12.546  0.1048 -0.2782 -0.1012
14434W        W32638   9.706  16.314   4.459 -0.0705 -0.2247  0.1710
14435W        W32639   3.084   8.758   5.018 -0.0149  0.2296 -0.2704
14436W        W32640  11.402  15.489  16.415  0.2436  0.1565  0.6708
14437W        W32641  11.783   7.738  12.122 -0.2270  0.2368 -0.2807
14438W        W32642  10.350   0.416  14.896 -0.2065  0.3630 -0.3881
14439W        W32643  15.706  17.193  15.550  0.0421 -0.1262 -0.0627
14440W        W32644  11.506   0.987   1.457 -0.1772 -0.2495  0.1783
14441W        W32645   8.601  15.929  17.127  0.2051 -0.1905 -0.3365
14442W        W32646   3.630  12.099  13.580 -0.1473  0.2078 -0.0425
14443W        W32647  11.899  12.181  12.770  0.1773  0.0372 -0.2656
14444W        W32648   7.971   3.252  12.366  0.2184 -0.2774 -0.1244
14445W        W32649   0.379   8.401  13.510  0.0874  0.3868 -0.0416
14446W        W32650  10.429  13.775   2.261  0.0088  0.1481  0.0428
14447W        W32651   6.023  14.876   0.344 -0.0065  0.1193  0.0796
14448W        W32652   6.441   6.176   2.902 -0.0752 -0.1252  0.1209
14449W        W32653  15.310  10.588   5.322  0.1093 -0.2489  0.0720
14450W        W32654   9.085   4.440  12.740  0.1022  0.0769 -0.0393
14451W        W32655  14.517  15.191  15.283 -0.3104  0.0784  0.1184
14452W        W32656   0.972   5.745   0.812  0.1998 -0.0101  0.1559
14453W        W32657  16.866  10.199   0.038 -0.0447 -0.0753  0.0075
14454W        W32658   0.345  14.121   0.351  0.0942 -0.0734 -0.1395
14455W        W32659   7.153   8.965  13.917  0.5208 -0.0265 -0.0224
14456W        W32660  11.721   2.921  17.501  0.1370  0.1080  0.0611
14457W        W32661   7.760   8.537   0.682  0.3334  0.2416 -0.0755
14458W        W32662  13.396  13.976  16.890 -0.0739 -0.3701 -0.0848
14459W        W32663  13.794   2.996  11.695 -0.3136 -0.3477  0.0601
14460W        W32664   9.356  13.738  15.338  0.1297 -0.1837 -0.0556
14461W        W32665   7.321   5.483  13.697  0.0358  0.3532 -0.0899
14462W        W32666   2.029   5.533   4.537  0.1637 -0.3235  0.2215
14463W        W32667   6.229  17.087  14.794  0.3447 -0.0716  0.1124
14464W        W32668  15.316  10.604  13.051  0.0842  0.0525 -0.3152
14465W        W32669   0.503  12.995  13.975 -0.0025  0.4384 -0.0889
14466W        W32670   5.327   1.690  14.764 -0.2685  0.3483 -0.3555
14467W        W32671  16.497   8.456  13.693 -0.0238 -0.0850  0.0541
14468W        W32672   3.217   8.202   3.184  0.1651  0.0974  0.1600
14469W        W32673   8.188   7.710  13.375 -0.3158 -0.2409  0.2142
14470W        W32674   2.353   3.528   0.472  0.3072  0.1371  0.1331
14471W        W32675  14.898   9.409   0.530  0.0911 -0.1010  0.2343
14472W        W32676   6.010  14.026   0.901 -0.1492  0.2256  0.1889
14473W        W32677   2.882  16.939  13.815  0.2292 -0.0441  0.0294
14474W        W32678  13.401  13.881  12.071 -0.3415  0.2118  0.1327
14475W        W32679   7.370  11.650  13.305  0.0888 -0.3059 -0.2700
14476W        W32680   6.705  10.778   2.357 -0.4505 -0.0500 -0.3148
14477W        W32681  16.090  15.627   2.016 -0.0926 -0.2389 -0.1745
14478W        W32682   6.535   1.168  14.580  0.0818  0.0958  0.0546
14479W        W32683   6.981   2.470   2.760  0.0402  0.0518 -0.1629
14480W        W32684  13.874   3.390   0.142 -0.1882  0.1225  0.0499
14481W        W32685  15.525   8.633   2.652  0.1579  0.1052  0.0562
14482W        W32686   8.236  11.843  15.413 -0.1060  0.1200 -0.1808
14483W        W32687   0.389  15.886   1.768  0.1477 -0.0021 -0.1488
14484W        W32688   3.246   8.541   4.644 -0.2093  0.0944 -0.5653
14485W        W32689   6.015   6.775  17.405  0.1782 -0.2852 -0.2125
14486W        W32690   0.632   1.858  12.338  0.3253 -0.1144  0.1935
14487W        W32691   0.995  15.632   0.442  0.1914  0.0594  0.2233
14488W        W32692   5.204  13.730   1.262  0.4445  0.3418  0.2728
14489W        W32693   0.029   4.702   3.041 -0.0724 -0.0606  0.1654
14490W        W32694   0.874   9.305  15.055 -0.2227 -0.1017 -0.0477
14491W        W32695   0.382  13.429  16.557 -0.1496 -0.2003 -0.3270
14492W        W32696   7.561   7.929   4.463 -0.0973  0.1138  0.0650
14493W        W32697   9.925  15.062  14.975  0.0462  0.0341 -0.1904
14494W        W32698   3.351  16.002   4.448 -0.0171 -0.1286 -0.1602
14495W        W32699   2.110   9.919   4.763 -0.4768 -0.0053  0.0257
14496W        W32700   0.154  17.205   0.671  0.1174  0.1141 -0.0364
14497W        W32701   5.834  10.110   4.364 -0.0379 -0.0292 -0.1318
14498W        W32702  17.199   1.131   3.691 -0.4378  0.2214 -0.0434
14499W        W32703  15.538   0.345   3.883  0.1145 -0.3437  0.3209
14500W        W32704   5.882  15.275  16.011 -0.2370  0.3912  0.0937
14501W        W32705   5.122   0.917  17.263 -0.0478  0.2442 -0.0017
14502W        W32706   9.085  12.434  12.547  0.0692  0.0251 -0.0531
14503W        W32707   8.146   4.994  16.867  0.1889  0.0354  0.2166
14504W        W32708  10.939  15.749   1.855  0.2317 -0.0889  0.3452
14505W        W32709   9.067  10.585  16.958 -0.0009  0.1278  0.0897
14506W        W32710   5.198   5.888  13.449 -0.4747 -0.2204 -0.1988
14507W        W32711  14.030   5.247  14.041 -0.2377  0.0532 -0.1893
14508W        W32712   6.752  13.853  15.348  0.2377 -0.2833 -0.0588
14509W        W32713   7.470  17.058  15.617  0.0086  0.0006 -0.2001
14510W        W32714   0.890  16.385  15.753 -0.1469 -0.0348 -0.2243
14511W        W32715   4.547   6.643  16.146 -0.2491 -0.0394 -0.5960
14512W        W32716   5.662   4.989  13.934  0.1331  0.2507 -0.4290
14513W        W32717  15.965   6.916  14.637  0.0434  0.1602 -0.1077
14514W        W32718   0.393   5.373  12.060 -0.0290  0.2123 -0.0635
14515W        W32719   8.244   5.464  15.307 -0.2464 -0.1329 -0.0186
14516W        W32720  12.411   8.220   0.913 -0.2521  0.1202  0.2480
14517W        W32721   1.566  11.834  14.736  0.1396  0.1578  0.4334
14518W        W32722  14.826   4.030  14.027 -0.3581 -0.3256  0.1973
14519W        W32723  16.751  13.148  16.974  0.0934  0.0982 -0.0985
14520W        W32724   9.842   7.665  14.802 -0.0055 -0.1944 -0.4209
14521W        W32725   7.089  10.832  15.880  0.2980 -0.3062  0.1640
14522W        W32726  14.283   1.305  16.297  0.1927  0.0083  0.4722
14523W        W32727  10.878   5.358  13.008 -0.0883  0.3706  0.0751
14524W        W32728  12.583  15.619   3.966  0.2307 -0.0054  0.0019
14525W        W32729  13.920   4.497   2.901 -0.0416 -0.1140 -0.1707
14526W        W32730   3.525   3.437   1.721 -0.1548 -0.0118  0.1599
14527W        W32731   6.818   7.351   3.177  0.2454  0.1841 -0.1160
14528W        W32732   7.638  11.241  14.276 -0.1595 -0.1756 -0.1243
14529W        W32733  16.136   6.978   1.970 -0.3173  0.1544 -0.2270
14530W        W32734  11.123  12.115   5.404 -0.0267  0.0028  0.0091
14531W        W32735   1.481   2.294  12.225  0.0332 -0.1286  0.1779
14532W        W32736  16.347  13.979  12.464  0.5482 -0.0668  0.2498
14533W        W32737   5.023  15.149   4.320 -0.0289 -0.0460  0.1915
14534W        W32738   3.524   0.692   2.337 -0.0026  0.0981 -0.2943
14535W        W32739  13.011  15.381   4.170 -0.0990  0.0047  0.1889
14536W        W32740   7.001   6.411   0.216  0.1817  0.0161  0.1260
14537W        W32741  15.102   8.052   4.690 -0.3099  0.0851  0.1153
14538W        W32742   2.477   5.265   2.244  0.3906  0.0265  0.0269
14539W        W32743   6.308   3.675  14.519  0.2228  0.2095 -0.1359
14540W        W32744  14.051   4.030   1.880 -0.1709 -0.2473 -0.0432
14541W        W32745   8.587   1.751   4.300  0.2684 -0.0298 -0.0914
14542W        W32746   2.286  13.220  16.613 -0.1924  0.2261  0.0318
14543W        W32747  16.241  13.860   3.762  0.0504  0.1492  0.2238
14544W        W32748  14.972   8.722   4.731 -0.2778  0.0222 -0.0058
14545W        W32749   2.849   1.651  15.229  0.0128  0.0516 -0.1260
14546W        W32750   6.961  11.472   5.133 -0.1635 -0.0658  0.1664
14547W        W32751   0.174  12.703  14.397 -0.0279 -0.1596 -0.2245
14548W        W32752   3.369   7.073  13.403 -0.0099 -0.3182 -0.1133
14549W        W32753   2.283  16.686   3.463  0.0812 -0.3203  0.0110
14550W        W32754   6.610   9.450   2.907  0.0103  0.0378 -0.2508
14551W        W32755   9.585  16.319  14.368 -0.1145 -0.0637 -0.0846
14552W        W32756  11.155  13.902  14.659  0.0260 -0.2469  0.0166
14553W        W32757   3.853  11.790   4.734  0.0202 -0.1679 -0.0522
14554W        W32758   1.633   2.005  16.114  0.3682  0.0482 -0.0745
14555W        W32759   7.808   1.943  14.405  0.0057 -0.0802 -0.2900
14556W        W32760   9.587  12.751   3.386 -0.0065  0.0568  0.2543
14557W        W32761   5.823  13.189  13.798  0.3177  0.1009  0.1256
14558W        W32762   2.402   8.986   3.906  0.2265  0.2479 -0.2908
14559W        W32763   2.509   6.734   1.806  0.0693  0.2381 -0.1092
14560W        W32764   9.922   5.333   1.580 -0.0786  0.0601  0.1744
14561W        W32765   7.912  15.877   4.164  0.0932 -0.1392  0.0763
14562W        W32766   4.112   5.113   3.524 -0.2986  0.2041  0.0214
14563W        W32767  13.739   1.881   1.093 -0.0480 -0.0431  0.2142
14564W        W32768   2.045   4.050   2.854 -0.0563 -0.1661  0.1739
14565W        W32769   0.034   2.126   1.867  0.0180  0.3344 -0.0898
14566W        W32770   2.292   5.570   2.609 -0.0180  0.0236  0.3595
14567W        W32771  15.755   4.322   4.033 -0.0027  0.1538 -0.0460
14568W        W32772  14.628   8.990   1.982 -0.0437 -0.0205  0.2299
14569W        W32773  12.380  12.541   5.040  0.1706 -0.0267  0.1322
14570W        W32774  13.607   3.468   1.869 -0.2296 -0.0043  0.0375
14571W        W32775   1.828   5.774   2.866  0.4577 -0.1721  0.0757
14572W        W32776   8.569  16.696  12.293  0.3376  0.0213  0.1877
14573W        W32777   1.297   7.454   4.186 -0.0028 -0.1144  0.2007
14574W        W32778  10.524  12.338   3.787  0.1872 -0.1901  0.0339
14575W        W32779  10.526   7.124  13.168  0.0800 -0.2481  0.2424
14576W        W32780  16.472  10.392   0.392  0.1034  0.1890  0.1062
14577W        W32781   4.807  17.334  12.340  0.3020 -0.0091 -0.0509
14578W        W32782   3.344   0.933  14.202 -0.0823  0.1605 -0.0262
14579W        W32783  13.011  14.849   3.354  0.0249  0.2621 -0.0006
14580W        W32784  16.591   6.800   4.563 -0.2337 -0.1193  0.1094
14581W        W32785   9.796   3.915  17.199 -0.2818 -0.1391 -0.2354
14582W        W32786   3.345   2.964   1.856  0.0262 -0.0261  0.0829
14583W        W32787  12.492  13.773   3.212 -0.2137  0.0250 -0.1496
14584W        W32788  14.159   3.111  12.985 -0.1755 -0.4350 -0.0242
14585W        W32789  10.397   6.268   3.199 -0.0106  0.3487  0.3528
14586W        W32790  12.406  10.675  13.940  0.0119  0.1944 -0.2929
14587W        W32791  12.524  17.219   0.647 -0.4706 -0.0428  0.0842
14588W        W32792  11.684   0.541   4.287  0.0634  0.2439  0.1191
14589W        W32793  12.534  14.560   1.557  0.1663 -0.0952  0.1603
14590W        W32794  16.702   4.061   0.147 -0.0353 -0.2698  0.2292
14591W        W32795  17.083  15.565  14.939 -0.0998  0.2260 -0.1314
14592W        W32796  15.921  10.971   3.684 -0.1540 -0.3352 -0.0505
14593W        W32797   3.962   7.609   3.672 -0.2873  0.3333 -0.2709
14594W        W32798  13.912   4.822   2.400 -0.2447 -0.1081  0.1738
14595W        W32799   9.657  10.968   2.391 -0.2975 -0.1478 -0.0076
14596W        W32800  10.347  13.740  12.545  0.2206 -0.0621  0.2335
14597W        W32801   2.205   4.539   1.647  0.1294  0.2973 -0.1897
14598W        W32802   3.769   4.299   3.846 -0.4451  0.0876  0.2306
14599W        W32803  10.387   1.295   4.450  0.0412 -0.0304  0.1981
14600W        W32804   9.197  11.877   2.151 -0.3700  0.0075  0.1226
14601W        W32805   3.870   4.792   3.964  0.1009  0.0202  0.0977
14602W        W32806   1.379   3.396  12.141  0.0890 -0.0625 -0.1024
14603W        W32807  13.634  16.083   1.274  0.0308 -0.2517  0.2089
14604W        W32808  13.806   6.329   5.271 -0.1366 -0.2551 -0.0318
14605W        W32809   4.461   6.191  15.894 -0.1029 -0.1977  0.0947
14606W        W32810   7.181  10.455  17.203  0.0267 -0.1613 -0.0527
14607W        W32811  10.894   4.181  11.348  0.3026  0.0743  0.0708
14608W        W32812   3.849  14.334  13.006  0.0484 -0.3454 -0.3122
14609W        W32813   7.670   9.587   3.140  0.1321  0.0240  0.1039
14610W        W32814  13.634   2.435  16.902 -0.1280 -0.5804 -0.1166
14611W        W32815  13.439   5.265  13.282  0.3052 -0.0397 -0.0680
14612W        W32816   8.361   9.744  14.035  0.0222  0.0759 -0.2721
14613W        W32817  14.125  15.235   3.970 -0.0139  0.0666  0.2115
14614W        W32818   4.754   1.052   2.924 -0.2139 -0.0044 -0.2228
14615W        W32819  13.131  13.252  14.016 -0.0554  0.2692 -0.5004
14616W        W32820   7.567  14.050  13.447  0.1304 -0.2476 -0.0447
14617W        W32821   3.737  16.776  16.774  0.0176 -0.1997 -0.3621
14618W        W32822   8.874   7.452  14.942 -0.2219  0.0623 -0.2909
14619W        W32823   0.862   9.807  14.892  0.2169  0.0183 -0.0062
14620W        W32824   1.096   3.434  15.688 -0.0682  0.2692  0.1719
14621W        W32825   5.734   4.917   5.555 -0.3894 -0.0721 -0.0701
14622W        W32826  15.852   9.446  14.928 -0.1615  0.0925  0.1968
14623W        W32827   8.234  14.550  12.672 -0.1117 -0.1646 -0.1178
14624W        W32828  15.500  12.549   4.158 -0.0430 -0.0663  0.1191
14625W        W32829   1.073  14.872  13.921  0.0195 -0.0446  0.1950
14626W        W32830   4.611  16.116   0.043 -0.2850 -0.1280  0.2991
14627W        W32831  11.249   8.484  13.421  0.1757 -0.1954 -0.4304
14628W        W32832   8.012   7.324   4.900  0.0516 -0.1545 -0.1106
14629W        W32833   1.234  13.064  16.484  0.3590  0.2741 -0.0945
14630W        W32834   2.064   3.143  15.983 -0.0688  0.0870 -0.2526
14631W        W32835  14.897   2.156   3.772  0.2061 -0.2611 -0.1111
14632W        W32836  14.571   0.165   2.959  0.1834 -0.0665 -0.4133
14633W        W32837  10.491   9.458  14.924  0.2481  0.0777 -0.0618
14634W        W32838  14.374   3.465   5.013 -0.3624 -0.2748 -0.1524
14635W        W32839  15.664   9.557  12.104  0.0211 -0.0341  0.1171
14636W        W32840  13.286  10.112  12.087 -0.0131  0.0742  0.0313
14637W        W32841  11.232  13.325  15.322 -0.3757 -0.1275 -0.0561
14638W        W32842   0.848  15.010  14.342  0.0235 -0.0656 -0.0623
14639W        W32843   6.194  12.529  14.826  0.0699 -0.0590 -0.0018
14640W        W32844  16.957   3.840  12.099 -0.0490  0.3293  0.0561
14641W        W32845  11.486   3.753   0.286 -0.1677 -0.0052 -0.1510
14642W        W32846   4.772   5.230  14.130 -0.3078  0.2776  0.2110
14643W        W32847   8.841   0.690  15.684 -0.1109 -0.0343 -0.1142
14644W        W32848  14.112  15.543   1.427  0.2350  0.1146 -0.3448
14645W        W32849   7.053   4.087  14.499  0.1187  0.0788 -0.0361
14646W        W32850   4.274  15.864  12.928  0.3624  0.1732 -0.2295
14647W        W32851   6.295   5.964  17.359 -0.0145  0.1261 -0.2134
14648W        W32852  16.170   8.665  16.938 -0.1356  0.0113  0.4396
14649W        W32853  13.975   5.475  13.556 -0.3305 -0.0957 -0.1460
14650W        W32854  16.766  14.161   0.483 -0.1756  0.2010  0.1293
14651W        W32855   9.937  11.230  14.744 -0.2065 -0.0703 -0.0170
14652W        W32856   6.082  13.167   0.180 -0.1003  0.1295  0.2934
14653W        W32857   8.320   3.605  15.373 -0.1033 -0.0584  0.0243
14654W        W32858  13.684  12.445  13.274 -0.2856 -0.1691 -0.1389
14655W        W32859   5.799   2.932  14.395 -0.0477 -0.2617 -0.1210
14656W        W32860  14.595  13.503   3.561  0.3938  0.5274  0.1877
14657W        W32861   8.179  10.378   0.612 -0.1985  0.0221  0.0402
14658W        W32862   2.207  16.326  16.962 -0.3494 -0.0757  0.1075
14659W        W32863   1.357  15.815  12.521  0.1122  0.2155  0.2681
14660W        W32864   1.404  15.059  17.390  0.2260 -0.0067  0.3778
14661W        W32865  15.940  11.452   3.707  0.1116  0.0537 -0.0425
14662W        W32866   2.813  14.687  14.089  0.0849  0.3387 -0.1103
14663W        W32867  14.374  13.384   5.550  0.1978 -0.2455 -0.1526
14664W        W32868  13.123  17.272   3.761  0.0480 -0.1793  0.2923
14665W        W32869  12.509   5.970  12.769  0.0366  0.0112  0.0664
14666W        W32870  11.067   8.247  15.802  0.0818 -0.2535 -0.2822
14667W        W32871   5.115   3.004   4.692 -0.1281  0.0249 -0.0093
14668W        W32872   3.135  15.228  15.925 -0.1296 -0.0201  0.1120
14669W        W32873  12.831  15.713   5.550  0.0056  0.1277  0.2873
14670W        W32874   9.445  15.079   0.934 -0.1338 -0.1631 -0.0529
14671W        W32875  12.662   2.112  10.809 -0.1068  0.0089 -0.0946
14672W        W32876   6.547  10.885   0.296 -0.2362  0.0608  0.1266
14673W        W32877   6.061   3.115  14.018 -0.2725  0.0542 -0.0249
14674W        W32878  17.014  10.192   4.194  0.0223  0.4377  0.0256
14675W        W32879  14.390   5.053  15.412  0.1366  0.1681  0.0999
14676W        W32880   6.017  14.601  12.853  0.3700 -0.0757  0.0652
14677W        W32881   0.612  14.336   0.006  0.0696 -0.1028 -0.0038
14678W        W32882   8.920  11.981   5.055 -0.2299  0.1435 -0.2677
14679W        W32883  13.729   8.881  17.387 -0.1653 -0.2298 -0.3333
14680W        W32884   7.080  10.115  12.185  0.1842  0.2780  0.1487
14681W        W32885  13.754  16.683   4.266  0.1043  0.0038  0.0488
14682W        W32886  13.494   0.710   4.716 -0.0525  0.0167 -0.2051
14683W        W32887   9.332  13.836  12.725  0.0726  0.0889  0.2420
14684W        W32888  14.349  17.009  13.514 -0.1648 -0.2396 -0.0713
14685W        W32889   5.954   0.271   5.007 -0.0017 -0.2300  0.1554
14686W        W32890   8.727   3.955  16.815  0.1572 -0.2262  0.1357
14687W        W32891  14.884  13.451   3.087  0.0940 -0.0364 -0.1100
14688W        W32892  13.377   2.517  14.887 -0.0733 -0.1856 -0.2816
14689W        W32893  10.896   5.455   0.146 -0.2309 -0.0350 -0.0013
14690W        W32894   8.150   5.839   2.281 -0.0388  0.2342 -0.0764
14691W        W32895   5.118  13.794   5.212 -0.0056 -0.0158  0.4869
14692W        W32896   6.366   3.795  16.326 -0.3492  0.0414  0.1257
14693W        W32897   4.052  13.926  17.202  0.0460 -0.1442 -0.0223
14694W        W32898   5.075  14.777  14.340  0.0722 -0.0433 -0.1897
14695W        W32899  16.436  14.514   4.954  0.1835 -0.0175 -0.1367
14696W        W32900   3.526  15.682   2.961 -0.0279 -0.3879 -0.0902
14697W        W32901  16.879   5.901  16.655 -0.2017 -0.2324 -0.0749
14698W        W32902  14.580  14.644   4.652  0.2433 -0.1333  0.0633
14699W        W32903   1.408  12.998  13.731  0.2423 -0.0832 -0.0038
14700W        W32904  11.270   2.473   1.260  0.1304 -0.1122  0.1089
14701W        W32905  15.355   9.947   1.129 -0.1329 -0.3305  0.0372
14702W        W32906   2.783   3.275   0.593 -0.0605 -0.1018  0.1413
14703W        W32907   7.359  15.348  12.547  0.0187  0.1885  0.1125
14704W        W32908   9.586   8.477   1.168  0.2275 -0.0591  0.2623
14705W        W32909  14.279  15.702  14.368  0.2877 -0.1190  0.1329
14706W        W32910  12.220  12.845   4.529  0.2988  0.1067  0.1991
14707W        W32911   5.826  17.296   0.214 -0.1742  0.2127  0.2265
14708W        W32912   9.830  12.537  13.301 -0.0521  0.2849 -0.0525
14709W        W32913   3.627  14.718  13.434 -0.0555  0.1397  0.4049
14710W        W32914   1.726  10.201   4.011 -0.0491 -0.0257 -0.0515
14711W        W32915   8.175   8.100   0.743 -0.0503  0.0622 -0.3901
14712W        W32916   1.281   7.460   3.464  0.0658 -0.2128 -0.1757
14713W        W32917  15.499  13.124   6.089 -0.2777  0.0429  0.3762
14714W        W32918  15.357   3.260  14.677  0.0060  0.1868 -0.1792
14715W        W32919   5.995   2.992   4.517 -0.0081 -0.0496 -0.0571
14716W        W32920   4.328   1.319   2.736 -0.1385 -0.1677  0.0036
14717W        W32921   6.047  16.815  16.193 -0.0749  0.0758  0.2003
14718W        W32922   6.015  11.803  14.032 -0.0844 -0.3997  0.0686
14719W        W32923   9.295   3.337  12.645 -0.0547 -0.2156 -0.1478
14720W        W32924   1.906  16.056  13.300  0.0650 -0.3660 -0.1099
14721W        W32925   6.937  14.728  15.278  0.2046 -0.1135 -0.0920
14722W        W32926   2.693   6.303   4.835 -0.0771 -0.0501  0.3191
14723W        W32927   7.111  11.287   4.461 -0.0734  0.1260  0.0842
14724W        W32928  13.910  10.863  16.782 -0.1547  0.0537 -0.1103
14725W        W32929   6.939   4.891   1.598 -0.4128  0.2030 -0.0322
14726W        W32930   4.607  12.790   2.210 -0.3206 -0.0528 -0.2980
14727W        W32931  16.579   1.228   2.184 -0.2571  0.1341  0.0676
14728W        W32932  16.115   3.060   4.654 -0.2002  0.0101  0.1232
14729W        W32933   0.104   9.476  15.704  0.2539  0.0591  0.2330
14730W        W32934   2.526   5.508   0.500 -0.1422 -0.2744  0.0214
14731W        W32935   8.542  15.627   0.005  0.2124 -0.0007  0.2046
14732W        W32936   5.805   5.248   1.409  0.1673 -0.1333 -0.0066
14733W        W32937   7.861  14.689  15.040 -0.0805 -0.2607 -0.1271
14734W        W32938   8.843   0.228  12.176  0.1873 -0.0822  0.0069
14735W        W32939   0.895   3.817  15.445 -0.3174  0.0406  0.0856
14736W        W32940  13.498  13.962   3.212 -0.0228  0.1160  0.1349
14737W        W32941   5.447  11.976  17.169  0.0791  0.1914 -0.3205
14738W        W32942  13.930   5.063   2.817 -0.0889  0.0587  0.0471
14739W        W32943  14.309  10.575  15.263 -0.3165  0.1030 -0.0217
14740W        W32944   6.751  11.525  16.452  0.0400  0.2537  0.1669
14741W        W32945   1.041  15.565  14.423 -0.0246  0.0519  0.2277
14742W        W32946   8.505   7.180   2.400  0.2573  0.0650  0.4932
14743W        W32947   1.025  13.256   2.222  0.1165  0.2355 -0.1311
14744W        W32948   4.848  15.463   3.823 -0.0316  0.1817 -0.0659
14745W        W32949   8.852   6.740   0.018 -0.1590 -0.2704 -0.0294
14746W        W32950  16.244  11.756  13.150 -0.1146 -0.1827 -0.1907
14747W        W32951   7.217   1.953   0.958 -0.0582 -0.0710 -0.1810
14748W        W32952  16.537   9.185   0.157  0.1233 -0.0039 -0.2723
14749W        W32953   8.981  15.108  12.362 -0.1594 -0.0474 -0.2423
14750W        W32954   9.999   0.649   2.162  0.0740  0.0457  0.1488
14751W        W32955  11.633  14.194   5.356  0.0866  0.0559 -0.0089
14752W        W32956   9.807   2.885  13.225  0.1318  0.1427 -0.2560
14753W        W32957  10.582  16.423   2.122 -0.1137  0.1563 -0.1306
14754W        W32958  14.395   4.798  14.844 -0.1487  0.1900  0.0344
14755W        W32959  14.139   9.636   5.461 -0.3220 -0.2200  0.0154
14756W        W32960   1.707   1.928   1.316  0.1083  0.1885 -0.0265
14757W        W32961   8.130   0.364  17.518  0.0679 -0.0876 -0.1637
14758W        W32962  15.214   5.436  15.231 -0.0663 -0.0280 -0.1920
14759W        W32963  14.199   8.893   5.253 -0.0608 -0.1724 -0.1908
14760W        W32964  11.112  16.760   1.336  0.0509  0.2217 -0.0653
14761W        W32965  14.190  13.660   3.806 -0.2271  0.2088 -0.0425
14762W        W32966   3.316  17.189  12.239 -0.0116  0.1174  0.6003
14763W        W32967  13.992   9.033   3.253 -0.1980 -0.0427 -0.0013
14764W        W32968  10.273   4.252   4.069  0.0419 -0.2483  0.1255
14765W        W32969   0.647   3.846  17.335  0.1873  0.1682 -0.0285
14766W        W32970   1.982   6.000   5.365  0.0250  0.0350  0.0837
14767W        W32971  12.948   4.075  13.158  0.0979  0.0334 -0.0352
14768W        W32972   5.604   3.140  13.794 -0.1453 -0.1695  0.2470
14769W        W32973  11.510  13.437   2.403  0.1940 -0.0659  0.1315
14770W        W32974  16.364  10.015  13.867 -0.0398 -0.4157 -0.1391
14771W        W32975   2.270   7.780  12.898 -0.0845  0.3923 -0.1197
14772W        W32976  14.192   3.602  13.211  0.0115  0.3525  0.4082
14773W        W32977  16.937  10.636   1.655  0.2062 -0.0250  0.1341
14774W        W32978   1.359  15.512   5.459 -0.4902 -0.0622  0.2196
14775W        W32979   1.089   0.699   4.058 -0.0422  0.0625 -0.0890
14776W        W32980   2.581  14.017   1.310 -0.2194  0.1997 -0.4377
14777W        W32981  16.614  14.007   4.098  0.1782  0.0059  0.2464
14778W        W32982   5.957  15.160   5.474 -0.0461 -0.0660  0.1016
14779W        W32983   2.762  13.755  17.406 -0.2005 -0.0970  0.3570
14780W        W32984  15.712   7.870   5.149  0.1780  0.2876  0.0311
14781W        W32985   7.912  12.973   4.868 -0.1611  0.0832  0.0441
14782W        W32986   7.572  16.100   3.272  0.0031 -0.1988 -0.0970
14783W        W32987   7.120  12.549   3.875  0.0923 -0.0938 -0.1050
14784W        W32988  14.988  15.668  13.016 -0.0014 -0.0583 -0.0780
14785W        W32989   0.013  16.969  14.946  0.1388 -0.0937 -0.4767
14786W        W32990   0.938   0.503   1.798  0.2326  0.2094  0.1858
14787W        W32991  14.233  16.532   5.320 -0.3232 -0.2579  0.1034
14788W        W32992  15.326   9.396   3.782 -0.0018 -0.2145 -0.1379
14789W        W32993   6.228  11.759   4.954  0.1349 -0.1107  0.0054
14790W        W32994  12.182   6.898  16.528  0.0711 -0.3361  0.0021
14791W        W32995   9.495   0.703   2.648 -0.3442 -0.1281  0.0259
14792W        W32996  10.721   2.318   4.362 -0.0034  0.0454 -0.2340
14793W        W32997   8.653   0.792   2.808  0.0312 -0.0799 -0.0375
14794W        W32998   6.058   1.313   3.784  0.2011 -0.1489 -0.0829
14795W        W32999  12.973   6.453   0.250 -0.3459  0.0440 -0.0982
14796W        W33000  10.115   1.284   0.480 -0.1019 -0.0199 -0.0813
14797W        W33001   8.812   6.254   3.352 -0.3107  0.2714 -0.0815
14798W        W33002  15.917  15.302   3.632  0.0715 -0.0799  0.0644
14799W        W33003   2.098  13.236   3.130  0.0716  0.0365 -0.1173
14800W        W33004   3.793   9.875   2.073  0.1967 -0.1056  0.1067
14801W        W33005   9.832   7.648   2.828 -0.0387  0.1313 -0.0978
14802W        W33006   5.822   3.760  17.378  0.0140 -0.0149 -0.0018
14803W        W33007  10.850   4.762   0.999  0.3829  0.1755  0.2076
14804W        W33008   5.287   2.064   4.702 -0.0054 -0.1049 -0.0865
14805W        W33009   7.744   5.152   4.839 -0.1973  0.3116 -0.0284
14806W        W33010   2.834   4.590  13.846 -0.0688  0.1419 -0.2231
14807W        W33011  14.985   8.817  16.632  0.0085 -0.2306  0.2754
14808W        W33012   2.984   9.056  12.795 -0.0330  0.1627  0.0854
14809W        W33013   6.184  16.331  12.686 -0.1181 -0.1072  0.2978
14810W        W33014  12.721  14.649   1.095 -0.0902  0.1820 -0.2410
14811W        W33015  15.901  12.855  13.337 -0.4562  0.0825 -0.0320
14812W        W33016   7.929   4.591   3.920  0.0999  0.2208  0.2572
14813W        W33017   6.559   8.270  13.877  0.3931  0.2450  0.2436
14814W        W33018   8.146  12.497   1.204 -0.1316  0.2406 -0.0822
14815W        W33019   2.164   5.894  12.190  0.3910  0.0853  0.0645
14816W        W33020   3.484   7.659   2.428  0.1438  0.3333  0.1324
14817W        W33021   8.703   1.102  13.094 -0.0617  0.0977  0.2853
14818W        W33022  14.728   1.588   3.803  0.2916  0.1472  0.0288
14819W        W33023   3.943   7.352  12.562  0.3493 -0.0190 -0.1111
14820W        W33024  16.981  12.540   4.285  0.3691  0.1520  0.0979
14821W        W33025  12.091   7.749  12.933 -0.2086 -0.0839 -0.0527
14822W        W33026  12.061  16.033  13.076  0.0492  0.0316  0.0400
14823W        W33027  16.118  15.976   4.567  0.2668  0.2097  0.2537
14824W        W33028   0.794   3.689   1.999 -0.0709  0.0416 -0.1136
14825W        W33029  13.445   5.595   2.507 -0.3246  0.2504 -0.2572
14826W        W33030  11.750  14.386   0.238 -0.1001 -0.1474  0.0058
14827W        W33031  10.223  14.683   2.680  0.1669 -0.1236 -0.1027
14828W        W33032   9.659   4.574   3.340  0.0070  0.1365 -0.2282
14829W        W33033  12.046  16.282   3.500  0.2383  0.1909 -0.0524
14830W        W33034   1.960   1.180   4.658 -0.0425 -0.2245  0.2588
14831W        W33035   8.979   0.572   0.514  0.3479  0.0377  0.0298
14832W        W33036   8.324  15.015  14.970  0.1436 -0.2285 -0.0897
14833W        W33037   3.964   0.858   2.208  0.4631  0.1102 -0.0564
14834W        W33038   4.373  14.492  16.767 -0.1172  0.1161  0.1296
14835W        W33039   2.070   8.648   0.894 -0.1234  0.4918  0.0144
14836W        W33040   7.365   1.703   4.599  0.0456  0.1328 -0.1397
14837W        W33041  16.679  13.081   3.528  0.5182  0.1548 -0.2141
14838W        W33042  14.913   8.651   1.091  0.3039 -0.4537 -0.0460
14839W        W33043  16.073   9.794  11.995 -0.2542 -0.0004  0.0984
14840W        W33044  14.689   7.647   5.142 -0.1953  0.2639 -0.0556
14841W        W33045   3.809   1.045  13.193 -0.2117  0.1989 -0.0095
14842W        W33046  10.993   6.889   0.467 -0.0970  0.1337  0.0147
14843W        W33047   7.220  11.583   0.474  0.2439  0.0553 -0.1332
14844W        W33048  14.981  10.782   0.582  0.0503 -0.2099  0.0360
14845W        W33049   0.908   5.093   1.374 -0.2828 -0.1902  0.2074
14846W        W33050   5.518  10.857   3.879 -0.2071  0.0491  0.0324
14847W        W33051   8.149   6.303   1.598  0.0649  0.0094  0.0640
14848W        W33052   6.215  12.509   0.679  0.0886  0.4129  0.3252
14849W        W33053   3.944  16.800   4.458 -0.0208  0.0596 -0.2171
14850W        W33054   6.204   1.602  17.237 -0.2180 -0.0088 -0.4265
14851W        W33055   6.007  12.002  13.185 -0.0680 -0.1951  0.1763
14852W        W33056  13.064  16.172   3.237 -0.0603  0.0873  0.0374
14853W        W33057  11.319   5.809   3.981  0.2835 -0.1522  0.1579
14854W        W33058   7.162   8.215  13.027 -0.0014 -0.1857  0.0979
14855W        W33059   6.613   9.805   3.571 -0.1356  0.0347  0.1721
14856W        W33060   4.239   7.868   0.116 -0.0081  0.0506 -0.1528
14857W        W33061  12.850   9.855  13.740 -0.1649 -0.0554 -0.1770
14858W        W33062   5.491   8.661  14.802 -0.1270  0.0448  0.0008
14859W        W33063  15.078   3.764  16.744 -0.2979 -0.1377 -0.2517
14860W        W33064  10.843   0.160  11.769 -0.0103  0.0999  0.1679
14861W        W33065  14.594  14.453   4.169 -0.2208 -0.2003  0.1955
14862W        W33066   1.747   4.216   4.102 -0.1415  0.0084 -0.1496
14863W        W33067   5.374  12.773   5.641  0.0760  0.0561 -0.2563
14864W        W33068   5.292  11.291  12.192 -0.0120  0.2047 -0.1140
14865W        W33069  10.579   6.617  15.388 -0.0756 -0.1264 -0.1104
14866W        W33070  11.889   2.187   3.646 -0.2895 -0.1257 -0.1994
14867W        W33071   9.084   5.614  12.717  0.0664  0.0188  0.1022
14868W        W33072   0.507  12.086   1.325  0.0992 -0.0661 -0.1600
14869W        W33073   3.750  14.747   3.558 -0.1120 -0.1124 -0.4147
14870W        W33074  16.137   4.099  13.945  0.0223 -0.0013  0.0413
14871W        W33075  11.376   2.981   3.148 -0.4870 -0.1031  0.1725
14872W        W33076   2.532   2.948  15.109  0.0435  0.1171 -0.1936
14873W        W33077  13.204   6.343  15.405  0.2675 -0.3798 -0.3272
14874W        W33078   9.260  17.223   4.872 -0.2676 -0.3081 -0.2205
14875W        W33079   3.514   6.263   3.796  0.1450  0.1846 -0.0653
14876W        W33080  16.670   2.861  13.505  0.0871  0.0273 -0.2469
14877W        W33081  16.723   9.527   1.688 -0.1286 -0.0702  0.0656
14878W        W33082  16.299   5.722  12.476  0.0276 -0.0649 -0.1063
14879W        W33083  16.187   6.631  15.579  0.1187  0.0049 -0.0130
14880W        W33084  14.459  12.833  14.142 -0.0649 -0.2862  0.0920
14881W        W33085   8.597  10.163   0.612 -0.1008 -0.2840  0.2180
14882W        W33086  13.612  12.850   0.167  0.1172 -0.3264  0.2552
14883W        W33087   7.752   9.640   0.728  0.0282  0.2533  0.2288
14884W        W33088   3.124   9.341  12.404 -0.1565 -0.2058 -0.0084
14885W        W33089  16.200   9.607  14.302  0.1648  0.0380  0.0085
14886W        W33090  15.385  10.663  13.829  0.0512  0.1657 -0.1175
14887W        W33091   8.833   3.522   0.926 -0.0926 -0.1374  0.2546
14888W        W33092  13.944  16.123  13.777 -0.0691 -0.1605 -0.1206
14889W        W33093   0.075   3.697  15.270 -0.0210 -0.1483  0.1284
14890W        W33094   5.145   4.373   4.484 -0.1960 -0.1336 -0.1647
14891W        W33095   5.180   3.527   2.772  0.2045  0.0540 -0.2254
14892W        W33096   6.596   5.728  13.030 -0.0919  0.1986  0.0787
14893W        W33097   4.187  11.781  16.753  0.0950  0.0595  0.1368
14894W        W33098   4.023   6.544  13.384 -0.1256 -0.2743 -0.1387
14895W        W33099  11.517   3.260  15.780  0.1341 -0.0116  0.2938
14896W        W33100   3.697  16.763  15.035 -0.0193 -0.3774 -0.1742
14897W        W33101   4.998  10.031   0.730 -0.1838  0.0480  0.2457
14898W        W33102   0.278   2.131  15.422 -0.0379  0.2839  0.2828
14899W        W33103  12.410  16.164   4.235 -0.1572  0.1081 -0.3792
14900W        W33104  10.903  11.627   3.802  0.0216 -0.0641  0.0381
14901W        W33105   3.438   0.046  12.693  0.2369 -0.1076  0.0919
14902W        W33106  11.262  15.737   1.430  0.0497 -0.0969 -0.0840
14903W        W33107   2.678   9.671   3.193  0.0475 -0.1010 -0.1737
14904W        W33108   4.523  15.491   2.284  0.2797 -0.0715  0.2139
14905W        W33109   9.228   3.480  15.165  0.5424 -0.1864  0.0581
14906W        W33110  17.210   1.401   0.364  0.0623  0.0859  0.1273
14907W        W33111   7.828  15.262   1.697 -0.1229  0.1546 -0.0976
14908W        W33112  16.907  15.212   5.300  0.1681  0.1075 -0.0800
14909W        W33113  14.182   1.927  12.699  0.0061 -0.1834  0.3145
14910W        W33114  14.205  12.721   1.765 -0.4543  0.2363 -0.0614
14911W        W33115   6.402  13.186  17.347  0.0728  0.3747 -0.1687
14912W        W33116   2.587  15.572  13.806 -0.1341 -0.1910 -0.0936
14913W        W33117   3.545   5.456   5.213  0.2214  0.2087  0.0666
14914W        W33118   3.271   5.598   4.720 -0.2050  0.1780  0.0487
14915W        W33119   1.275   5.337  12.697 -0.0347  0.1175 -0.3341
14916W        W33120  16.930  12.938   4.004 -0.1335 -0.0950  0.0793
14917W        W33121  11.091   9.857  13.422 -0.1467 -0.1401  0.0164
14918W        W33122   9.470   0.675  15.968 -0.0379  0.1599 -0.3879
14919W        W33123   0.025   3.368  16.325  0.1436 -0.1092  0.0963
14920W        W33124   3.193   3.680  14.937  0.0866 -0.0880  0.2614
14921W        W33125  13.849   1.405   3.932  0.0980  0.1166 -0.1174
14922W        W33126   7.384   3.389   2.471  0.2380  0.0621  0.3675
14923W        W33127   8.498   1.746   2.824 -0.0795 -0.3481  0.1894
14924W        W33128  11.253  11.565  12.990  0.1858 -0.3380 -0.1935
14925W        W33129   3.185   2.802  17.253 -0.0262  0.1737 -0.1253
14926W        W33130   1.634  13.307  13.307 -0.3038 -0.0587 -0.0187
14927W        W33131  14.315   8.808   0.968 -0.2084 -0.0161 -0.2088
14928W        W33132   3.931   5.679   2.282  0.0290  0.2778 -0.1237
14929W        W33133   4.615   9.848  12.916  0.2076 -0.1278 -0.0756
14930W        W33134   7.181  16.398  16.535 -0.2418 -0.0869 -0.0480
14931W        W33135  14.956  12.517  17.117 -0.1524  0.0738  0.2151
14932W        W33136   9.513   9.617   2.853 -0.0064 -0.1106  0.0686
14933W        W33137   7.414   8.486  15.968 -0.0804 -0.1487  0.1211
14934W        W33138   2.024  14.830   1.005 -0.0983  0.1885 -0.2127
14935W        W33139   1.541  13.119   2.292  0.0972  0.1580 -0.1139
14936W        W33140   4.347   9.452   2.946 -0.1359  0.0857 -0.2327
14937W        W33141   8.941   1.598   3.644  0.0017  0.0572  0.4011
14938W        W33142   5.364   2.775   3.369  0.0222 -0.1648  0.0460
14939W        W33143  15.745   9.814   0.310 -0.0493  0.0117 -0.1243
14940W        W33144  12.212   0.538   2.857  0.0986  0.1211 -0.3479
14941W        W33145   2.507   1.156   2.357  0.1254  0.1256 -0.0631
14942W        W33146   2.046   3.126  13.267 -0.3253 -0.2240 -0.0520
14943W        W33147  13.287   4.417  12.829  0.1876 -0.3264 -0.2528
14944W        W33148   6.482  15.837  16.161 -0.0182 -0.0516 -0.1129
14945W        W33149   9.140  14.973  16.882  0.3282  0.0254  0.0027
14946W        W33150   6.116   9.162  17.239 -0.0489  0.0716 -0.1578
14947W        W33151   3.112  15.988  16.676 -0.0386  0.3579  0.1046
14948W        W33152   7.000   5.899  13.852 -0.4432 -0.1316 -0.0043
14949W        W33153  15.161   6.285   5.071 -0.1189  0.1805  0.4106
14950W        W33154   3.778   9.239   2.514 -0.1864 -0.1878  0.1971
14951W        W33155   1.760  12.336   3.365 -0.0898 -0.1612  0.0973
14952W        W33156  12.985   2.373   1.246 -0.0653 -0.3442  0.1752
14953W        W33157  13.598  11.849   2.014  0.1051 -0.3638  0.0633
14954W        W33158  15.152   4.898  15.105 -0.1293 -0.1658 -0.1082
14955W        W33159   9.057  14.676  14.472 -0.1917  0.1613  0.2541
14956W        W33160  16.383   5.218   2.898 -0.3128 -0.0010  0.0587
14957W        W33161   6.458   1.525  14.184 -0.3290 -0.2596 -0.0457
14958W        W33162   5.808  15.534   4.167  0.0521 -0.0343 -0.1815
14959W        W33163   2.030   0.136  16.677  0.0388 -0.1242  0.0561
14960W        W33164   0.908  10.728   2.288 -0.1711 -0.0025  0.0416
14961W        W33165   8.750   6.111  12.431 -0.0174  0.1461  0.0155
14962W        W33166   6.392   8.270   1.746  0.1185 -0.0241  0.0503
14963W        W33167   4.033   9.046   5.469 -0.1389  0.1671  0.1171
14964W        W33168   2.475  10.162  14.836  0.4003 -0.1400 -0.0800
14965W        W33169  11.071   2.992  14.008 -0.0030  0.2099  0.0445
14966W        W33170  16.141   8.427   1.508  0.0032 -0.1685  0.1606
14967W        W33171   7.477   1.730  16.036 -0.0568 -0.2831  0.2604
14968W        W33172   5.975   8.860   2.275 -0.1191 -0.1440  0.0193
14969W        W33173   6.794  12.564   0.137  0.0651 -0.0526 -0.0389
14970W        W33174   6.322   3.857   1.364 -0.1565  0.1055  0.0207
14971W        W33175  14.519  10.715   2.811  0.1627 -0.0024  0.0759
14972W        W33176   3.698  12.822   2.462  0.0952 -0.2177  0.3651
14973W        W33177  16.493   2.970  14.058  0.0558  0.1689 -0.0122
14974W        W33178  13.572  10.661  14.837 -0.3333 -0.1411 -0.0634
14975W        W33179  16.768  14.276  15.283 -0.0759  0.2771  0.0898
14976W        W33180   6.322  12.609   3.357 -0.1652 -0.1175  0.0212
14977W        W33181  14.033   1.628  16.556 -0.0916  0.3583 -0.1256
14978W        W33182  13.031   4.968  13.142  0.1745 -0.1383 -0.1075
14979W        W33183   1.468   7.439   2.892 -0.2398 -0.0211 -0.1777
14980W        W33184   1.932  16.537   2.913  0.3126  0.0337 -0.2361
14981W        W33185   0.290  13.439   1.857 -0.1553  0.0550 -0.1651
14982W        W33186   2.239  12.250  17.293  0.2328 -0.3491 -0.0456
14983W        W33187  10.934  11.160   5.409  0.0435  0.1711 -0.1895
14984W        W33188  10.204  11.373   4.183 -0.0554  0.2039 -0.0397
14985W        W33189   1.605   6.093  15.348 -0.2347  0.4105  0.0190
14986W        W33190   1.045  12.285   2.849 -0.1823 -0.1227 -0.0279
14987W        W33191  16.885   2.598   1.511  0.0023  0.0152  0.0292
14988W        W33192   9.386   6.959   3.817 -0.0217 -0.0687  0.0446
14989W        W33193  14.003  12.717  16.926  0.1620 -0.0041 -0.2350
14990W        W33194  10.005   0.182  15.122 -0.0274  0.0278 -0.0017
14991W        W33195  14.472  11.339  12.689  0.0805  0.0206 -0.2238
14992W        W33196  17.030  10.824   4.591 -0.0420  0.0065 -0.0531
14993W        W33197  16.434  12.946   4.926 -0.0317 -0.0122  0.0264
14994W        W33198  12.349  15.702   5.441 -0.2382 -0.2128  0.1507
14995W        W33199   0.082   8.501   1.713  0.1479  0.1421  0.0664
14996W        W33200   1.826  15.584  15.182 -0.1408  0.0576  0.0054
14997W        W33201  13.924  14.185   4.929  0.1631  0.0858 -0.1438
14998W        W33202   0.752  10.279   4.058 -0.0451  0.0459  0.0607
14999W        W33203   7.075   7.406  12.503 -0.1542 -0.1386 -0.0398
15000W        W33204   7.657   8.747   3.362  0.0101 -0.1303 -0.0158
15001W        W33205   2.004  12.347   2.321  0.0015 -0.2910  0.0234
15002W        W33206   3.308  10.767  15.742 -0.3137  0.0866  0.1354
15003W        W33207   5.409  10.083  15.480 -0.0532  0.0962  0.0835
15004W        W33208   0.659  12.132   0.183  0.1091 -0.2634  0.1438
15005W        W33209   4.677   2.351  12.095  0.1918 -0.0061 -0.3994
15006W        W33210  14.721   3.427  16.524 -0.4984 -0.0075  0.0783
15007W        W33211   9.370   2.269  16.195 -0.2369 -0.0521  0.1804
15008W        W33212   5.960   5.425  13.070 -0.1101  0.1694 -0.1227
15009W        W33213  16.797  11.562  14.275 -0.2690 -0.1225  0.1753
15010W        W33214   2.458   1.861  15.017  0.0450  0.0621 -0.4768
15011W        W33215   8.595  14.016   3.337  0.0935  0.1538 -0.0816
15012W        W33216   2.742  13.006  13.255  0.0378 -0.1531  0.3127
15013W        W33217  14.435  13.186  17.200 -0.3984 -0.1594 -0.1791
15014W        W33218   0.200  14.661  14.695  0.2198 -0.0678  0.2947
15015W        W33219   6.488  10.513  16.877  0.1665  0.2194 -0.1009
15016W        W33220   5.211   7.721   1.218  0.0040 -0.4983 -0.1937
15017W        W33221  13.269   8.548   0.349  0.0971  0.1092  0.1192
15018W        W33222  12.849   2.474  15.873 -0.0188  0.0513 -0.1253
15019W        W33223   5.504  12.286  16.065 -0.2104  0.1245  0.3464
15020W        W33224   8.734   8.574   4.932  0.0486 -0.2551  0.3693
15021W        W33225  13.739   9.127  12.427 -0.0571  0.1008  0.4278
15022W        W33226  15.237   4.279  16.641 -0.1963  0.0173 -0.0132
15023W        W33227  10.640   8.114   2.621  0.0343 -0.0334 -0.1777
15024W        W33228   4.987   7.112  12.025  0.0483 -0.0327  0.2458
15025W        W33229   5.327   5.261  12.060 -0.4718  0.3117  0.0645
15026W        W33230  16.420  15.310   1.804 -0.2956  0.0278  0.2258
15027W        W33231  14.783   8.210  14.104  0.0833 -0.1019  0.2641
15028W        W33232  10.159  16.565   2.319  0.0529 -0.1179  0.1460
15029W        W33233  13.510   7.304  14.280 -0.0184 -0.0365  0.1024
15030W        W33234   3.796   7.612   5.358  0.2872 -0.0243 -0.0385
15031W        W33235  11.488   7.595   3.655  0.0642 -0.0023 -0.3129
15032W        W33236   5.666  15.291   1.159  0.1235 -0.0154 -0.3266
15033W        W33237  11.518   0.243  14.481  0.3285  0.2033 -0.2795
15034W        W33238   6.902  14.688   2.875  0.0189  0.2162 -0.1725
15035W        W33239   0.757   0.981   0.308 -0.3664  0.1725 -0.3900
15036W        W33240   6.275  12.949  12.706 -0.1461 -0.1437  0.0385
15037W        W33241   7.219  11.113  15.025 -0.0538 -0.0833 -0.2419
15038W        W33242   6.608   0.016  15.161  0.1165 -0.3584 -0.0311
15039W        W33243   4.446   0.439   1.161  0.2027 -0.1368  0.1348
15040W        W33244   7.402  13.587  13.755  0.0353  0.0633  0.2605
15041W        W33245   4.574  10.534  14.544  0.3679 -0.0239  0.1283
15042W        W33246   2.963   5.333   1.983  0.1787  0.0139  0.2950
15043W        W33247   6.836  13.354   4.473  0.3857 -0.2716 -0.3534
15044W        W33248  12.837   3.209   2.142 -0.0332  0.0203  0.0007
15045W        W33249  12.047  11.097   2.483  0.0284  0.2509 -0.0532
15046W        W33250  11.713  11.855   4.037 -0.2517  0.1742  0.0310
15047W        W33251  11.684   3.374   1.754  0.1297 -0.2395 -0.2401
15048W        W33252   6.777  12.653   2.192 -0.2318  0.0438  0.0973
15049W        W33253   0.721  14.793  14.772  0.0614 -0.3019 -0.0560
15050W        W33254  10.805  13.097   1.245 -0.0320 -0.1187 -0.2401
15051W        W33255   1.186  11.196  15.430 -0.2907 -0.0820 -0.3088
15052W        W33256   5.307  10.351  15.080  0.4248 -0.2687  0.0812
15053W        W33257  14.315   7.857  13.129 -0.2998  0.0663 -0.1484
15054W        W33258  16.517   7.135   2.611  0.1880  0.0982  0.1074
15055W        W33259   1.085  13.152   0.978  0.0491 -0.1221  0.1075
15056W        W33260  16.800   5.337   4.260 -0.0147 -0.1540 -0.3549
15057W        W33261  16.603   8.559   1.327  0.2413 -0.2265  0.1824
15058W        W33262   0.841  10.732   3.962  0.0199  0.1409 -0.1678
15059W        W33263   9.746   4.413   1.555  0.0303  0.0648 -0.1765
15060W        W33264   6.481  16.267   2.871 -0.0392  0.0939 -0.1299
15061W        W33265   7.303   6.149  11.656  0.1709  0.2134 -0.0900
15062W        W33266  17.031  13.900  14.043  0.1290 -0.0302 -0.2743
15063W        W33267  15.917  13.725   1.937 -0.1710 -0.0378 -0.0268
15064W        W33268   8.600   6.307   1.755  0.0414  0.0930 -0.1766
15065W        W33269   5.038  13.644   2.726 -0.0783 -0.0411 -0.2515
15066W        W33270   5.517   1.753   4.379 -0.3029 -0.1368 -0.2985
15067W        W33271  12.131  10.927  14.712 -0.1325  0.2680  0.0155
15068W        W33272   0.608   6.010  14.970 -0.2281  0.1795  0.0076
15069W        W33273   6.122  16.865  15.674  0.3795  0.0967  0.0846
15070W        W33274   2.188  10.187  17.356  0.1061 -0.0192 -0.0535
15071W        W33275   5.583   5.114  15.400  0.1165  0.0936  0.0778
15072W        W33276  14.110   8.245   0.844 -0.2414 -0.2764 -0.1392
15073W        W33277  15.309   2.026  16.588  0.1204  0.0392 -0.2614
15074W        W33278  10.297  13.419  13.969  0.0822  0.0844  0.0454
15075W        W33279   2.948  15.691  12.861  0.1067  0.1303 -0.0310
15076W        W33280  10.117   4.752   4.183  0.1506  0.0131  0.1962
15077W        W33281  16.384   0.854  14.058 -0.0581 -0.2772 -0.1679
15078W        W33282  17.154   8.279  12.400  0.2380  0.0219  0.1361
15079W        W33283   5.676   0.743  13.823  0.1023  0.2787 -0.3144
15080W        W33284  11.334   8.048   3.532 -0.0265 -0.2213 -0.2241
15081W        W33285   8.938   1.906  15.903 -0.1213 -0.0920 -0.0452
15082W        W33286  12.781   5.812   2.447 -0.1010  0.0103 -0.2063
15083W        W33287   5.099   9.273  14.065  0.2472 -0.0794 -0.0390
15084W        W33288  12.474   6.143   4.280  0.0638  0.1480 -0.2610
15085W        W33289   6.718   9.500  15.129 -0.1498  0.1070  0.2459
15086W        W33290  15.924  10.747  17.257  0.1919 -0.2494  0.5069
15087W        W33291   0.031   7.883   0.943  0.1037 -0.1034  0.0269
15088W        W33292  10.607   4.308  12.507  0.1164  0.2814 -0.0136
15089W        W33293   4.777   8.842  14.412  0.0763 -0.4686  0.3182
15090W        W33294   2.879   5.976  12.215  0.0114 -0.0661 -0.0534
15091W        W33295   1.825   3.980   3.677  0.0592  0.1829 -0.3491
15092W        W33296   9.761   8.334   3.742 -0.2811  0.0866  0.2379
15093W        W33297  14.181  16.121  15.110 -0.3002  0.1771 -0.1712
15094W        W33298  17.329  16.283  17.186 -0.1123 -0.2203  0.0657
15095W        W33299   8.790  15.218   1.579 -0.0679  0.0722 -0.1308
15096W        W33300   2.311   7.959   5.375  0.1232  0.0561 -0.0574
15097W        W33301   7.787  10.859  15.279  0.1810  0.1846  0.0917
15098W        W33302  17.341   4.842  17.442 -0.2263  0.1966 -0.3487
15099W        W33303  10.476   6.555   2.700  0.0641 -0.1389  0.1689
15100W        W33304   6.267   9.799  16.400 -0.0824  0.0136 -0.1620
15101W        W33305  17.272  16.429  15.310  0.0825  0.2504 -0.0215
15102W        W33306  16.360   2.634   3.141  0.0504 -0.2621 -0.1512
15103W        W33307  17.013  10.316   2.185  0.0350  0.0678 -0.1631
15104W        W33308   8.195  12.075  14.718  0.1351 -0.0345 -0.0896
15105W        W33309   6.823   2.661   3.699 -0.1439 -0.1084  0.0258
15106W        W33310  13.577   1.322  16.245 -0.3370 -0.1964 -0.1474
15107W        W33311  11.188  11.907   0.213 -0.2781 -0.0261  0.2075
15108W        W33312   1.977  11.145   3.185 -0.0993  0.0056  0.0920
15109W        W33313   5.289   3.952   1.470 -0.2031 -0.0388  0.1624
15110W        W33314   5.467   7.213   0.906  0.1759 -0.0096  0.0754
15111W        W33315   7.816   1.827   0.184 -0.1006  0.2202  0.1738
15112W        W33316   0.442   2.755   2.693 -0.0277  0.2321  0.1218
15113W        W33317  10.920  15.189   1.476 -0.0594  0.0345  0.2103
15114W        W33318   4.023   8.166  14.409  0.1072  0.1166  0.0807
15115W        W33319  17.096  10.513   0.387  0.4105 -0.0067  0.1331
15116W        W33320  12.823  14.566  13.859 -0.1070  0.0250  0.1772
15117W        W33321   5.084   0.264  12.681 -0.0247 -0.3264 -0.2935
15118W        W33322   2.851  11.085   4.617 -0.1762 -0.2182  0.1104
15119W        W33323  16.936  11.783   2.648 -0.3240  0.0655  0.1595
15120W        W33324   7.738   9.896  16.466 -0.1296  0.2391  0.3153
15121W        W33325   5.203   8.984  13.527  0.2108  0.1483  0.0814
15122W        W33326  14.628   9.268   4.188  0.1151 -0.0199  0.0123
15123W        W33327  15.032   0.002   3.097  0.0610 -0.1989 -0.1501
15124W        W33328  13.565  14.848  13.472  0.2545  0.0849  0.0211
15125W        W33329   5.812   9.472  15.060 -0.0576 -0.0504 -0.1981
15126W        W33330  15.342  11.407   1.275  0.1743  0.4656  0.0955
15127W        W33331   2.514   3.366  11.626 -0.5268  0.0079 -0.1423
15128W        W33332   9.545  13.616   2.180 -0.3278  0.1407  0.3820
15129W        W33333  14.511   4.591  13.367  0.3211  0.0513 -0.0325
15130W        W33334   3.636  10.246  13.681 -0.0723  0.0806 -0.1020
15131W        W33335   2.383   1.697   0.096 -0.0508  0.0023 -0.2128
15132W        W33336   4.087  16.833   3.891 -0.0973  0.1452  0.2123
15133W        W33337   6.898   2.611   4.553 -0.0395  0.3890  0.1669
15134W        W33338  13.801  10.836  12.007 -0.0851 -0.4709  0.0104
15135W        W33339   8.233   6.117   3.627 -0.1772 -0.2246  0.0477
15136W        W33340   7.769   1.538  12.616  0.0956  0.0123 -0.1333
15137W        W33341  14.822   1.245   5.347  0.1050 -0.0965  0.0351
15138W        W33342   3.885  15.654   1.084 -0.0070 -0.0170 -0.0504
15139W        W33343  13.517  10.740  17.098 -0.0267  0.1300  0.1519
15140W        W33344   9.333  12.212   1.455 -0.3529 -0.0938  0.1035
15141W        W33345   1.807  14.898  12.271  0.1033  0.0079  0.4306
15142W        W33346  11.163  14.665  15.857 -0.0493  0.0240  0.0442
15143W        W33347   7.163   6.609   0.692  0.0394  0.1720 -0.0764
15144W        W33348   3.883  13.477  13.224  0.1508  0.2243 -0.0091
15145W        W33349  16.625  14.358   2.611  0.3964 -0.0360 -0.0245
15146W        W33350   3.427  17.080   5.562  0.0444  0.0631 -0.3234
15147W        W33351   7.820   2.324   0.208 -0.0019 -0.1891  0.0166
15148W        W33352  14.064   6.297  15.236  0.2524 -0.2472 -0.0899
15149W        W33353  14.044   0.273  13.945 -0.1416  0.0157  0.2179
15150W        W33354  13.192   0.357  13.204 -0.0928 -0.0930  0.0349
15151W        W33355  11.794   6.787  15.113  0.1005 -0.2622 -0.1104
15152W        W33356   8.462   4.055  14.022 -0.1809  0.0449  0.1699
15153W        W33357  11.680  12.380   4.155 -0.1949 -0.2481  0.2616
15154W        W33358   1.097  15.275  13.535 -0.2062  0.0524  0.0347
15155W        W33359  11.002  15.671   5.302  0.1722 -0.0531  0.1688
15156W        W33360   4.458   8.377  15.864 -0.4270  0.0069 -0.1964
15157W        W33361   1.829   8.490   6.186 -0.1141  0.2364 -0.0514
15158W        W33362  14.773  12.025   2.462  0.2570 -0.0770 -0.0701
15159W        W33363  15.035   0.495  15.519  0.2336  0.0604 -0.4871
15160W        W33364   1.639   0.687  14.962 -0.1685 -0.2134 -0.1284
15161W        W33365   9.172   3.418  16.086 -0.0077 -0.1054 -0.0858
15162W        W33366   6.308   9.785  15.548 -0.0563  0.1470  0.0113
15163W        W33367  12.948   3.547   2.467 -0.2558  0.0893 -0.1007
15164W        W33368  12.934   3.915   2.899  0.2129  0.1999 -0.2347
15165W        W33369  11.026   8.434   2.624 -0.1891 -0.0607  0.0316
15166W        W33370   6.242  15.682   4.661 -0.0592 -0.1091  0.0829
15167W        W33371   9.885   7.967   3.357 -0.0986  0.0275 -0.1468
15168W        W33372  11.173  14.469   4.463  0.1682 -0.2187 -0.1364
15169W        W33373   1.080   4.072   2.831  0.0749 -0.4313 -0.1318
15170W        W33374  15.626  10.412   5.668 -0.1244  0.0330  0.1040
15171W        W33375   2.155   6.998   1.505  0.5361  0.2119 -0.2274
15172W        W33376  10.053  14.031  12.249 -0.2543 -0.0965 -0.0757
15173W        W33377  13.759  15.065   0.706 -0.0406 -0.2378  0.0105
15174W        W33378  11.869   1.661  15.331 -0.0049 -0.0160 -0.1964
15175W        W33379  17.226  12.964   2.081 -0.2407  0.0985 -0.2100
15176W        W33380   4.081   3.413  16.411  0.1320  0.3652  0.2223
15177W        W33381   8.562  13.941   1.293  0.5059 -0.0553 -0.0903
15178W        W33382   5.909   9.346   5.531 -0.1047 -0.0617  0.1995
15179W        W33383   4.930   8.550   2.034  0.0984 -0.1958  0.0261
15180W        W33384   6.120   3.376  13.050  0.1848 -0.2043 -0.2634
15181W        W33385  14.404   8.456   2.667 -0.0168  0.0775  0.1665
15182W        W33386  10.863   0.170   3.711  0.0588  0.0356  0.0085
15183W        W33387   5.228   2.330  15.235  0.3340  0.0753 -0.1149
15184W        W33388  10.354   3.707  15.645  0.1826  0.1905  0.1250
15185W        W33389   5.969   5.980  12.485  0.0221 -0.1250 -0.0674
15186W        W33390  15.188   5.692  16.848  0.1161  0.0925  0.1616
15187W        W33391  15.111   7.148  14.059  0.4070 -0.0827  0.0509
15188W        W33392   7.525   4.337   4.119  0.1468  0.1328 -0.1252
15189W        W33393   1.525   9.717   2.670 -0.0424  0.0349  0.0113
15190W        W33394   9.370   4.808  15.103  0.1476 -0.0761 -0.1971
15191W        W33395   9.336  15.969  14.628 -0.0933  0.2827 -0.0238
15192W        W33396   3.916  14.632   0.730 -0.3444  0.4145  0.1383
15193W        W33397   6.414   0.127  14.193 -0.1233 -0.1821 -0.1662
15194W        W33398   8.364   9.407   3.836 -0.0652  0.1944 -0.0318
15195W        W33399   7.525   8.334   0.254 -0.2296 -0.1536  0.0474
15196W        W33400   8.593   0.719  17.486  0.1365  0.1711 -0.0449
15197W        W33401  15.606  16.402   5.708  0.1291  0.2187 -0.1588
15198W        W33402  13.662  10.107   3.714  0.1296 -0.0834  0.0505
15199W        W33403  10.042   0.699  12.494  0.1701  0.0548 -0.0667
15200W        W33404   8.193  14.369   0.771  0.2474  0.0483 -0.3885
15201W        W33405   7.536   3.509  13.995 -0.0256 -0.3230  0.2089
15202W        W33406  10.152  10.710   2.217  0.4143  0.1490  0.0904
15203W        W33407  17.087   8.528  14.344 -0.1470  0.1074 -0.2026
15204W        W33408   7.176   2.641  17.110 -0.0077  0.0500 -0.0698
15205W        W33409   2.289   9.351  17.382 -0.1235  0.3988  0.1958
15206W        W33410   7.756   9.363   2.051 -0.2067  0.0823  0.1873
15207W        W33411  11.006   4.013  14.199 -0.3777  0.1469  0.0551
15208W        W33412  13.693   9.729   5.212  0.1603  0.3199  0.1628
15209W        W33413  14.470  16.595   0.069  0.0891 -0.0604 -0.0569
15210W        W33414  10.846  15.575  15.032  0.3223  0.0480 -0.0093
15211W        W33415  12.591   1.175  16.047  0.0018  0.2259  0.2137
15212W        W33416  12.691  15.954   1.822  0.0890  0.1684 -0.3496
15213W        W33417   4.686   8.029   3.142 -0.2527  0.2164  0.6936
15214W        W33418  13.922   3.730   5.132 -0.1868  0.0380  0.0566
15215W        W33419   6.848   6.023   3.169 -0.0133 -0.1378  0.0214
15216W        W33420   6.652  13.001  12.396  0.0947  0.1755  0.0306
15217W        W33421   7.010   3.133   4.005  0.1095 -0.2839 -0.0104
15218W        W33422  11.568  10.175  14.567 -0.0622  0.1061  0.0096
15219W        W33423   7.929   6.943  16.966  0.1485  0.0287 -0.0067
15220W        W33424  15.444  12.543  16.875  0.1691 -0.0951 -0.3998
15221W        W33425   8.319  13.491   4.836 -0.1348 -0.2175 -0.1769
15222W        W33426   2.186   0.751   1.974 -0.2912  0.0404  0.0698
15223W        W33427  13.540  16.739  14.877  0.2236  0.2150  0.1476
15224W        W33428  13.948   0.845   5.042 -0.1703  0.2786 -0.0543
15225W        W33429   2.704   6.885   1.290 -0.2015 -0.1392 -0.0647
15226W        W33430   6.733  11.059  15.094  0.0589 -0.5046 -0.1412
15227W        W33431   4.532   2.484   0.230 -0.0296  0.0807  0.0703
15228W        W33432  11.085   9.812  14.848  0.1562  0.4073 -0.0623
15229W        W33433  10.285  17.072   2.193 -0.1802  0.2259 -0.1517
15230W        W33434  12.470   8.664  14.668 -0.0714  0.0274 -0.0726
15231W        W33435   4.092  13.547  15.602 -0.1742 -0.1835 -0.0026
15232W        W33436  13.857   9.473  12.060  0.1176  0.0113  0.1289
15233W        W33437  13.906   4.939  12.739 -0.0869 -0.1907  0.1837
15234W        W33438  11.963   8.176   1.136 -0.1303 -0.0795 -0.0654
15235W        W33439   6.677   0.050  14.620 -0.1115  0.1300  0.0038
15236W        W33440   4.850  14.628  16.945  0.0328  0.0572  0.2852
15237W        W33441   7.288  16.588   1.273 -0.1268 -0.0926 -0.0303
15238W        W33442  10.498   0.905   0.597  0.0914 -0.0278  0.1042
15239W        W33443   3.835  15.137  12.836 -0.2878 -0.0441 -0.3427
15240W        W33444   7.675  11.654   1.539  0.2024 -0.1585  0.0450
15241W        W33445   9.986  11.355   2.916 -0.3589  0.0988  0.0257
15242W        W33446   9.579   6.607   2.966 -0.0165  0.1420 -0.1507
15243W        W33447   5.401  17.184  14.196 -0.3611 -0.1265 -0.1295
15244W        W33448  11.480   8.615   3.454 -0.2025 -0.2831  0.1146
15245W        W33449  10.899  10.637   4.198 -0.0877 -0.2354  0.0320
15246W        W33450  15.110  14.229   3.806  0.2062  0.1620  0.0532
15247W        W33451  15.225   5.928   4.616 -0.1726  0.0151 -0.1480
15248W        W33452  15.404  14.270  15.058 -0.1325 -0.1105 -0.0678
15249W        W33453  12.451   0.955  17.020  0.2556 -0.0595  0.3514
15250W        W33454   5.343  16.026  12.482 -0.3512  0.0372  0.0994
15251W        W33455   6.397   4.442  11.277 -0.1777  0.0137 -0.1424
15252W        W33456  16.472   7.356   0.103  0.2013 -0.0006 -0.0834
15253W        W33457  11.537  11.561   0.410  0.0592 -0.2894  0.2370
15254W        W33458  11.480   8.370   1.346 -0.1386 -0.1902  0.3104
15255W        W33459  11.014   5.494  11.965 -0.2938  0.0546  0.1888
15256W        W33460  17.221   9.183   0.767 -0.1293  0.0702 -0.5013
15257W        W33461  16.040   5.161  13.399  0.0707  0.0556 -0.0310
15258W        W33462  14.277   1.049   3.134  0.0364  0.1031  0.1532
15259W        W33463  16.178   4.098   0.872 -0.0922  0.0385 -0.2233
15260W        W33464   8.889   4.693   4.002 -0.2459  0.0057  0.3238
15261W        W33465   5.461   0.300   0.932 -0.0807 -0.0580 -0.3176
15262W        W33466  11.392  16.693   4.051 -0.1146 -0.0430 -0.1091
15263W        W33467  15.261  14.276  16.671 -0.1452  0.0176  0.1059
15264W        W33468   6.422   9.363   3.789 -0.0383  0.2435  0.1209
15265W        W33469  15.725   7.262  14.054  0.1508  0.0330  0.0615
15266W        W33470  11.276  15.061  12.319  0.2498 -0.1141  0.0071
15267W        W33471  10.378   1.678  12.686 -0.1094 -0.0463  0.2244
15268W        W33472  12.436   4.161  13.141  0.0463 -0.0347 -0.0197
15269W        W33473   7.157  13.560   2.398 -0.0998  0.1197 -0.1394
15270W        W33474  11.650  14.880   0.401  0.3550 -0.0572 -0.0398
15271W        W33475   9.803  10.005   2.795  0.0436 -0.2334  0.1297
15272W        W33476  10.727   5.363  17.130 -0.3918  0.1626  0.1119
15273W        W33477  14.300   6.525   3.861  0.0775  0.0381  0.3607
15274W        W33478   8.690   7.875  13.400  0.0885  0.0870 -0.1022
15275W        W33479  13.595  16.030   5.457 -0.3706 -0.0856  0.2444
15276W        W33480  11.839  14.209  15.890 -0.1075  0.1931  0.1016
15277W        W33481   9.830  16.910   1.857 -0.0594  0.1369  0.0029
15278W        W33482  16.789  17.115  14.927  0.2068 -0.1401 -0.1483
15279W        W33483   1.749  12.620  15.474  0.0352 -0.2470 -0.1216
15280W        W33484  15.652   9.212  16.041 -0.1435 -0.3165  0.0808
15281W        W33485   8.670  14.805   4.527  0.1316 -0.1820  0.1548
15282W        W33486  11.938  16.642  15.447 -0.2353 -0.1198  0.2308
15283W        W33487   7.166   7.414  16.977 -0.1347 -0.1927  0.0873
15284W        W33488   1.174   3.599  12.697 -0.3379  0.1302  0.1946
15285W        W33489  16.149   0.239   2.157 -0.1678 -0.2242  0.2379
15286W        W33490   5.150  12.601   0.996  0.3767  0.0102  0.0198
15287W        W33491  15.411  10.977   2.162  0.0184 -0.0994 -0.0840
15288W        W33492   9.732  14.631   3.952  0.0183  0.1999 -0.1980
15289W        W33493  10.590  17.135   2.845  0.0601  0.3045 -0.0443
15290W        W33494   6.999  12.503  17.224  0.0218 -0.1182  0.0172
15291W        W33495  14.261   9.022  14.035 -0.0619  0.0524  0.1177
15292W        W33496   1.824   7.010  15.037 -0.4976 -0.0864  0.2460
15293W        W33497   9.538   5.388  17.189  0.2024 -0.1533  0.2982
15294W        W33498  13.480   2.767  13.454  0.1353 -0.1643 -0.2184
15295W        W33499  11.967  15.181  13.642  0.0729 -0.0757  0.2640
15296W        W33500   0.606  13.564  15.508  0.3061 -0.2037  0.0326
15297W        W33501   8.860  13.350   0.158  0.1242  0.0484  0.2211
15298W        W33502  10.259  11.066  13.757  0.0028  0.2851 -0.3395
15299W        W33503  12.026   7.792  15.158 -0.0591 -0.2964 -0.0826
15300W        W33504   6.453   5.008   4.496  0.0367  0.1080  0.0547
15301W        W33505  10.673   8.604   3.932 -0.0052  0.2508  0.4161
15302W        W33506  15.752  11.821   3.332  0.0154  0.0647 -0.2631
15303W        W33507  11.355  10.428   1.761 -0.3961 -0.1105 -0.0614
15304W        W33508   1.455  17.327   4.998 -0.0210  0.0824 -0.0425
15305W        W33509  13.512  14.238   5.253 -0.1877  0.2359  0.0893
15306W        W33510   7.594   5.971  17.030 -0.1074 -0.3902  0.2501
15307W        W33511  10.461   7.498  13.550  0.0786 -0.1436 -0.2442
15308W        W33512   3.957  15.832  14.915  0.0850  0.4159  0.0945
15309W        W33513  13.056  12.534   5.703  0.0036  0.1262 -0.4029
15310W        W33514   9.475   4.092   6.348 -0.2802  0.1239  0.1582
15311W        W33515  11.897   6.288   2.888  0.3445  0.1056 -0.0168
15312W        W33516  14.561  10.583  13.665  0.0394 -0.1814 -0.1901
15313W        W33517   3.166  13.529  15.753 -0.0686  0.1793  0.2790
15314W        W33518   2.006   9.207   2.030  0.0064 -0.0889 -0.1876
15315W        W33519   7.305   8.287  14.496  0.2079 -0.1711 -0.1218
15316W        W33520  15.433  10.963  15.164 -0.1755  0.1362 -0.0559
15317W        W33521   0.773  10.274  14.980  0.1222 -0.1450  0.0701
15318W        W33522  12.356   4.049  14.928 -0.0026  0.0229 -0.2185
15319W        W33523   6.919  16.833  15.272  0.0949  0.1117 -0.1875
15320W        W33524   5.945  11.544  16.463 -0.1820  0.1828  0.4512
15321W        W33525   2.240  12.884  12.701  0.1502  0.1397 -0.0808
15322W        W33526   5.630  16.131  15.065  0.2581 -0.2728 -0.2146
15323W        W33527  16.885   1.621   4.740 -0.1054 -0.2564  0.0083
15324W        W33528  17.259  10.282  12.586 -0.1662  0.3078  0.0414
15325W        W33529   8.682  10.855  15.781  0.1521 -0.0793  0.2907
15326W        W33530  12.057   2.147   0.829  0.1454  0.3799 -0.1853
15327W        W33531   8.331   6.471   0.631  0.2480 -0.3347  0.1576
15328W        W33532   6.096   2.474  15.723 -0.3155 -0.1437 -0.2656
15329W        W33533   9.718  10.220   6.156  0.0249  0.1222  0.2711
15330W        W33534   4.087   9.634  11.742 -0.0827  0.0411 -0.1518
15331W        W33535   2.378   7.704  14.930 -0.0909 -0.0110 -0.1685
15332W        W33536  16.415   5.069   2.355  0.0183 -0.0051  0.2243
15333W        W33537   4.265   6.425   2.676  0.0496 -0.1145  0.0100
15334W        W33538   9.834  16.238  13.924 -0.2075 -0.0739 -0.3784
15335W        W33539   7.064   7.779  14.801  0.2068 -0.2179  0.2300
15336W        W33540   0.182   3.244  13.500 -0.0319  0.3361  0.2528
15337W        W33541  15.756   3.548   1.724 -0.0990  0.0789 -0.2146
15338W        W33542   8.482   0.023  17.314 -0.0781  0.2058  0.0582
15339W        W33543  11.801  14.673  11.579 -0.2073 -0.0630 -0.0051
15340W        W33544   1.908  10.516  12.811  0.1576  0.4380  0.3224
15341W        W33545  14.777   5.116   5.526 -0.0216  0.0053 -0.3870
15342W        W33546  17.004  11.866   1.381  0.1204 -0.0481  0.0237
15343W        W33547   8.610  15.680   1.872  0.0571 -0.2625 -0.0013
15344W        W33548   8.202  13.091  15.530 -0.0255 -0.0101  0.3624
15345W        W33549   7.018  10.871  14.233 -0.1801 -0.2748 -0.1562
15346W        W33550   3.593   2.778   4.795  0.3482 -0.2189  0.2652
15347W        W33551  12.200  14.295   3.689  0.1599  0.1154  0.0336
15348W        W33552   2.764   1.062  16.687 -0.1225  0.1135  0.1567
15349W        W33553   5.564  14.528   0.644 -0.1206 -0.0043 -0.1475
15350W        W33554   0.598   1.828  17.367  0.0475  0.1983 -0.0573
15351W        W33555   1.917   0.275   0.072 -0.0912 -0.0418 -0.0127
15352W        W33556   1.492   3.933  14.994  0.1008 -0.0029  0.1362
15353W        W33557   2.651   1.491  15.672  0.0125  0.1323 -0.2666
15354W        W33558  15.954  11.847   2.399  0.3451 -0.0543  0.1542
15355W        W33559  11.394  12.484  14.081 -0.0382 -0.4107 -0.1493
15356W        W33560  12.250  14.916   2.944 -0.0598  0.1968  0.1344
15357W        W33561  13.753  12.741  13.733  0.2524  0.1517 -0.0781
15358W        W33562  16.348   9.516  13.738  0.0735 -0.2340  0.1358
15359W        W33563  14.857  11.609  16.097 -0.0066 -0.0582 -0.0183
15360W        W33564   4.788   3.155   4.374  0.2707  0.0622  0.0191
15361W        W33565  14.472  11.151   3.712 -0.4140  0.1371 -0.1008
15362W        W33566   7.926   1.452   1.077  0.0271 -0.1871  0.1810
15363W        W33567  10.950   0.312  13.692 -0.0136 -0.0819 -0.0463
15364W        W33568  11.676  16.092   1.492 -0.0278 -0.0401 -0.2280
15365W        W33569  10.128   3.389  13.881  0.0301  0.0222  0.1021
15366W        W33570   7.688   5.825   3.297  0.0777  0.0333 -0.2078
15367W        W33571  13.890   9.920  13.617  0.0629 -0.1228 -0.2166
15368W        W33572   6.167   6.339  13.644 -0.2320  0.2654 -0.1013
15369W        W33573  15.709  12.735  13.815  0.3763 -0.0189  0.0992
15370W        W33574  13.756  13.326   1.068 -0.1702  0.1322  0.0699
15371W        W33575   2.428   0.433  17.511 -0.2850  0.2733  0.2738
15372W        W33576  12.166  12.587  12.797 -0.0487  0.1573  0.0061
15373W        W33577  10.855   9.286   2.740  0.2654 -0.2337 -0.3071
15374W        W33578  15.731   5.250   4.593 -0.1521 -0.2961 -0.4086
15375W        W33579   8.405   9.858   4.797  0.1005  0.0349 -0.0006
15376W        W33580   8.926  15.915  17.488 -0.3062 -0.2894 -0.1782
15377W        W33581  14.584  11.927   3.344 -0.2674 -0.1441  0.2336
15378W        W33582  16.475  12.259  13.128  0.0210 -0.1280  0.1170
15379W        W33583   0.783  13.214  16.258 -0.0565  0.3128 -0.0024
15380W        W33584   0.586  15.567   2.078  0.1685  0.0134  0.1333
15381W        W33585   8.757  12.686  12.874 -0.0811 -0.1849 -0.3034
15382W        W33586  13.671   8.664   5.220  0.0155  0.1704 -0.1943
15383W        W33587   0.141   9.918   4.137 -0.1746  0.3177  0.2598
15384W        W33588  14.823   5.174   4.219 -0.0812 -0.0009 -0.1598
15385W        W33589   0.985   1.460  14.114  0.0211 -0.0765 -0.0732
15386W        W33590  16.273   7.835  13.387 -0.0014  0.1930  0.0148
15387W        W33591   8.819   5.245   4.484  0.1828 -0.0545 -0.1616
15388W        W33592  10.873   8.076  17.315  0.2345 -0.1538 -0.0869
15389W        W33593   6.059   0.138   4.112 -0.2654  0.0527 -0.2784
15390W        W33594   7.118   0.291  14.540  0.2240 -0.3290  0.2484
15391W        W33595   5.461  11.134   1.248  0.1719 -0.3162 -0.0639
15392W        W33596   2.629   3.949  14.339  0.0439  0.2995 -0.0685
15393W        W33597  14.184   6.138   3.463 -0.0616  0.1037 -0.3396
15394W        W33598  12.916   9.606   5.677  0.0327 -0.0458 -0.5180
15395W        W33599   1.267   7.974  12.629  0.2250  0.0335  0.0110
15396W        W33600  12.514  11.318  12.672  0.1977  0.1512  0.2784
15397W        W33601  12.114   5.978  16.346  0.1113  0.1258 -0.2263
15398W        W33602   5.812  11.460   1.384 -0.0537  0.1475  0.2261
15399W        W33603   5.437   6.420  15.005 -0.0092  0.4113  0.2802
15400W        W33604  11.428   0.660  16.903  0.0744  0.0328  0.1006
15401W        W33605  12.729   8.741   3.087 -0.1477 -0.0245 -0.0863
15402W        W33606  12.464  17.037   3.070 -0.2975 -0.0586  0.3216
15403W        W33607   1.158   3.496  17.353 -0.0137 -0.2018  0.1752
15404W        W33608  14.803   1.957   4.230  0.0034  0.2684  0.1609
15405W        W33609   2.958   4.496  12.124 -0.1354  0.0269  0.2839
15406W        W33610   2.254   6.550   0.694  0.3457  0.2467  0.0321
15407W        W33611  16.338  12.021  16.935  0.1732  0.0228  0.1031
15408W        W33612   4.469   5.063   0.296 -0.0146  0.0467 -0.1613
15409W        W33613   4.077   3.588  12.261 -0.0354 -0.2007  0.0530
15410W        W33614   7.114   7.366   2.339  0.4089  0.0822 -0.1490
15411W        W33615   0.412  11.087  15.277  0.0220  0.4075  0.3251
15412W        W33616   5.534   4.978  14.442  0.0540 -0.1411 -0.1809
15413W        W33617  13.333   7.283  14.870 -0.3079  0.0807  0.1884
15414W        W33618   0.662   4.181  13.927 -0.0710  0.0366  0.0084
15415W        W33619   4.533  15.222   0.641  0.1740 -0.0544 -0.0878
15416W        W33620   8.537   7.951  17.022  0.0619 -0.2355  0.0988
15417W        W33621   5.556   6.592  17.200  0.1565  0.0257 -0.3487
15418W        W33622  16.186   0.593   2.509 -0.1011 -0.0320  0.1570
15419W        W33623  14.047   7.341  15.541  0.1495  0.0280  0.0044
15420W        W33624   4.340   6.974  15.851  0.1824 -0.1017 -0.2837
15421W        W33625  10.316  14.064   0.313 -0.3094  0.0215  0.3069
15422W        W33626  12.450   9.595   2.746  0.1267 -0.1301  0.5203
15423W        W33627   1.396   5.049  14.937  0.1876  0.0555  0.1615
15424W        W33628   1.133  16.913  17.420 -0.2831  0.1155  0.1252
15425W        W33629   1.533   5.993  16.235  0.0311 -0.0035 -0.1247
15426W        W33630  10.883  17.121   1.610 -0.0543  0.2308  0.1733
15427W        W33631  15.659   7.138   4.919 -0.2606  0.0976 -0.1023
15428W        W33632  14.945  15.694  12.470  0.2424  0.2623 -0.0020
15429W        W33633   7.707   9.941  12.818 -0.0195 -0.2825  0.1362
15430W        W33634   6.427   8.653   2.112 -0.3699  0.1379  0.0464
15431W        W33635   5.776   1.678   3.661 -0.2862  0.1785  0.2078
15432W        W33636  12.064   4.768  13.846  0.1211  0.1658  0.2637
15433W        W33637  10.472   7.111   0.206 -0.0380  0.0558  0.1844
15434W        W33638   5.421   3.419  16.556 -0.3627 -0.0757 -0.0240
15435W        W33639   8.715  15.337  16.697 -0.0281  0.0312 -0.3840
15436W        W33640  12.845   6.521   4.284  0.0823  0.0178 -0.1437
15437W        W33641   5.432  14.697  17.044  0.0641 -0.0957  0.0540
15438W        W33642   5.108   9.755  11.632 -0.1102  0.0968  0.1281
15439W        W33643  10.598   0.648   5.122  0.2024  0.1360  0.2125
15440W        W33644  13.666   2.158  15.114  0.1068  0.0581 -0.0842
15441W        W33645  14.371   5.955  12.293 -0.3930 -0.1079 -0.2104
15442W        W33646   6.250   7.511   0.376  0.0413 -0.0384  0.0197
15443W        W33647   9.092  15.424   0.125 -0.1372  0.2071  0.0794
15444W        W33648   4.595  10.113  12.381  0.0805 -0.2000  0.2723
15445W        W33649   3.379  12.117  15.810  0.2974 -0.0159  0.0161
15446W        W33650   9.812   1.654  14.439 -0.1264  0.0171 -0.1873
15447W        W33651  12.860  12.453  13.739  0.2896 -0.0841  0.0083
15448W        W33652   6.950   9.991   3.905 -0.0261  0.1367  0.1267
15449W        W33653   9.636   3.072  13.820 -0.2302 -0.0578  0.1131
15450W        W33654   8.455  14.829  15.903 -0.2515  0.1580 -0.1884
15451W        W33655   6.461   1.409   0.148  0.1400 -0.0038 -0.0170
15452W        W33656   7.230   4.802  12.082 -0.2283  0.1032  0.1830
15453W        W33657  16.648  15.835   3.559  0.1362  0.2693  0.2519
15454W        W33658  13.223   8.335   1.371 -0.0382  0.0207 -0.1860
15455W        W33659   8.350   4.326   1.313 -0.0891  0.0596  0.0595
15456W        W33660  11.746  13.337   4.366 -0.0233  0.2309  0.4056
15457W        W33661  12.486   4.539   2.459  0.2983  0.0737  0.0678
15458W        W33662  17.124   6.452  15.258 -0.0803 -0.1105  0.0130
15459W        W33663  15.292   2.078   3.092  0.2115 -0.1468  0.1834
15460W        W33664   1.493   9.804   4.139 -0.0368 -0.1674  0.2167
15461W        W33665  14.554   9.194   3.455  0.0565 -0.0738 -0.1898
15462W        W33666   9.290  13.701   0.093 -0.4092 -0.0006 -0.0042
15463W        W33667  16.012  15.924   1.606 -0.2223 -0.2602  0.1209
15464W        W33668   7.776   8.141   2.776 -0.2624  0.0279  0.2250
15465W        W33669   6.115   9.641   2.823 -0.2126 -0.1622 -0.2497
15466W        W33670  14.595  16.557  15.354 -0.0192 -0.0513  0.0922
15467W        W33671   9.251   8.760   4.903 -0.1095 -0.0331  0.2132
15468W        W33672   1.316  14.947   1.722 -0.2073  0.2418 -0.0675
15469W        W33673   5.308  15.603  16.865  0.1740  0.0673 -0.0878
15470W        W33674   9.924   0.620   3.314  0.0584 -0.0259 -0.1504
15471W        W33675  15.089  10.383  13.466 -0.0209 -0.1825  0.0002
15472W        W33676   2.210  14.138  16.767 -0.2215 -0.4919 -0.3556
15473W        W33677  14.161   3.010  15.548  0.3740 -0.0025 -0.1236
15474W        W33678  12.127   2.341   5.178 -0.0009 -0.4055 -0.1875
15475W        W33679  11.990  13.989  17.314  0.1837  0.0382 -0.2970
15476W        W33680   3.202   7.744  17.384  0.1278  0.1286  0.0939
15477W        W33681   8.555  14.996   3.221  0.0231 -0.1456 -0.0662
15478W        W33682  10.999   2.252  12.315 -0.1955 -0.0959 -0.1042
15479W        W33683   4.241  16.337   3.941  0.1584  0.1790  0.1655
15480W        W33684   4.686  12.855   2.746 -0.1503  0.0236 -0.1711
15481W        W33685   6.619  10.965   2.893  0.1767  0.0975  0.2093
15482W        W33686   5.129  10.171   1.256 -0.0545  0.0230 -0.2627
15483W        W33687  13.868  14.521  16.348  0.0890 -0.0433 -0.1264
15484W        W33688   9.172  10.809   3.263 -0.1003  0.1201  0.1983
15485W        W33689   8.092   9.084  16.433 -0.2912  0.0360  0.2543
15486W        W33690  12.428   0.667  13.347  0.0833 -0.0315 -0.0535
15487W        W33691   5.883   0.461   1.099 -0.1051 -0.3160 -0.0666
15488W        W33692  13.556   7.513   4.248 -0.1419 -0.0820  0.1315
15489W        W33693   0.614   4.120   4.991  0.0093  0.3191 -0.1148
15490W        W33694  11.842  14.009   3.775  0.0856  0.0910  0.1493
15491W        W33695   8.762  12.416  17.069  0.2199  0.1160  0.2520
15492W        W33696  13.199  10.266   3.020 -0.0817  0.1355 -0.2143
15493W        W33697  13.237   8.014  14.668 -0.0775 -0.3479  0.0253
15494W        W33698   5.627   9.436   4.116  0.1902 -0.1439  0.0602
15495W        W33699   8.091   8.689  17.318 -0.0130 -0.0810  0.1638
15496W        W33700   9.608   8.921  13.024  0.0482  0.0439 -0.3049
15497W        W33701  14.748   9.805   3.036  0.2742 -0.0235 -0.2133
15498W        W33702  13.001   4.213  14.882 -0.1899 -0.0807  0.0919
15499W        W33703   5.827  12.646  13.711  0.0668 -0.0189 -0.1364
15500W        W33704   2.716  16.940  12.340  0.0264 -0.1966 -0.1904
15501W        W33705  14.900  11.537   4.855  0.1052  0.0498  0.0982
15502W        W33706  14.144   0.500  17.326 -0.0782  0.0181  0.0355
15503W        W33707   2.254   3.786   4.663  0.1143  0.0291  0.0235
15504W        W33708   8.578  13.663  11.160 -0.0380 -0.0240  0.1017
15505W        W33709   6.172  14.110   3.391  0.0622 -0.0986  0.3759
15506W        W33710   0.277  12.566   1.922  0.1445 -0.4578 -0.1364
15507W        W33711   6.689   5.431  16.846  0.0664 -0.0526 -0.1674
15508W        W33712  16.683   8.688  16.966 -0.0287  0.2800  0.0345
15509W        W33713  13.460  12.894   1.068  0.1305  0.2426  0.1318
15510W        W33714  16.487   2.001   0.434  0.0687  0.1356  0.1615
15511W        W33715   8.281  15.941   4.511  0.2478 -0.1687  0.3096
15512W        W33716   6.534   6.445   4.400 -0.0320  0.0805 -0.0380
15513W        W33717   0.216  15.393   4.010 -0.1375  0.2549 -0.0880
15514W        W33718   6.220   9.067   4.129  0.2183 -0.2013  0.1524
15515W        W33719   8.067  14.201  14.799 -0.0472 -0.0387  0.0886
15516W        W33720   4.838  10.656  16.436 -0.1500  0.1052  0.0575
15517W        W33721   6.799   4.244  15.895 -0.3951  0.0909  0.0498
15518W        W33722   2.878   9.229   2.188 -0.0577  0.3148  0.0335
15519W        W33723   3.277  15.378   5.281  0.1087  0.1823  0.0327
15520W        W33724   6.519   1.639  13.384  0.1675  0.1790  0.0648
15521W        W33725   2.350  16.465   5.372 -0.0646 -0.1054 -0.0748
15522W        W33726  15.146  12.320   2.634  0.2389  0.3484  0.1760
15523W        W33727   4.544   8.176   3.575 -0.3038 -0.2119 -0.0951
15524W        W33728   4.434   0.679   2.159  0.3196 -0.0880 -0.1514
15525W        W33729   9.600   3.059  15.004  0.0118  0.0592 -0.1122
15526W        W33730  12.727   8.917  16.085 -0.0226  0.0037 -0.0324
15527W        W33731   7.085   6.051  16.970 -0.0924 -0.0401  0.1327
15528W        W33732  16.929   1.461  11.690 -0.0680  0.1715 -0.0316
15529W        W33733  15.773   3.001  12.227 -0.0292 -0.2715 -0.2382
15530W        W33734   4.300  11.629   4.885  0.1615 -0.0879  0.2437
15531W        W33735  13.273   0.791  14.517 -0.1619  0.2994 -0.0090
15532W        W33736   1.737   6.219  17.276  0.0433 -0.0127  0.1194
15533W        W33737   5.666  14.115  12.250  0.0038  0.1074  0.0972
15534W        W33738   8.420  15.466  17.070  0.1892  0.0220  0.2776
15535W        W33739  14.995  10.871   4.553  0.0110 -0.1611 -0.0157
15536W        W33740  10.202  13.829  13.027 -0.1317  0.2532  0.0520
15537W        W33741   0.943  10.442   0.609  0.1515  0.1513 -0.5614
15538W        W33742   8.283   2.075  14.235 -0.1373  0.0398 -0.0504
15539W        W33743   9.435   7.825  15.001 -0.3403  0.0547  0.0894
15540W        W33744   6.241  17.245  16.507  0.0569 -0.1923 -0.0972
15541W        W33745  10.578   2.439  13.413  0.0277 -0.1053  0.2470
15542W        W33746   7.861   2.921  16.317  0.2165 -0.0216 -0.0544
15543W        W33747  13.584   7.906  12.045  0.1553  0.2222  0.1753
15544W        W33748   9.465  11.139  14.457 -0.0116  0.2611  0.0797
15545W        W33749  17.088   7.825   4.241  0.0964 -0.2496  0.0797
15546W        W33750  10.203  16.854  14.341 -0.0519 -0.1307  0.4415
15547W        W33751  12.653  16.675   2.768 -0.0167  0.3515 -0.0992
15548W        W33752  11.897   5.792   5.784  0.0030 -0.2410  0.1354
15549W        W33753  11.204   0.624   1.958 -0.2241  0.1941 -0.1657
15550W        W33754   9.007   4.174  13.548 -0.1003 -0.1963 -0.2142
15551W        W33755   4.779   9.343   5.008 -0.0309 -0.4765  0.1335
15552W        W33756  15.021   2.268  15.764 -0.2608  0.0732 -0.1349
15553W        W33757  16.397  16.988  11.805  0.1367 -0.0045  0.0034
15554W        W33758  12.170  12.572   4.010  0.1863 -0.4156  0.2624
15555W        W33759   6.994   2.413   5.367  0.2305  0.1804  0.0101
15556W        W33760   9.354   2.783  14.729  0.0295  0.0156  0.4219
15557W        W33761  11.717   4.213   1.344  0.0490 -0.1903 -0.3113
15558W        W33762  16.539   1.097   1.105  0.2243  0.2315 -0.0226
15559W        W33763   7.283  13.857   2.733  0.0211 -0.0516  0.1520
15560W        W33764   7.427   7.051  12.698  0.0041 -0.0089 -0.0538
15561W        W33765   7.955   5.848  15.186 -0.2465  0.1101 -0.1747
15562W        W33766  15.820   7.785  16.507 -0.1607  0.2573  0.0570
15563W        W33767  13.875   9.068  14.564 -0.3747  0.1067 -0.2535
15564W        W33768  12.397  16.277   2.618 -0.2999  0.2797  0.1775
15565W        W33769   2.925  13.732  15.330 -0.0072  0.0246 -0.1123
15566W        W33770  10.432  10.485  17.063  0.0817  0.0413  0.1196
15567W        W33771  10.085  15.854   2.686  0.0208 -0.0191  0.0981
15568W        W33772  14.107   5.084   4.054  0.1497  0.4185 -0.2262
15569W        W33773  15.993  15.361   0.951  0.2811  0.0918  0.0401
15570W        W33774  15.026   9.760  15.390 -0.2927 -0.2688  0.0712
15571W        W33775   2.650  15.167  14.674  0.1015 -0.1906 -0.2722
15572W        W33776  15.321  12.317  15.516  0.1339 -0.1225 -0.0247
15573W        W33777   5.227   8.378  15.604 -0.1671  0.0188  0.0375
15574W        W33778   7.655  11.922   3.313 -0.0248 -0.2674 -0.1742
15575W        W33779   0.232  13.878  16.355 -0.1013 -0.1454 -0.1127
15576W        W33780  11.942   8.167   5.534  0.1346  0.0323  0.0152
15577W        W33781  16.459  12.569   4.062 -0.2175 -0.0512  0.2672
15578W        W33782  12.671   3.466  14.282  0.0404  0.1307  0.1673
15579W        W33783   8.091   6.748   1.878 -0.0148  0.2823 -0.0561
15580W        W33784  13.012  10.337   0.063  0.1219  0.1997 -0.1022
15581W        W33785   4.135  16.483  14.854 -0.1536  0.2427 -0.2346
15582W        W33786   6.584  10.016  12.354  0.3787 -0.1591 -0.4446
15583W        W33787   9.986  11.369  16.570  0.0732 -0.0751 -0.0689
15584W        W33788  14.113   2.598   1.789  0.0263 -0.1208 -0.1058
15585W        W33789   3.396   7.776  16.148 -0.2553  0.0135  0.2932
15586W        W33790  11.958  15.245   2.657  0.3532  0.0081 -0.1268
15587W        W33791   4.580   4.889   3.381  0.1737  0.0293 -0.2478
15588W        W33792   0.550  12.440   0.965 -0.1280  0.2250  0.3774
15589W        W33793   1.781  14.084  14.982  0.4307 -0.3185  0.2775
15590W        W33794   0.294  13.444   1.375 -0.1523 -0.3868  0.0420
15591W        W33795  12.763   0.587  12.400  0.0226  0.1935  0.0165
15592W        W33796   9.567  12.582  17.461  0.0587  0.1921  0.0848
15593W        W33797  13.158   2.014  15.108 -0.0820  0.0041  0.2519
15594W        W33798   0.276   4.153  12.672  0.0444 -0.2409  0.4133
15595W        W33799   3.671   7.590  13.426 -0.0210  0.1099  0.3889
15596W        W33800   9.046  14.443   3.238 -0.0317 -0.1454 -0.0651
15597W        W33801   4.346   3.358  17.283 -0.2360 -0.3506 -0.2579
15598W        W33802   0.721  16.357   4.449 -0.0670  0.0052 -0.0448
15599W        W33803   9.191  15.584  14.838  0.0433  0.0547 -0.1285
15600W        W33804   2.492   6.104  12.518  0.1710  0.0228  0.3936
15601W        W33805   0.931   0.973  15.329 -0.0650  0.2444 -0.0057
15602W        W33806   0.272   4.491   1.332  0.0188 -0.4754 -0.2142
15603W        W33807  17.146  11.488  13.063 -0.2830  0.2482 -0.1190
15604W        W33808  16.141   0.561  13.755  0.1552  0.0517  0.0900
15605W        W33809  15.546   0.196   1.446 -0.0858  0.1102 -0.0770
15606W        W33810   9.147  13.237  17.102  0.2530 -0.1408  0.0033
15607W        W33811  16.643   3.181  14.769  0.1575  0.1649  0.0606
15608W        W33812   3.423  10.292  17.327  0.0563  0.2808 -0.1899
15609W        W33813  11.405  14.781   2.049 -0.1628  0.4052  0.0065
15610W        W33814  15.148  12.651   3.825 -0.0262 -0.3061  0.0552
15611W        W33815   1.608  12.131  12.783  0.1669 -0.1233 -0.0378
15612W        W33816   0.994   0.006   0.606 -0.0964 -0.0192  0.1160
15613W        W33817   4.588  10.933   3.708  0.1877 -0.3151 -0.3707
15614W        W33818   5.964  16.603  13.496 -0.1076 -0.1527 -0.1889
15615W        W33819  10.835  11.908  15.149  0.1336 -0.2115  0.0356
15616W        W33820  11.895  11.196   4.918 -0.1479 -0.1879 -0.1330
15617W        W33821   1.845   6.722   4.827 -0.0523 -0.1737  0.2167
15618W        W33822  16.188  12.764   3.060  0.1574 -0.0461  0.0255
15619W        W33823   7.093  14.961  14.851 -0.2235  0.0878  0.3835
15620W        W33824   3.911   4.270  15.895  0.1226  0.1931  0.1146
15621W        W33825   2.884  10.284   5.067 -0.1664 -0.2067  0.0203
15622W        W33826   3.472   7.169  14.314  0.1577  0.1064 -0.3028
15623W        W33827  14.849   2.187  12.161  0.2373 -0.0714  0.4453
15624W        W33828  15.539   0.488  13.404  0.2725  0.1930 -0.0356
15625W        W33829   0.839   8.457  13.315 -0.1010 -0.2735 -0.1046
15626W        W33830  13.070  16.455  17.243 -0.1739 -0.0723 -0.3040
15627W        W33831   3.891  13.128  16.698 -0.2902  0.0293  0.1205
15628W        W33832   5.836   4.027   1.473 -0.0965 -0.1761 -0.0277
15629W        W33833   7.494   2.951   4.066  0.0729  0.2325 -0.0180
15630W        W33834   8.355   6.189  16.532 -0.1164 -0.0320  0.2296
15631W        W33835   3.964  15.826   3.779  0.0274 -0.2905  0.0135
15632W        W33836  16.439   5.669  13.481  0.2787 -0.1775  0.2119
15633W        W33837   8.263   4.234  13.032 -0.0107  0.1430 -0.1586
15634W        W33838  15.071  13.883  13.324  0.1588  0.0537  0.2779
15635W        W33839   1.709   4.994  14.239 -0.0973 -0.2881  0.0204
15636W        W33840   1.121  13.343  14.019  0.0208  0.0006 -0.3233
15637W        W33841  15.229   4.969  12.350 -0.0826 -0.2244 -0.2441
15638W        W33842  11.242   7.258   3.357 -0.0029 -0.2573  0.0102
15639W        W33843   1.643  11.665  12.526  0.0881  0.1205  0.0580
15640W        W33844   7.057   4.793   0.562 -0.1168 -0.3508 -0.0428
15641W        W33845   4.191   1.354   5.321  0.1545  0.0091  0.2768
15642W        W33846  15.063  15.514   3.249 -0.1274  0.0572  0.0925
15643W        W33847   8.767   3.130   1.408 -0.2576 -0.0589 -0.4258
15644W        W33848   9.151   0.391   0.085  0.1036  0.2694  0.5003
15645W        W33849   6.860   1.491  12.504 -0.0485 -0.0884 -0.0357
15646W        W33850   5.505   6.852   4.852 -0.4015  0.1742  0.1756
15647W        W33851  11.317   4.076  17.507 -0.0328  0.1991  0.0545
15648W        W33852   0.598   5.762   1.759  0.0693  0.0799  0.2936
15649W        W33853   2.053   6.314   0.155 -0.0898 -0.0795  0.1116
15650W        W33854  10.462   9.706  15.945  0.1280  0.0472 -0.1067
15651W        W33855   7.692  14.731   4.224  0.1785 -0.2348  0.1369
15652W        W33856   4.245  13.452   1.974  0.3267 -0.0120  0.2825
15653W        W33857   3.314   6.372  16.407 -0.0654 -0.1762  0.1655
15654W        W33858   0.748   4.893   4.128  0.0454  0.0539 -0.0540
15655W        W33859   4.793  15.852  15.256 -0.1072  0.3129 -0.0228
15656W        W33860   7.793  15.173   2.825 -0.1744  0.0983 -0.1118
15657W        W33861  12.423   7.449  15.071 -0.2174  0.1142  0.2431
15658W        W33862   1.070  11.304  13.718 -0.4407  0.4543  0.3671
15659W        W33863  11.413  10.641  13.910 -0.4891  0.3044  0.1091
15660W        W33864   5.536  14.040   0.555  0.0083  0.2593 -0.1579
15661W        W33865   7.433  10.902   0.988  0.0298 -0.0182 -0.1197
15662W        W33866   6.518  15.333  13.460  0.0825 -0.2254  0.1554
15663W        W33867   7.393  16.795  16.078  0.1968  0.2008 -0.0319
15664W        W33868  11.363  10.394   3.770 -0.1150 -0.3059  0.2090
15665W        W33869   9.676  11.233  15.790 -0.2437 -0.0182 -0.0784
15666W        W33870   1.154   8.039  14.502  0.2074 -0.3658 -0.1535
15667W        W33871   2.082   2.347   2.081  0.0981  0.0060  0.2191
15668W        W33872   7.207   9.748   0.366 -0.0922 -0.2493 -0.0747
15669W        W33873   5.971   9.921   0.987 -0.1752  0.0645  0.1114
15670W        W33874   8.454   0.441   0.387  0.1576  0.1611 -0.0852
15671W        W33875  11.273   9.747   0.367 -0.2843 -0.0428 -0.0646
15672W        W33876  12.368  12.544   1.758 -0.2534  0.0723 -0.1633
15673W        W33877  13.122  10.918  14.998  0.1325 -0.0721 -0.0782
15674W        W33878   0.344   5.122  15.960  0.0522 -0.0546  0.0365
15675W        W33879   8.752   4.130  15.552  0.1045  0.0305 -0.1514
15676W        W33880  15.193  10.072  12.427 -0.0987  0.0481 -0.0471
15677W        W33881   8.655  11.355  16.944 -0.0290 -0.0665  0.0320
15678W        W33882   1.759  14.320  13.074 -0.1308  0.4742 -0.0468
15679W        W33883  13.287   4.035  16.137  0.1947 -0.0217  0.2271
15680W        W33884  14.422   1.680  15.397 -0.2377 -0.1119 -0.1449
15681W        W33885   5.058  13.076   0.240  0.3118 -0.0365 -0.2271
15682W        W33886   8.709  13.549  16.940 -0.1481  0.3488 -0.1479
15683W        W33887   4.303  13.105  15.854 -0.1463  0.2821 -0.0063
15684W        W33888   3.247  12.836   4.384 -0.0773  0.1637  0.2970
15685W        W33889  15.596  13.891  14.759  0.1503  0.2165 -0.0529
15686W        W33890   8.595   8.901  16.883 -0.0798  0.0531  0.0789
15687W        W33891  14.645  15.427   2.971  0.1836  0.1142 -0.1392
15688W        W33892   6.546   9.739  14.109 -0.0183  0.0259  0.2059
15689W        W33893   9.542   4.854  15.564 -0.0849 -0.1797  0.3063
15690W        W33894  12.566   7.246  16.385  0.0311 -0.1877  0.0151
15691W        W33895   2.708  12.204   4.396 -0.2808  0.2059  0.2273
15692W        W33896  13.012   7.170   2.618 -0.3176  0.2234  0.0972
15693W        W33897   9.754  10.922   3.187 -0.3949  0.1968  0.0603
15694W        W33898  11.167   8.960  13.199 -0.1858 -0.1225  0.3659
15695W        W33899  14.404   8.123   4.192 -0.1258 -0.3689 -0.2079
15696W        W33900   9.090   8.706  15.706 -0.0675 -0.1015  0.2234
15697W        W33901  11.558   5.124   0.853 -0.0538  0.2734 -0.1699
15698W        W33902  10.104   5.203   2.162  0.1703  0.0038 -0.3514
15699W        W33903  17.037   0.003  12.619  0.2052  0.1137  0.2778
15700W        W33904   1.683  15.450   1.045  0.1086  0.3569 -0.0680
15701W        W33905  10.678   8.160   1.539  0.3815 -0.0423  0.1117
15702W        W33906  15.473  13.506   1.809 -0.1646 -0.2195  0.1414
15703W        W33907   6.991  16.413   3.975  0.1408 -0.0080  0.0421
15704W        W33908   6.574   1.064  13.353 -0.2216 -0.3178 -0.0804
15705W        W33909   7.428   2.610   6.317 -0.1215 -0.0715  0.0726
15706W        W33910   7.740  13.823   3.846  0.0868  0.2143  0.2122
15707W        W33911   2.626   8.067  14.612 -0.1473  0.1683 -0.2647
15708W        W33912   3.645   1.332  14.081  0.1460 -0.1914 -0.1298
15709W        W33913   1.885  11.630   3.989 -0.2684  0.0680  0.0293
15710W        W33914   4.771  12.012  13.101 -0.0254  0.1937 -0.7053
15711W        W33915  16.879  11.249   4.860  0.0171 -0.0757  0.2458
15712W        W33916  11.018   3.249   3.848  0.0185 -0.4340 -0.2026
15713W        W33917  12.248  14.265   0.186 -0.0666  0.1148  0.1544
15714W        W33918   5.815  15.714  16.899  0.6501  0.2473  0.3734
15715W        W33919  14.042   3.577   2.104 -0.2277  0.0064  0.0900
15716W        W33920   6.637   0.699   4.645 -0.0782  0.0360 -0.0481
15717W        W33921  10.055  11.361   0.858  0.0234  0.1244 -0.1185
15718W        W33922   5.694   6.462   4.606  0.0539  0.5591 -0.4518
15719W        W33923   0.679   9.158   3.142 -0.2436  0.0587  0.0004
15720W        W33924   5.169  17.016  15.782  0.3698  0.0797 -0.1177
15721W        W33925  10.272   8.765  12.104 -0.1365 -0.0140  0.0550
15722W        W33926  12.686  15.441  14.049  0.3644 -0.0610 -0.0110
15723W        W33927  16.409  11.656   3.601  0.1221  0.0038 -0.1919
15724W        W33928  16.662  10.787  13.205 -0.1899 -0.0556 -0.1180
15725W        W33929   1.195  10.458  15.299 -0.2204  0.1408  0.0989
15726W        W33930  13.252   2.146  16.647 -0.1955  0.1834  0.0864
15727W        W33931   8.232  10.621   2.002  0.2141  0.2251  0.2233
15728W        W33932   8.004   3.495  16.954  0.2751  0.3239  0.5692
15729W        W33933   8.511   0.067  14.635 -0.1102 -0.0895 -0.2218
15730W        W33934   3.568   6.054   2.317 -0.1081  0.2006  0.0885
15731W        W33935   0.659   3.242  12.927  0.1607 -0.1437 -0.0413
15732W        W33936  16.572   6.321  16.612 -0.1056  0.2304  0.3102
15733W        W33937   3.018  15.780   4.851 -0.1498  0.0217  0.1333
15734W        W33938   3.144   8.969  14.625  0.1277  0.3051  0.1601
15735W        W33939  11.575   1.259  12.416  0.1365 -0.0378  0.0995
15736W        W33940  10.051   6.737  12.569 -0.3084  0.1498 -0.0373
15737W        W33941  11.560   1.111   2.758 -0.3293  0.2426  0.1260
15738W        W33942  11.989  15.607  15.169 -0.0070  0.1784  0.0213
15739W        W33943   0.803   2.708  11.965 -0.0234 -0.1150 -0.1251
15740W        W33944  15.728  13.904  16.938 -0.1512  0.0709  0.1104
15741W        W33945   0.763  14.808  12.955  0.1259  0.0781  0.1887
15742W        W33946   1.791  11.361   0.623 -0.0750 -0.0161 -0.3162
15743W        W33947   8.922  15.900   2.302  0.2273 -0.0459 -0.1104
15744W        W33948   5.254   9.364  16.118  0.0758  0.1212  0.2717
15745W        W33949  11.995   6.679   0.344  0.1500  0.2652  0.1892
15746W        W33950   4.973   4.382  15.195  0.1387 -0.1541  0.1404
15747W        W33951  12.565   2.351   4.949  0.1561  0.0677  0.1458
15748W        W33952  14.008  11.420  17.432  0.2017 -0.0931  0.2712
15749W        W33953   4.044   4.683   2.064 -0.2182 -0.0392  0.0281
15750W        W33954  11.989   3.523   4.692  0.1671 -0.1571 -0.0571
15751W        W33955   5.240  10.253   1.686 -0.0754  0.1742 -0.0474
15752W        W33956  17.301   4.595   2.168  0.0964  0.0291 -0.2074
15753W        W33957  17.312  14.232  13.193  0.2605  0.4056 -0.0988
15754W        W33958   1.989   1.417  13.883 -0.2150  0.0678 -0.2291
15755W        W33959  16.323  14.415  15.277 -0.2492 -0.1545  0.0068
15756W        W33960   8.092  14.467  15.871 -0.3719  0.1525 -0.1283
15757W        W33961  11.347  17.310   3.372  0.1960  0.0623 -0.1377
15758W        W33962   0.103   1.327  12.642 -0.1382  0.0462 -0.0737
15759W        W33963   9.989  14.066  17.143  0.1815 -0.0028  0.5176
15760W        W33964   3.577   2.535  13.421 -0.0452  0.2481 -0.0671
15761W        W33965  13.618   5.754  15.828 -0.0081  0.2757  0.3960
15762W        W33966   7.286   6.775  12.261  0.1489  0.1553 -0.2227
15763W        W33967   1.450  11.767   0.781 -0.0689 -0.3478  0.0774
15764W        W33968  10.890   8.719   3.408 -0.1220  0.1114  0.1332
15765W        W33969  13.996  15.447  16.226  0.1959 -0.1713 -0.1235
15766W        W33970   2.819  12.233   1.022  0.0719  0.1426  0.0024
15767W        W33971   5.785  10.837  11.846  0.3402  0.0260 -0.1435
15768W        W33972   4.213   3.832  16.568 -0.2789 -0.0134 -0.2587
15769W        W33973  13.610   0.825  12.218  0.0264 -0.1939 -0.0830
15770W        W33974  10.953   9.946  15.696 -0.1226  0.4056 -0.6128
15771W        W33975   6.293  17.049   2.391 -0.0310 -0.0497 -0.0990
15772W        W33976   9.018  14.782   4.049 -0.0956  0.0032  0.1700
15773W        W33977  10.044   0.048   6.336 -0.2581 -0.2372 -0.1083
15774W        W33978  11.409  12.024   4.424 -0.2368  0.0246  0.1174
15775W        W33979   5.820  16.452   1.039  0.1137 -0.1943  0.0118
15776W        W33980  11.957   4.004  16.770 -0.0017  0.0334  0.0164
15777W        W33981  12.544  16.649  13.075 -0.0936  0.3204 -0.1088
15778W        W33982   7.887   9.897  15.316  0.6083 -0.0084 -0.1442
15779W        W33983   3.917  14.134  14.245 -0.0326  0.2768  0.3274
15780W        W33984  16.981  16.990  14.422 -0.0134 -0.4225 -0.2879
15781W        W33985   8.289  14.124  12.948  0.0375 -0.4642 -0.1689
15782W        W33986  10.683   7.442   6.415  0.0882  0.0718  0.1076
15783W        W33987  14.845   6.722  11.218  0.0606  0.1771 -0.0049
15784W        W33988  12.835  12.188  17.017  0.0163 -0.1350  0.0464
15785W        W33989  13.246  16.845   5.291 -0.2679  0.0923  0.1734
15786W        W33990   3.136   5.481  17.418 -0.1259 -0.0129  0.0728
15787W        W33991   0.102  13.459   0.898 -0.3996  0.0553 -0.0408
15788W        W33992  16.260  13.156  13.129  0.3298 -0.0070  0.1451
15789W        W33993  12.889   0.754  16.126  0.1059 -0.1993  0.1050
15790W        W33994  13.537   6.746   4.611  0.1366 -0.1376 -0.1597
15791W        W33995   8.509  10.124  16.320  0.1238  0.2187  0.2824
15792W        W33996  13.810   5.970   3.217  0.1129 -0.0515 -0.0417
15793W        W33997  11.036  16.585  15.234  0.0412 -0.0023  0.0137
15794W        W33998  17.308   8.585   3.721 -0.0500 -0.1924 -0.0347
15795W        W33999   2.325  13.910  17.197 -0.0327 -0.0978 -0.1594
15796W        W34000   9.011   8.986  15.264  0.0266 -0.3713 -0.0927
15797W        W34001  12.498   1.594  13.696 -0.2054 -0.3003  0.1631
15798W        W34002   8.305   8.599  15.521 -0.0695  0.3022  0.0747
15799W        W34003   9.432  14.919  16.534 -0.2280  0.1078 -0.1965
15800W        W34004  16.457   6.207   0.428 -0.0920 -0.0106  0.0761
15801W        W34005  12.526  12.631  15.230 -0.2846  0.3099  0.2508
15802W        W34006   6.891   7.353  15.031 -0.2450 -0.1818  0.1460
15803W        W34007   6.374   6.842   5.131  0.2567  0.0829  0.1451
15804W        W34008  10.355   3.638   1.102  0.1439  0.0109 -0.0521
15805W        W34009   7.765  10.975   5.566  0.1235  0.1144 -0.0220
15806W        W34010   4.842   2.065  15.376 -0.1393  0.2205 -0.1679
15807W        W34011  11.681  12.196   3.051  0.3816 -0.4609 -0.1824
15808W        W34012   3.560   9.400   0.982  0.0806  0.1104  0.1758
15809W        W34013   4.223  12.743  17.441 -0.1027 -0.1266 -0.1233
15810W        W34014  16.186  11.584  14.789  0.2613  0.1549 -0.2366
15811W        W34015   7.158   4.487   3.305 -0.1355  0.0544  0.3156
15812W        W34016   8.097   5.299  16.467 -0.0972 -0.0362 -0.0790
15813W        W34017   6.653  12.527   4.328  0.1774  0.0218 -0.0042
15814W        W34018  12.246   4.255   0.860  0.0544 -0.0962 -0.2119
15815W        W34019  13.750   4.168  16.705  0.3062 -0.0339 -0.0989
15816W        W34020   8.890   7.080  17.202 -0.0552  0.1008  0.3295
15817W        W34021   9.060  14.201  17.262 -0.0033  0.1614  0.1483
15818W        W34022  11.528   9.641  13.845 -0.3423 -0.0830  0.0905
15819W        W34023   8.504   4.814   3.322  0.0202  0.2302  0.0160
15820W        W34024   4.546  15.789   5.153 -0.0988 -0.2706 -0.1483
15821W        W34025   9.240   6.119  13.855 -0.0491 -0.1070 -0.0731
15822W        W34026   2.912  16.342   3.367  0.0046  0.3982  0.1228
15823W        W34027   2.453   5.021   2.855  0.0077 -0.4410 -0.0916
15824W        W34028   8.814  14.281   4.430 -0.0825  0.0202 -0.2178
15825W        W34029   1.350   4.629  15.762  0.5732  0.0888  0.1524
15826W        W34030   0.255   9.662  14.292  0.2980  0.3445  0.3185
15827W        W34031  13.409  15.222   2.570 -0.0203 -0.0835 -0.1876
15828W        W34032  15.170   9.330  16.738 -0.0395 -0.0081  0.3667
15829W        W34033  12.989  10.705  16.006  0.0686  0.0326  0.1926
15830W        W34034  16.906  13.660   0.863  0.3019  0.1193 -0.1859
15831W        W34035  11.534  10.598  12.784  0.2507  0.0572 -0.2348
15832W        W34036   1.308  14.731   5.154 -0.1651  0.2451  0.0387
15833W        W34037   7.001   3.982  14.995 -0.1346 -0.1343 -0.2845
15834W        W34038   3.515   1.034  17.380  0.0025 -0.0144  0.2297
15835W        W34039   0.142   4.863  16.648  0.1350  0.2835  0.0097
15836W        W34040  13.068  14.341   4.490 -0.1110 -0.0443  0.0929
15837W        W34041  13.374  13.248  16.372 -0.1933  0.2329  0.0162
15838W        W34042   4.163  12.110   1.526 -0.5231  0.3303 -0.1238
15839W        W34043  10.839   4.617  12.233  0.2681 -0.0556  0.1436
15840W        W34044  13.403   8.978  14.654 -0.0984 -0.2506 -0.0784
15841W        W34045  10.316   3.523  17.370  0.1576  0.0201 -0.0961
15842W        W34046   4.048   7.245  16.709  0.1085  0.0718  0.1750
15843W        W34047   2.443   6.768  13.257 -0.1039  0.0442 -0.1437
15844W        W34048  13.705  13.749  17.302  0.0635  0.3521 -0.1800
15845W        W34049  13.920  14.107   1.401 -0.2580 -0.0465  0.2729
15846W        W34050  10.398  13.929  13.670 -0.0291  0.1701  0.1671
15847W        W34051   7.492  13.889   3.276 -0.0591 -0.2731 -0.2036
15848W        W34052  14.501   7.478  15.980 -0.1391 -0.0958  0.0635
15849W        W34053   1.816  12.519   4.660  0.2257  0.2688 -0.3831
15850W        W34054   3.793   3.495  14.240  0.2983  0.2696 -0.0903
15851W        W34055   8.916   8.527   3.550 -0.0687 -0.0348  0.0062
15852W        W34056  11.959   6.435   1.137 -0.0228  0.5234  0.0868
15853W        W34057   1.376  12.645  12.012  0.0137  0.0798 -0.0798
15854W        W34058   4.857   4.394  17.301 -0.2359  0.1137  0.3096
15855W        W34059   2.368  14.017   5.850  0.3125 -0.1339  0.0639
15856W        W34060  12.057  10.491  12.722  0.0908  0.0790 -0.2910
15857W        W34061   8.782  15.004  14.184  0.1807  0.2752 -0.0210
15858W        W34062  12.033  10.801   5.198  0.4016  0.1304 -0.1248
15859W        W34063  11.544  14.590   4.826  0.1479 -0.0879  0.1503
15860W        W34064   5.816   0.124   3.202 -0.2622 -0.0963 -0.3143
15861W        W34065   4.447  11.025  13.478 -0.0643 -0.6258  0.1913
15862W        W34066  12.917   6.060  13.555 -0.3762 -0.0630  0.0996
15863W        W34067  16.895   2.253   0.300 -0.1127 -0.0406  0.1507
15864W        W34068  12.510  16.850   1.603  0.0206  0.0403 -0.1706
15865W        W34069   5.668   7.508  13.390 -0.0164 -0.0097 -0.1287
15866W        W34070   7.067   4.523   4.012  0.0091 -0.1357 -0.2769
15867W        W34071   7.679  10.568   0.637  0.2365 -0.3075 -0.1390
15868W        W34072  12.601  16.068  16.040  0.0907  0.1272 -0.2295
15869W        W34073  12.269   2.969  12.620  0.2020 -0.2213  0.2036
15870W        W34074  16.601   2.321   2.474  0.2749  0.1465  0.2179
15871W        W34075  15.586   8.372  13.196 -0.1803  0.0415  0.1242
15872W        W34076  12.795  11.246   3.476  0.2096 -0.1374 -0.1398
15873W        W34077   0.671  12.791  14.437  0.1806 -0.2662  0.1492
15874W        W34078  10.224   5.646  15.484  0.2482  0.1804 -0.0123
15875W        W34079  16.986  11.124   2.661  0.0779  0.2859  0.1194
15876W        W34080  10.036   9.355  14.778 -0.1508  0.2700  0.1041
15877W        W34081   6.075   4.100  15.980  0.0716 -0.2195 -0.1031
15878W        W34082   7.424   4.518   1.465  0.1640  0.3484  0.0990
15879W        W34083   2.476   0.243   3.894 -0.0810  0.0730 -0.1347
15880W        W34084   5.327   2.022   2.946 -0.2366  0.0555 -0.3191
15881W        W34085   7.217  12.868   2.401 -0.2457  0.1067 -0.0331
15882W        W34086   0.874   2.488   3.712  0.1649  0.1871  0.0351
15883W        W34087  13.156  15.440  15.946  0.1346 -0.0096  0.0186
15884W        W34088   5.087   3.362   1.612  0.1630 -0.1539 -0.2035
15885W        W34089  10.214  10.969   3.780 -0.0160  0.4400  0.0380
15886W        W34090   8.531   9.251  12.098  0.2460 -0.1143 -0.2038
15887W        W34091   7.072   8.927   0.721 -0.0699  0.1788  0.1977
15888W        W34092  10.835  15.695   4.848  0.1198 -0.0391  0.0984
15889W        W34093   8.834   1.958  13.421  0.1658 -0.0500 -0.0517
15890W        W34094   7.594   4.151  12.770  0.0460  0.0572  0.0163
15891W        W34095   3.713   5.981   3.455 -0.1447 -0.0698  0.0310
15892W        W34096  10.656  16.638  14.419  0.1988  0.2374 -0.2751
15893W        W34097   2.651  13.110   4.204  0.0467  0.2574  0.0557
15894W        W34098   3.819   0.100  15.994  0.0771 -0.0633 -0.1910
15895W        W34099   2.960  16.395  16.942 -0.1001  0.0405  0.1714
15896W        W34100   6.607   5.764   3.935  0.1002  0.0402 -0.1211
15897W        W34101   7.426   2.037  14.121  0.0049  0.1324  0.0409
15898W        W34102   7.356  11.109   3.103 -0.0277 -0.0708 -0.0382
15899W        W34103   8.627  15.236   5.303 -0.0506  0.4099 -0.1134
15900W        W34104   9.400   4.380  16.235 -0.1368  0.2541 -0.0136
15901W        W34105   6.899  15.264  15.187  0.1936 -0.1462  0.0216
15902W        W34106  13.941  15.068   4.450 -0.2130 -0.0061  0.0062
15903W        W34107   7.126   4.399   2.287 -0.3208 -0.3865  0.0969
15904W        W34108   2.717  13.140   3.092  0.2544 -0.0722 -0.0960
15905W        W34109   4.248   7.514  16.299 -0.1134 -0.3683  0.0543
15906W        W34110   8.479  10.827  16.942 -0.0228  0.2390  0.0506
15907W        W34111  10.367  16.309  15.532 -0.1796  0.1470 -0.1791
15908W        W34112  10.396  15.226  12.715 -0.2109  0.0348 -0.2328
15909W        W34113   1.692   0.988   2.812 -0.2567  0.1708 -0.2309
15910W        W34114  12.617  14.568   3.768 -0.0760 -0.0190  0.0123
15911W        W34115   6.134  16.739  14.413 -0.3054 -0.0110 -0.2914
15912W        W34116  11.469  12.714   3.812 -0.1179 -0.2857  0.1932
15913W        W34117  15.293  15.060   0.815 -0.1129  0.0080  0.0431
15914W        W34118   6.640  13.205   0.374 -0.1248 -0.3932  0.1880
15915W        W34119   6.543   3.759  15.714 -0.1114  0.0148  0.0702
15916W        W34120  14.338  16.007  15.580  0.0214 -0.1558  0.0978
15917W        W34121   4.294  13.667   4.823  0.0748  0.3480  0.0661
15918W        W34122   8.023   7.556   5.512  0.0264 -0.0406 -0.0776
15919W        W34123   9.200  10.973  15.236 -0.0086  0.2224  0.2182
15920W        W34124   2.949   5.735   2.794  0.0808  0.1533  0.2280
15921W        W34125  17.281  13.583   5.550 -0.0454  0.1456 -0.2811
15922W        W34126   6.298  11.111   0.649 -0.1398 -0.1321 -0.0318
15923W        W34127   5.637   1.906  13.801 -0.1975 -0.2448  0.0676
15924W        W34128   6.934  13.317   2.752 -0.0540  0.0498 -0.2977
15925W        W34129  13.696   6.250   4.768 -0.2745 -0.1541 -0.0644
15926W        W34130   6.901   0.813  14.443 -0.2113  0.0648  0.0085
15927W        W34131   8.387  13.401   2.126  0.3135  0.0027 -0.2375
15928W        W34132  10.019  14.802   1.738  0.1300 -0.2148  0.0476
15929W        W34133  11.916  11.426  13.473 -0.2727  0.0210  0.1716
15930W        W34134   7.705  13.281   3.616  0.0122  0.3038  0.0120
15931W        W34135   1.933   0.994  15.209 -0.1084  0.0971 -0.2729
15932W        W34136  13.444   5.683  17.376 -0.2767  0.1896 -0.0589
15933W        W34137   2.475   3.082  12.913  0.0559 -0.3704  0.4200
15934W        W34138   9.435  10.361  17.383  0.2476 -0.4753 -0.0620
15935W        W34139  15.478  12.486   1.601  0.0054  0.1425 -0.0136
15936W        W34140  14.393   0.836   1.560  0.0284 -0.1155  0.1382
15937W        W34141   8.979   3.196   0.515 -0.0344  0.1107  0.0052
15938W        W34142   4.838   3.753   2.464 -0.2049 -0.1126 -0.3420
15939W        W34143   2.894   4.039   4.398  0.1537 -0.1357  0.1519
15940W        W34144  12.749  16.930  12.656 -0.1008  0.2690 -0.0965
15941W        W34145  11.289   0.534  14.818  0.0325  0.0262  0.0048
15942W        W34146   9.517  14.049   2.837 -0.1265 -0.0814  0.1011
15943W        W34147   2.395  14.591   0.561 -0.1888 -0.1811 -0.0926
15944W        W34148   4.312   5.520  14.231  0.3822 -0.0317 -0.2317
15945W        W34149   9.767   8.528  14.383 -0.0880 -0.2751  0.0281
15946W        W34150  16.524  15.228   0.197 -0.2917 -0.1291 -0.0604
15947W        W34151   1.944  11.036   4.435 -0.0015  0.1012  0.2390
15948W        W34152  15.230  11.812  12.548  0.2343  0.0578 -0.0107
15949W        W34153  15.646  11.342   4.214  0.0397 -0.0495 -0.0738
15950W        W34154  16.481  15.312   2.860  0.2856  0.1198 -0.0265
15951W        W34155  11.701   4.950   0.085 -0.4483  0.0282  0.2396
15952W        W34156  11.198   6.623   0.804  0.0265  0.0651 -0.1445
15953W        W34157  11.911   5.216  15.169 -0.0951  0.0267  0.0495
15954W        W34158   7.513   0.313   4.674  0.1959 -0.1340 -0.2406
15955W        W34159  10.483  11.073   2.113  0.3091 -0.1412 -0.4568
15956W        W34160   2.754   1.400   0.174 -0.6335  0.2329  0.2111
15957W        W34161  14.535  16.561   2.099  0.0801 -0.0288  0.1795
15958W        W34162  14.268  11.229   4.608  0.4871  0.0937  0.1070
15959W        W34163   8.479   8.015   2.876 -0.0823 -0.1089  0.0471
15960W        W34164   9.721   8.218  15.058  0.2042  0.0783  0.0069
15961W        W34165   7.506   4.689  17.345  0.0498 -0.0814 -0.0560
15962W        W34166   5.713   4.361  14.312  0.0001  0.2552  0.0524
15963W        W34167   1.318   2.153  17.481 -0.0311  0.3605 -0.1358
15964W        W34168  10.017   2.018   4.432 -0.1918  0.3646  0.1827
15965W        W34169  11.826  14.846  17.432  0.0279  0.3623  0.0293
15966W        W34170  15.112   9.422   4.280 -0.2499  0.1464 -0.0678
15967W        W34171   1.348   0.262  14.606 -0.2703  0.0429 -0.0047
15968W        W34172   9.452   9.825  14.326 -0.0942  0.2278  0.0811
15969W        W34173  10.191  16.528  16.165  0.1293 -0.0338  0.2570
15970W        W34174   4.160  15.571   4.878 -0.3220 -0.1303  0.3267
15971W        W34175  15.009  13.078  13.058  0.0972 -0.0183 -0.1161
15972W        W34176  11.091   7.535   1.157  0.1977 -0.2558  0.1357
15973W        W34177  13.935   9.045  15.511 -0.0121  0.0338 -0.0627
15974W        W34178   2.772  13.110   4.954  0.0569  0.3691 -0.1129
15975W        W34179   8.120  12.944   1.405  0.2870  0.0699 -0.0660
15976W        W34180  11.451   6.992   5.384 -0.0674 -0.0825  0.1116
15977W        W34181  10.376  12.477   1.606 -0.3188 -0.0650 -0.1165
15978W        W34182   6.398  13.875  12.613  0.4742  0.2564 -0.2670
15979W        W34183  16.200   9.325  15.668 -0.0434  0.0068 -0.0824
15980W        W34184  15.710  14.557   5.045 -0.2624  0.1614 -0.1186
15981W        W34185   9.422  14.499  16.990 -0.1357 -0.1075 -0.0077
15982W        W34186  11.833   9.462   5.339 -0.0009  0.0575  0.1127
15983W        W34187   5.350   0.918  13.466  0.0022 -0.0066 -0.1840
15984W        W34188   5.229  16.424  13.987 -0.1335  0.0966 -0.0260
15985W        W34189   5.992   6.074  16.919  0.2544  0.2095  0.2564
15986W        W34190  10.417   6.390  14.434 -0.1956  0.0947 -0.0321
15987W        W34191   1.662  14.227   0.184 -0.0706  0.0459  0.0927
15988W        W34192  10.670   3.592  15.201 -0.0974  0.0635 -0.0070
15989W        W34193   4.173   3.239  15.949 -0.2214 -0.2226 -0.0223
15990W        W34194  16.581   4.194  12.091  0.0370 -0.1246 -0.0006
15991W        W34195  17.038  17.313   3.559  0.4036  0.1919 -0.0154
15992W        W34196   6.281   9.911  13.103 -0.1154  0.3236 -0.0343
15993W        W34197   6.723  17.042   3.377 -0.2433 -0.1688  0.0356
15994W        W34198   9.333  15.855  16.305 -0.0167  0.1294 -0.0417
15995W        W34199  14.103   3.437  12.571  0.2169 -0.2408  0.0288
15996W        W34200  10.623   1.390  12.233  0.0694 -0.0755  0.0042
15997W        W34201  16.340   2.129   4.882 -0.0266  0.2984  0.1152
15998W        W34202  13.668  11.104   0.117 -0.0541 -0.1564 -0.3256
15999W        W34203   5.039  11.005   3.766 -0.3422  0.0208 -0.3690
16000W        W34204  15.577  12.757  17.407  0.1754  0.0292  0.3416
16001W        W34205   8.391  16.668  12.800 -0.0381  0.0885 -0.0279
16002W        W34206   9.709  13.278  12.161 -0.2680  0.0518 -0.0765
16003W        W34207  10.173  14.457  16.889 -0.3006  0.0816  0.0602
16004W        W34208   4.333  11.474   1.147  0.1682  0.1299 -0.1726
16005W        W34209   2.658   6.384  15.119  0.0817 -0.0429 -0.3282
16006W        W34210   2.007   8.201   1.971  0.1824 -0.0127 -0.1708
16007W        W34211   7.962  13.327  15.160 -0.0162  0.1013 -0.1209
16008W        W34212  10.101   2.554  13.932  0.2559  0.2000 -0.0361
16009W        W34213   9.692   1.833  13.175  0.1611  0.1545 -0.0530
16010W        W34214  12.526  15.810  14.355 -0.1468 -0.1799  0.3605
16011W        W34215  10.341  10.173   2.151  0.2816  0.1845 -0.0524
16012W        W34216   7.038   2.488  15.893 -0.1536  0.1990  0.4087
16013W        W34217   8.432  12.459  15.004 -0.3957 -0.0915  0.0244
16014W        W34218   6.334   5.473  13.865  0.0520  0.0041  0.2595
16015W        W34219   5.302   8.831  15.307  0.0204 -0.5448  0.1304
16016W        W34220   5.588   2.102  16.545 -0.0292 -0.1324 -0.3067
16017W        W34221  16.868   6.557   0.187  0.1478  0.1392 -0.5699
16018W        W34222   0.867  16.223  13.828  0.1386  0.1281  0.2449
16019W        W34223   5.982   5.431  13.559 -0.3048  0.1140 -0.0039
16020W        W34224  10.908   9.359  13.276  0.0378 -0.1578  0.1599
16021W        W34225  14.308   3.453   1.152  0.2192  0.0835  0.1222
16022W        W34226  15.066   1.006   1.402  0.3042  0.0343 -0.0531
16023W        W34227  10.447  15.020  13.521 -0.0448 -0.0604 -0.0179
16024W        W34228   3.102  15.061   1.048 -0.0508  0.2626  0.0038
16025W        W34229   0.293   2.606  13.594  0.0323 -0.2469  0.1671
16026W        W34230   7.171   6.927  13.130  0.2708  0.0120 -0.0013
16027W        W34231  12.138   4.270  14.074 -0.0114  0.0385  0.0848
16028W        W34232   9.931  10.241   1.125 -0.3203  0.0470  0.2927
16029W        W34233   1.048   3.299   4.779 -0.2736 -0.0090  0.2234
16030W        W34234   6.088   5.909   3.779  0.0040  0.2935  0.1830
16031W        W34235   0.173   1.608  13.485  0.0300  0.1124  0.0512
16032W        W34236  12.354   7.721  16.206 -0.1932  0.1071 -0.0146
16033W        W34237  16.286  14.049   2.844  0.1754 -0.1520  0.0856
16034W        W34238  11.630   8.144  13.552  0.1665  0.0249  0.1804
16035W        W34239   0.201  17.156  13.100  0.0843  0.1727 -0.0388
16036W        W34240  12.930   3.362   0.337  0.0951 -0.2598  0.1138
16037W        W34241   0.107   1.704  17.273  0.1793  0.0029 -0.0462
16038W        W34242   9.193   4.385  14.875 -0.0053 -0.0535  0.0438
16039W        W34243   9.647   4.611  14.713 -0.2356  0.0707  0.1955
16040W        W34244  12.355   2.899  14.057  0.0743 -0.0094  0.0059
16041W        W34245   5.916  13.845  11.266 -0.0791 -0.2213  0.1298
16042W        W34246  16.149  14.309  14.053  0.1712  0.0014  0.1225
16043W        W34247  10.937  10.394  13.435  0.0978  0.1552  0.0220
16044W        W34248  12.702   0.777   4.220 -0.0988  0.0626 -0.3457
16045W        W34249  13.670  16.258  16.638  0.1682  0.1711  0.1831
16046W        W34250   4.097   6.362  15.506  0.0789 -0.3165  0.0749
16047W        W34251   8.260   3.230   2.387 -0.3259 -0.1869 -0.0947
16048W        W34252   7.410   5.339  15.122  0.0715  0.0203 -0.0009
16049W        W34253   8.966   5.351  16.387 -0.1079 -0.3695 -0.1504
16050W        W34254   7.537  11.694  13.809 -0.0517 -0.2124  0.0356
16051W        W34255   5.451  16.618   1.393 -0.0884  0.3306 -0.2474
16052W        W34256   2.460  13.312  12.954 -0.3386 -0.0787  0.0611
16053W        W34257   9.885   1.142  14.816 -0.1314  0.1643  0.3547
16054W        W34258   1.957   8.375  14.200  0.1083  0.2392 -0.1316
16055W        W34259   1.766   2.368  16.523  0.1103 -0.2067 -0.0261
16056W        W34260   4.945   6.190  13.074 -0.4512  0.1909  0.0110
16057W        W34261  11.891   3.107   3.257  0.1494 -0.0715  0.1373
16058W        W34262   0.582   5.814  12.205  0.0690 -0.4028  0.2668
16059W        W34263   3.301   9.007   1.939  0.2431  0.4316 -0.0455
16060W        W34264   2.358   2.218  14.210  0.1475 -0.0032  0.0389
16061W        W34265   1.166   7.152  14.481  0.0425  0.0102  0.0839
16062W        W34266  11.376   0.749   2.429  0.0966 -0.3482  0.1181
16063W        W34267  11.762  12.914   4.167  0.2622  0.1809  0.0953
16064W        W34268   5.364   7.250   5.130 -0.1518 -0.1315  0.3887
16065W        W34269  13.072  15.401  14.409 -0.3235 -0.3414 -0.2645
16066W        W34270   7.938   6.383  16.783 -0.0113 -0.1667  0.1660
16067W        W34271   2.230   5.035   1.523  0.0027 -0.0580 -0.0503
16068W        W34272   6.126   7.513   1.462 -0.0484  0.1651  0.1869
16069W        W34273   5.182  12.103  15.423  0.0651 -0.1595 -0.1916
16070W        W34274   1.617   2.942   3.507  0.2378 -0.0860 -0.1036
16071W        W34275  10.095   7.794  16.445 -0.0051 -0.2597 -0.1840
16072W        W34276  15.236   5.555  14.296 -0.1229 -0.0554  0.1466
16073W        W34277  14.158  13.181   2.010 -0.1387  0.2517 -0.2291
16074W        W34278  15.283  13.234   2.167 -0.2759  0.1555  0.3265
16075W        W34279   4.804   1.891   1.627  0.0481  0.0845 -0.0752
16076W        W34280  11.205   5.021  15.876  0.2773 -0.2444 -0.2809
16077W        W34281  11.631  13.875  13.948  0.0942  0.1066 -0.1999
16078W        W34282  13.336  16.898   4.070  0.0092 -0.0205 -0.2562
16079W        W34283   3.087   8.146   1.632 -0.0004 -0.1838  0.1051
16080W        W34284   1.333  10.132  17.472  0.0469  0.0324  0.2778
16081W        W34285  13.936  14.804  13.172  0.2241  0.1196  0.0508
16082W        W34286   1.969   1.413   4.217 -0.1995  0.1472  0.0175
16083W        W34287   6.118   0.731  15.184 -0.1545  0.2547  0.0810
16084W        W34288   5.777   3.839  13.343 -0.2911  0.1541  0.0763
16085W        W34289  16.396  11.151  17.191  0.0444  0.0266  0.1287
16086W        W34290  13.910   5.453   1.575 -0.0084 -0.0177 -0.0954
16087W        W34291   6.961  12.383  15.378  0.1947  0.1834 -0.0397
16088W        W34292  17.280   0.059   1.653  0.1515  0.0593  0.0509
16089W        W34293   6.350   9.355  13.806 -0.1073 -0.0459  0.2644
16090W        W34294   7.648   9.860  11.789 -0.0419  0.3147  0.2628
16091W        W34295   0.867  15.572  15.748  0.0349 -0.0025 -0.0878
16092W        W34296   3.602   2.630   5.243 -0.1667  0.1369  0.0092
16093W        W34297   4.367   8.313   0.379  0.0638 -0.0399 -0.0760
16094W        W34298  14.061   9.407   4.969 -0.0736  0.0498  0.0117
16095W        W34299   2.484   5.913   4.539  0.3193  0.0584  0.0364
16096W        W34300   6.915  14.498  13.762 -0.1144  0.1704  0.3318
16097W        W34301   4.047  14.201   4.247 -0.0977 -0.1047 -0.2556
16098W        W34302  12.942   5.938   0.938  0.0146  0.0923 -0.0983
16099W        W34303   8.208  16.363  15.958  0.2509 -0.0673 -0.0534
16100W        W34304   3.526  16.229   2.078  0.2852  0.2571 -0.3672
16101W        W34305   6.877  14.111   1.382 -0.0354 -0.0700 -0.0034
16102W        W34306   0.976  11.182   1.360  0.0951  0.0641 -0.2069
16103W        W34307  17.226   6.004  17.038 -0.0299 -0.2240  0.3148
16104W        W34308   6.174  13.951  12.141  0.1783  0.2175  0.1646
16105W        W34309   1.302  10.745  15.695 -0.1459 -0.0785 -0.1131
16106W        W34310   5.925  16.939   4.443  0.2334 -0.0229 -0.0652
16107W        W34311   8.310  10.041   3.207  0.1265 -0.0657 -0.0797
16108W        W34312  10.906  12.416  13.566 -0.0301  0.1752  0.0030
16109W        W34313  10.087   2.312  13.215  0.3545  0.2598  0.0557
16110W        W34314  14.706  13.443   1.343  0.1244  0.0564 -0.0094
16111W        W34315  10.647   2.561   3.280 -0.0509  0.1277 -0.6207
16112W        W34316   1.154  12.598  13.507 -0.0394  0.0269 -0.0557
16113W        W34317  13.819  10.245   0.725 -0.0801  0.1180 -0.1087
16114W        W34318   1.694   6.183   3.581  0.2678 -0.1454  0.0749
16115W        W34319  15.375   6.678  17.179 -0.0317  0.2733 -0.1921
16116W        W34320   7.299  12.636  15.742 -0.3504 -0.2978 -0.4484
16117W        W34321   3.980  16.905   1.471 -0.0555  0.1555 -0.4743
16118W        W34322  14.246   1.444  12.503  0.0553  0.1247 -0.2562
16119W        W34323  11.950   3.428   3.745  0.2645 -0.2357 -0.0662
16120W        W34324   4.145   7.505   0.959 -0.2151 -0.1343  0.0078
16121W        W34325  11.275   4.012  15.604  0.0992 -0.1280  0.2330
16122W        W34326  14.820   2.256   1.034 -0.1153 -0.0855 -0.3141
16123W        W34327   7.148   0.467  12.307  0.2245  0.0824 -0.0485
16124W        W34328  15.266   1.259  16.133  0.0626 -0.2657  0.0338
16125W        W34329   9.732   8.107  12.658  0.2735 -0.0005 -0.2660
16126W        W34330  17.231   3.379  14.466 -0.2273 -0.2436  0.1264
16127W        W34331  13.988   7.517  16.042  0.1346 -0.0349 -0.0612
16128W        W34332   2.455   1.869   1.845  0.0405 -0.1060 -0.5344
16129W        W34333  15.471  13.724   0.986 -0.0937 -0.0034  0.1168
16130W        W34334   1.702  13.666   4.351 -0.0142 -0.2879  0.0636
16131W        W34335  16.604   0.039  13.041  0.1228  0.2131  0.2923
16132W        W34336   8.084   5.680  15.703  0.0291 -0.1412  0.1079
16133W        W34337   4.888   8.071  13.319 -0.1526  0.0764 -0.0498
16134W        W34338  10.922  15.759  17.040  0.0356 -0.2326  0.2178
16135W        W34339  13.284  13.940  13.412 -0.2981 -0.2688 -0.2171
16136W        W34340   7.457  12.126  14.125  0.0679 -0.0450  0.1897
16137W        W34341   7.999  14.831  13.038 -0.1290 -0.4461 -0.1476
16138W        W34342  16.279  15.353  15.871 -0.0153 -0.1757  0.1393
16139W        W34343   0.225  12.880   5.179 -0.1693 -0.0378 -0.0937
16140W        W34344   0.186  15.719  14.880  0.2069  0.0115  0.1604
16141W        W34345   9.885   6.146   2.353  0.1310 -0.1797  0.0628
16142W        W34346   3.022   3.537  16.516 -0.0300  0.6741 -0.1272
16143W        W34347  15.591  10.317   0.895  0.1826 -0.1700 -0.0570
16144W        W34348   7.069  10.268  15.133  0.0865 -0.0310 -0.1407
16145W        W34349  14.219   9.939  16.604 -0.1781  0.1809 -0.0278
16146W        W34350  12.814  16.460   1.306 -0.1196 -0.0282 -0.0440
16147W        W34351   0.719  14.575  14.093 -0.1814  0.3851  0.2453
16148W        W34352  16.872   1.958   0.714  0.0515 -0.0116 -0.2222
16149W        W34353   3.350  14.664   3.881 -0.1929  0.0526 -0.0732
16150W        W34354  11.212   2.757  17.439  0.2764 -0.4068  0.2670
16151W        W34355   4.164  14.605  15.859  0.2278 -0.1232 -0.1114
16152W        W34356   5.023   9.303  15.236 -0.1210 -0.2825 -0.2392
16153W        W34357   5.856   8.084  17.493 -0.0214  0.0850  0.0556
16154W        W34358   8.577  11.345  12.546  0.1259 -0.1404  0.0890
16155W        W34359  12.848  10.089  12.361  0.1127 -0.1405 -0.0924
16156W        W34360   0.293   1.129   0.174 -0.0193  0.0554 -0.0639
16157W        W34361  11.210  16.162   1.832  0.0182 -0.0830  0.1045
16158W        W34362  10.083   1.482  15.931 -0.1528  0.0833  0.0936
16159W        W34363   0.291  16.756  13.393 -0.1970 -0.0818  0.0375
16160W        W34364   9.128   1.443   2.339 -0.2120 -0.1514  0.0325
16161W        W34365   0.245   4.748  13.192  0.0956  0.0088  0.1742
16162W        W34366  16.367   9.900   0.601  0.2284  0.2338  0.0480
16163W        W34367   3.992   4.008   3.532 -0.0346  0.0298 -0.2396
16164W        W34368   4.674   5.191  13.366  0.0142  0.1859 -0.1559
16165W        W34369  11.735  12.244   3.656 -0.2266  0.2676  0.0569
16166W        W34370   8.065   8.402  15.047  0.0567  0.0601  0.0219
16167W        W34371   6.397  10.725   3.902 -0.2913 -0.1405 -0.3112
16168W        W34372  13.995   2.027  14.258  0.0221  0.1700  0.1271
16169W        W34373   7.812  16.900   5.230 -0.1830  0.0368 -0.0053
16170W        W34374   5.132  15.728  14.320 -0.1169 -0.2975  0.2036
16171W        W34375   0.439   8.633  16.257 -0.0509  0.2062  0.1646
16172W        W34376   1.743   8.935   2.467 -0.0197  0.0492  0.2100
16173W        W34377   8.412  13.955  17.022  0.0333  0.0665  0.1219
16174W        W34378  10.382  16.894   1.247 -0.0968  0.1590 -0.2045
16175W        W34379   8.312   9.302  13.815  0.1189 -0.3658 -0.0657
16176W        W34380  14.794  12.738   2.560  0.1573 -0.1510 -0.2530
16177W        W34381   7.888   1.650  13.165 -0.2898  0.1567  0.1046
16178W        W34382  12.394   8.616  14.084 -0.2332  0.2551 -0.0704
16179W        W34383  15.329  14.764  16.161 -0.2974 -0.2817  0.2704
16180W        W34384   7.135   0.103   3.048 -0.2787 -0.0225 -0.2715
16181W        W34385   9.839   6.787  16.967  0.0434  0.0355 -0.1923
16182W        W34386  10.441   6.023  13.659 -0.0775  0.0036 -0.0643
16183W        W34387   0.034  14.981  13.906  0.1331 -0.3068  0.0630
16184W        W34388   8.853  16.470  16.648 -0.0274  0.1363 -0.1952
16185W        W34389   8.975  17.322  17.360  0.0764 -0.1863 -0.2428
16186W        W34390  11.078  12.536   4.340 -0.0145  0.0709  0.2439
16187W        W34391   8.084   2.452   3.946  0.0194  0.0475  0.0201
16188W        W34392  13.254  13.133  15.513  0.0885 -0.1497  0.0756
16189W        W34393   8.478  13.632  13.672  0.1001 -0.1914  0.0569
16190W        W34394   3.401  15.525  14.993 -0.2108 -0.0528  0.0917
16191W        W34395   4.915   1.048   3.570  0.3339 -0.0751  0.3961
16192W        W34396   3.911   0.932   2.729 -0.0074 -0.1095 -0.1941
16193W        W34397  12.774  13.859  14.778 -0.0409 -0.0376 -0.1664
16194W        W34398   9.355  14.354  14.594 -0.2698 -0.0464 -0.0415
16195W        W34399   6.024  13.608   4.850  0.0582  0.0129 -0.0399
16196W        W34400   3.508   8.190  13.722 -0.0317  0.0802  0.3020
16197W        W34401  16.256   2.682  16.161  0.0181  0.2402  0.0232
16198W        W34402  14.157  10.458   0.317 -0.0564  0.0134  0.1937
16199W        W34403   8.240   0.286  12.846  0.0125  0.3397  0.3234
16200W        W34404   4.054   8.585   3.682  0.0839 -0.3924  0.2747
16201W        W34405   4.441   3.751   0.873  0.1210  0.1784  0.2560
16202W        W34406   1.521   7.761  12.256  0.0168 -0.0119 -0.0600
16203W        W34407  11.934   3.017  12.150  0.0909  0.1900 -0.1044
16204W        W34408  16.579   4.548  15.157 -0.1244 -0.0772 -0.0140
16205W        W34409  12.668   5.917   1.422  0.2891  0.1247  0.1018
16206W        W34410   3.514   8.240  16.167 -0.2085 -0.0800  0.1886
16207W        W34411  16.743   9.088   4.399  0.3791  0.3337  0.1525
16208W        W34412  11.384   6.348   1.674  0.0258 -0.1536  0.2082
16209W        W34413   0.002  12.676   3.891 -0.0518 -0.0407  0.2241
16210W        W34414  16.297   0.930  13.450  0.1847  0.1628  0.0743
16211W        W34415   1.792   3.425  16.399  0.2863 -0.0235 -0.0415
16212W        W34416   0.928   7.664   4.574  0.2748 -0.0838  0.2688
16213W        W34417  12.147   7.521  12.426  0.5162 -0.1324  0.0506
16214W        W34418  16.131   1.667  12.100 -0.0375 -0.1462  0.1688
16215W        W34419   0.588  15.875  14.049 -0.0589 -0.3205  0.1730
16216W        W34420   0.096   5.741  12.295 -0.0040  0.1623  0.4439
16217W        W34421  10.317  14.416   0.650  0.0561 -0.0201 -0.1325
16218W        W34422   9.662  15.121  13.328  0.2934 -0.0741 -0.1991
16219W        W34423  11.025   9.972   5.201  0.0834 -0.2600 -0.1025
16220W        W34424  10.388   8.898  16.488  0.1210 -0.0062 -0.1947
16221W        W34425  15.913  10.959  15.482  0.1385  0.1606  0.1054
16222W        W34426  13.078  14.772   1.895  0.1810  0.1337 -0.0083
16223W        W34427   5.602  13.914   4.892  0.0413  0.0507  0.0410
16224W        W34428  15.967   1.051   1.562 -0.1495 -0.4121 -0.0170
16225W        W34429   1.551   2.517   5.624  0.0168 -0.1260  0.1816
16226W        W34430  10.400  10.968  17.267 -0.0599  0.0147 -0.0432
16227W        W34431   9.933   8.044   6.428  0.2352 -0.0502  0.2722
16228W        W34432   0.793   7.770  16.134  0.1386 -0.3110  0.1406
16229W        W34433  11.568  13.559   0.961  0.0124 -0.1111  0.2109
16230W        W34434   8.138  10.173  14.732  0.2268  0.1946 -0.0214
16231W        W34435   8.462   6.075  14.394  0.2037  0.1601  0.2394
16232W        W34436   9.936  10.540  13.430  0.1634 -0.0281  0.0075
16233W        W34437  10.011   8.707  13.387 -0.1299 -0.1285  0.0337
16234W        W34438   2.704   6.590   2.699 -0.0923 -0.1519  0.0971
16235W        W34439   3.567  17.282  16.715  0.3393  0.2657 -0.0982
16236W        W34440   3.895   2.772  15.626 -0.1137 -0.1554 -0.0684
16237W        W34441   2.092   7.365   5.258  0.1297 -0.0765  0.3110
16238W        W34442  11.150   4.648   1.420 -0.1381  0.1383 -0.0894
16239W        W34443   4.394   7.929   1.437 -0.2179 -0.1262  0.0696
16240W        W34444  16.243   9.058  16.151 -0.0900  0.2745  0.0098
16241W        W34445  14.251  14.789   2.495 -0.0026  0.0036 -0.0549
16242W        W34446   1.507  15.687  14.031 -0.3794 -0.1980 -0.2003
16243W        W34447   7.165   7.300   1.210  0.2206 -0.1353 -0.1014
16244W        W34448   1.770   2.943   5.274 -0.0854 -0.0368 -0.2855
16245W        W34449  11.118   5.392   4.191 -0.2422  0.0163  0.2332
16246W        W34450   7.314   9.099   2.053  0.0711 -0.0776  0.0162
16247W        W34451   6.114   1.100   2.439 -0.1022  0.1409  0.0835
16248W        W34452  17.225  14.316   0.432 -0.4812  0.2688 -0.0445
16249W        W34453   7.164   3.282  16.203  0.1014 -0.0686 -0.0149
16250W        W34454  11.688  13.069  15.034  0.2892 -0.0485  0.1012
16251W        W34455   2.827   0.479   1.610 -0.0196  0.1219 -0.1879
16252W        W34456   4.199   1.810  17.379 -0.3575  0.1014  0.3558
16253W        W34457   9.567   2.664   3.905 -0.1435  0.2253 -0.0701
16254W        W34458   8.472   0.549  15.260 -0.0205  0.4347 -0.0741
16255W        W34459  10.031   8.636   5.336  0.0156 -0.3294  0.1544
16256W        W34460  12.272   2.402  12.739 -0.3507 -0.0202  0.2001
16257W        W34461   1.105  12.430   1.788  0.0746  0.1305 -0.0125
16258W        W34462  16.946  10.956   5.680 -0.0745  0.0457  0.1908
16259W        W34463   7.208  16.377   3.544 -0.0331  0.1876 -0.0271
16260W        W34464  17.014  14.112   2.418  0.0730 -0.1956 -0.1657
16261W        W34465   9.911  16.289   2.670  0.0301  0.0959  0.3628
16262W        W34466   9.492   3.745   2.377  0.1999 -0.0315 -0.0772
16263W        W34467  17.139   6.759  16.032 -0.0962  0.1464 -0.0105
16264W        W34468  15.823   1.236  16.183  0.2485 -0.2336  0.0821
16265W        W34469   7.323  16.461   3.011 -0.4520 -0.0170  0.1586
16266W        W34470   5.897  11.684   4.044 -0.1193  0.1077  0.3215
16267W        W34471   8.362  10.254   5.045  0.0763  0.0683 -0.2004
16268W        W34472  15.829  16.971  17.287  0.0273  0.0771 -0.1540
16269W        W34473   5.517   2.789   0.958 -0.0742 -0.0169  0.2067
16270W        W34474  14.962   6.725  12.169 -0.0712  0.0196 -0.1110
16271W        W34475  14.929   3.363  12.656 -0.1184 -0.0006  0.2423
16272W        W34476   6.959  13.303  16.101 -0.2764 -0.0431  0.2678
16273W        W34477   2.495  15.734   1.137  0.1748 -0.2841  0.0362
16274W        W34478   1.474   9.390  16.917  0.1443  0.0528  0.0820
16275W        W34479  13.334   3.258  15.731  0.0401 -0.0372 -0.0093
16276W        W34480   1.379   7.829  15.016  0.1963 -0.1740 -0.0870
16277W        W34481  13.763   3.464  13.888  0.2407  0.1804 -0.0117
16278W        W34482  14.055  17.263   3.897 -0.1754  0.0424  0.0507
16279W        W34483   5.088  14.360   3.048  0.3315  0.0746 -0.3498
16280W        W34484   8.073   3.894   4.094  0.1217 -0.1156  0.1614
16281W        W34485  11.191  13.140  16.632  0.0454 -0.1375 -0.1772
16282W        W34486   1.385   7.848  11.787  0.1369  0.0781  0.0885
16283W        W34487   2.961   2.939   4.882 -0.0434 -0.2952 -0.0754
16284W        W34488  10.956   9.792   0.792 -0.2796  0.0675 -0.0636
16285W        W34489  14.066  11.751  14.868 -0.4166  0.0236 -0.0988
16286W        W34490   2.191  16.689   1.002  0.0264 -0.0955  0.1920
16287W        W34491   2.963   2.937  15.774 -0.0062 -0.2815 -0.0853
16288W        W34492   2.562   1.890  16.534  0.3057  0.0979  0.1719
16289W        W34493   6.631  11.891  16.034 -0.1011 -0.2890 -0.1294
16290W        W34494   7.894   9.648  14.126  0.0503  0.0451 -0.8063
16291W        W34495   9.671   6.114  13.140 -0.1052 -0.2480  0.2548
16292W        W34496   0.215  11.889  14.344 -0.1965 -0.1058  0.1339
16293W        W34497   5.625  13.627   0.864 -0.0270  0.0593  0.2098
16294W        W34498   3.733  10.969  16.052 -0.0436 -0.0151 -0.3473
16295W        W34499  11.404  13.627   4.029 -0.1833 -0.1151  0.1981
16296W        W34500   4.082   9.454  12.425  0.4192  0.0898  0.0932
16297W        W34501  13.021   8.496   3.809 -0.0526 -0.0225 -0.2972
16298W        W34502   5.580   5.857   1.420  0.1585  0.4450 -0.1500
16299W        W34503  10.932  11.142   4.516 -0.0623 -0.0942 -0.2355
16300W        W34504  14.411   3.775   2.841  0.1946  0.0973 -0.0200
16301W        W34505  13.105   5.041   4.511  0.0006  0.0547  0.2355
16302W        W34506  15.144  15.283   5.726  0.0538 -0.0327  0.2192
16303W        W34507   0.736  15.330  13.936 -0.2853 -0.0759 -0.2385
16304W        W34508  16.835   4.745   1.189  0.0353  0.2175  0.1270
16305W        W34509  10.955   7.135   5.254 -0.0978  0.2522 -0.0789
16306W        W34510  13.631   4.660  12.357  0.3472  0.0656 -0.0203
16307W        W34511  15.500   2.568  13.163  0.1530 -0.4909  0.1942
16308W        W34512  12.687   9.186   0.175 -0.2135 -0.3582 -0.2686
16309W        W34513  11.327  15.982  17.314  0.2756  0.2689 -0.4438
16310W        W34514  10.869   1.826  12.518 -0.0554  0.0263  0.3648
16311W        W34515  11.729  16.219  12.694  0.2128 -0.1955 -0.0702
16312W        W34516  11.295  15.554  13.669 -0.0141  0.3159  0.0495
16313W        W34517   2.168   2.462   3.585 -0.2137  0.2962  0.2767
16314W        W34518  12.769   0.374   1.042 -0.2310  0.1226  0.1609
16315W        W34519  14.393  13.837   1.426  0.0048  0.0832 -0.1301
16316W        W34520   4.699  15.348  13.271 -0.3629 -0.1298  0.0206
16317W        W34521   3.459  10.450  12.917 -0.0837  0.2104 -0.0624
16318W        W34522   8.154   3.026   2.941  0.0296  0.1015  0.2287
16319W        W34523  13.842  13.585   0.567 -0.1980 -0.1579 -0.2459
16320W        W34524  16.769  14.984   1.892 -0.0290 -0.1060  0.1311
16321W        W34525   8.913   4.415  16.440 -0.0211  0.1980 -0.2158
16322W        W34526   5.084   8.218   4.511  0.1503  0.0400 -0.0081
16323W        W34527   5.167  16.872  13.116 -0.0519 -0.0485  0.1885
16324W        W34528   1.532  14.081   0.692 -0.2373  0.0248  0.2945
16325W        W34529  12.464  10.157  13.887  0.0178  0.2029 -0.0558
16326W        W34530   1.528  10.485   3.617 -0.0713 -0.3833  0.0060
16327W        W34531  10.904   2.242  17.369 -0.3449 -0.2557  0.0312
16328W        W34532  11.242  15.866   4.613 -0.1101  0.2463 -0.1684
16329W        W34533  14.860   3.952   5.573 -0.3211  0.0332 -0.0015
16330W        W34534  12.549   1.338   2.850  0.3762 -0.4149 -0.2040
16331W        W34535   3.024   5.604   3.278 -0.0577  0.1197 -0.1205
16332W        W34536   9.453   5.524   2.778  0.0747 -0.1993  0.0457
16333W        W34537   7.054   8.087   4.588  0.0472  0.0543 -0.1371
16334W        W34538   2.080   3.805   0.161 -0.3964  0.0781  0.0112
16335W        W34539   1.538  16.204  12.129 -0.2433  0.1352 -0.0766
16336W        W34540   2.381  15.235   0.250 -0.1648  0.2150 -0.1124
16337W        W34541   6.480  12.009   0.471 -0.1263 -0.1918  0.2889
16338W        W34542   7.698  16.551   3.371  0.0707  0.1115  0.2977
16339W        W34543   5.005   5.291   0.013 -0.0253 -0.0062  0.0523
16340W        W34544   0.605  16.471  14.272 -0.1254 -0.1731 -0.1542
16341W        W34545   3.252   7.625   1.827 -0.1105 -0.1339 -0.0256
16342W        W34546   9.969   9.910  15.715 -0.1444  0.0009 -0.0491
16343W        W34547   4.188   6.680  12.491  0.0785  0.0203  0.0687
16344W        W34548  15.084  14.560   4.382  0.0191  0.1110  0.1289
16345W        W34549  13.077   8.091   4.751 -0.2404  0.2929 -0.0084
16346W        W34550   8.435   4.376  16.992  0.1103  0.0842 -0.1565
16347W        W34551  16.330   4.578   1.154 -0.0275  0.1582  0.0328
16348W        W34552   9.906  12.547   3.858  0.0122  0.0836  0.0026
16349W        W34553  16.988  13.288   1.779 -0.0867  0.2994  0.3425
16350W        W34554  14.957   1.681   1.294 -0.0684 -0.2231  0.0658
16351W        W34555   0.476  16.053  15.038 -0.0301 -0.0378  0.0628
16352W        W34556   5.235  12.039   2.899  0.0047  0.0858 -0.1259
16353W        W34557  15.778  13.503  14.525 -0.0588  0.0297  0.0314
16354W        W34558  17.073   5.259   5.068  0.1640 -0.0654  0.1258
16355W        W34559   6.026  10.780   2.704  0.0014  0.2461 -0.4914
16356W        W34560   5.132   8.299   2.975 -0.2013 -0.3050 -0.0847
16357W        W34561   4.510   3.856  15.095  0.4516 -0.3520 -0.1136
16358W        W34562   1.326   3.159  14.567 -0.2240  0.1612 -0.2524
16359W        W34563   3.122  10.540  14.376  0.1138 -0.1967 -0.1282
16360W        W34564   7.947   3.943   1.150 -0.1115  0.0798 -0.1360
16361W        W34565  10.493  15.135  15.935  0.2784  0.2333  0.1006
16362W        W34566  12.268   1.897  15.557  0.3048  0.0155 -0.2624
16363W        W34567   4.559   9.474  12.619  0.1554  0.2423  0.1886
16364W        W34568   5.239  11.989   1.710 -0.2233 -0.1560  0.0816
16365W        W34569  10.089   5.757   1.020 -0.0983  0.0622  0.0562
16366W        W34570   6.540   0.713   3.179  0.0210  0.1455  0.0018
16367W        W34571  14.241   1.258   4.184  0.0725 -0.0995 -0.0164
16368W        W34572   2.894  12.748   5.664  0.1793  0.0149 -0.2521
16369W        W34573  15.060   3.624  12.291  0.0325 -0.0990 -0.1844
16370W        W34574  15.215   1.624   2.271  0.1615  0.0224 -0.1530
16371W        W34575   4.189   9.431  14.996  0.0718  0.0013  0.2332
16372W        W34576  12.266  10.893  13.523 -0.0429 -0.1814 -0.0643
16373W        W34577   6.796   3.567   3.319  0.2710  0.0449 -0.0591
16374W        W34578   6.994  14.787  17.331  0.0924  0.1248  0.2198
16375W        W34579  15.482   3.105   2.360  0.2219  0.0043  0.0003
16376W        W34580  13.304  12.594   5.276  0.1497  0.0254 -0.2866
16377W        W34581  14.635   9.913  15.685 -0.1529  0.0516 -0.0301
16378W        W34582  10.930   7.443   0.566 -0.1586 -0.2706  0.4520
16379W        W34583   1.811  12.278  17.012  0.1782  0.1678  0.0827
16380W        W34584   6.666  13.595   1.352 -0.2643 -0.2639  0.1045
16381W        W34585   4.130   7.530   2.387  0.2792  0.2636 -0.0774
16382W        W34586  10.335   7.412  14.784  0.0682 -0.0715  0.1452
16383W        W34587   5.712   0.875   1.827 -0.0873 -0.1095 -0.0608
16384W        W34588   7.917   5.756  13.603  0.0652 -0.1108  0.0377
16385W        W34589  10.600  11.413  14.985  0.0868  0.0866 -0.1238
16386W        W34590   0.077   1.852   5.703 -0.3339 -0.0704 -0.4286
16387W        W34591   3.125  11.478  15.286  0.0063  0.1434 -0.3083
16388W        W34592   2.934  10.511  12.905  0.0576 -0.0672 -0.0016
16389W        W34593  13.954   0.811   2.519 -0.2297 -0.3061  0.0020
16390W        W34594   4.167   5.543  12.148 -0.0360  0.0434  0.1457
16391W        W34595   2.911  16.045  13.817 -0.0523  0.0964  0.0679
16392W        W34596  14.523   9.064  12.810  0.2286  0.1176 -0.1021
16393W        W34597  14.144  10.957   0.213  0.0750 -0.0441 -0.1482
16394W        W34598   5.020  11.520  12.996 -0.4560 -0.0031  0.0198
16395W        W34599  12.549  13.018   5.049 -0.0101  0.0630  0.1107
16396W        W34600   9.142   0.173   4.453  0.0796 -0.1414 -0.4005
16397W        W34601  16.982   3.559  15.998  0.0491  0.2185 -0.0638
16398W        W34602   4.390   1.334   1.550 -0.0270  0.2407  0.1814
16399W        W34603   4.994  10.566  12.562  0.1946  0.1935 -0.0621
16400W        W34604  13.565  13.391   3.213  0.1067 -0.2047  0.3009
16401W        W34605   4.315  14.231   0.750  0.0275 -0.1270  0.1325
16402W        W34606   6.776  10.454  14.317 -0.0128  0.1642  0.0387
16403W        W34607   0.994  12.647  16.273 -0.1231 -0.1004  0.0441
16404W        W34608   7.274  10.791  13.208 -0.2146 -0.4495  0.1384
16405W        W34609  13.105  10.129  13.278  0.0185 -0.4089 -0.2036
16406W        W34610   2.177   7.559   0.679  0.0174 -0.0822  0.0758
16407W        W34611   7.451   3.887  17.279  0.1292  0.0043 -0.0925
16408W        W34612  12.634  11.011   3.955  0.0343  0.1200 -0.2464
16409W        W34613   2.323   7.095   5.651  0.2120  0.1994 -0.1291
16410W        W34614   1.689  13.773  13.018  0.0228 -0.0019 -0.1420
16411W        W34615  10.257   1.954  14.520 -0.2757 -0.1264  0.3647
16412W        W34616   6.742   4.697  15.702  0.1192 -0.1850  0.2775
16413W        W34617   9.744   1.670  12.549  0.2057 -0.0938 -0.2890
16414W        W34618  12.346   2.359  14.351 -0.0426 -0.4649 -0.1022
16415W        W34619   0.851  16.021   2.165 -0.1999 -0.0860  0.1987
16416W        W34620   9.541   6.234  17.247  0.1099 -0.2350  0.2151
16417W        W34621   9.654   5.105  14.799  0.3317 -0.0648  0.0526
16418W        W34622   3.560   9.328  13.424  0.0992  0.1688 -0.0815
16419W        W34623   4.935  15.289   3.276  0.1579 -0.1920  0.2548
16420W        W34624   7.006  11.792  13.965 -0.1661  0.1897 -0.0404
16421W        W34625   3.587  13.383   1.304  0.1151 -0.0661  0.2772
16422W        W34626   2.857   1.622  12.344  0.0098  0.1842  0.1851
16423W        W34627  10.453  14.377  14.735 -0.1725 -0.0273 -0.2715
16424W        W34628   1.685   7.553  17.134 -0.1488  0.0364  0.0257
16425W        W34629  12.523   7.643   0.876  0.1800  0.0491 -0.0011
16426W        W34630   8.343   9.117  17.492 -0.1313  0.1687 -0.0446
16427W        W34631  15.235   2.106   1.987 -0.2461  0.0123 -0.3435
16428W        W34632  14.810   9.769  16.613  0.0469  0.0026  0.2216
16429W        W34633  10.761   8.445   0.618 -0.2017  0.2236  0.1347
16430W        W34634   0.766  12.798   0.714 -0.0957  0.0966  0.1950
16431W        W34635  13.370   1.111   1.322 -0.0273 -0.1979  0.1675
16432W        W34636  13.661  13.034   3.557 -0.1356 -0.0044  0.0333
16433W        W34637   0.501  13.234  15.871  0.1111 -0.0618 -0.1137
16434W        W34638  16.095   3.390  16.447 -0.1506 -0.1556 -0.0193
16435W        W34639  10.004  16.202   4.064 -0.2731 -0.0424 -0.0403
16436W        W34640   7.565   7.493   2.053  0.0756  0.0285 -0.2030
16437W        W34641  12.606   1.640  13.112 -0.1364 -0.2311 -0.0927
16438W        W34642   8.051  13.880  13.406  0.0270  0.1365 -0.0884
16439W        W34643  17.184   7.557  14.216  0.1167  0.1000  0.0959
16440W        W34644   0.362   9.151   0.866 -0.0528  0.0930 -0.3499
16441W        W34645  14.981   1.932  15.370 -0.2179 -0.0522 -0.1413
16442W        W34646   0.448   0.967  15.271 -0.0744 -0.0743 -0.1217
16443W        W34647   4.229   2.690   0.553  0.0612 -0.0118  0.0247
16444W        W34648  15.324  11.952   5.483  0.0099 -0.0042 -0.0797
16445W        W34649   8.067  16.629   3.716 -0.0975  0.0586 -0.2111
16446W        W34650   7.504   4.600   5.181 -0.1835  0.0137  0.0331
16447W        W34651   6.981   9.342   2.606  0.0664  0.2208  0.0043
16448W        W34652  17.065   6.929  15.548  0.0167 -0.1351  0.2005
16449W        W34653   5.232   5.774   1.849 -0.0615  0.1557 -0.1778
16450W        W34654   1.869   8.028   3.643  0.0519 -0.0260  0.1307
16451W        W34655   4.234   7.300   0.095  0.0059 -0.1464 -0.5661
16452W        W34656   0.663  16.716  17.356 -0.4103 -0.2672 -0.0874
16453W        W34657   9.520  12.914  13.438  0.1443 -0.1815 -0.1201
16454W        W34658  16.225   5.228   0.376  0.2044  0.1671  0.1091
16455W        W34659   9.654  12.074   3.988  0.1745  0.1101  0.0061
16456W        W34660  15.622  13.790  16.003 -0.3377 -0.0322  0.0423
16457W        W34661   8.070   7.161   2.646 -0.0481  0.0291  0.3329
16458W        W34662   2.043   7.308   3.198 -0.2717 -0.2008  0.1125
16459W        W34663   6.922  13.508   4.001 -0.0987 -0.1528 -0.0286
16460W        W34664  16.725  16.966  16.762 -0.0524 -0.3071 -0.2287
16461W        W34665  12.637  10.756  16.342  0.0846  0.0398  0.3724
16462W        W34666  10.777  10.660  14.521  0.0340  0.0051  0.0661
16463W        W34667   3.561   5.802   1.122 -0.1771 -0.2142  0.0494
16464W        W34668  14.117  10.657  12.382  0.0016  0.2263 -0.0878
16465W        W34669   3.756  15.765   4.377 -0.0279  0.1995  0.0871
16466W        W34670  14.568  13.940  15.703 -0.2454 -0.2178 -0.1188
16467W        W34671  10.028   1.008  16.003 -0.0102 -0.3201  0.1010
16468W        W34672  11.331   2.769   6.083  0.1452  0.1951 -0.0062
16469W        W34673   1.755  11.868  13.214  0.1654 -0.1065  0.0361
16470W        W34674  11.520  15.708  15.357 -0.0315  0.1240  0.2699
16471W        W34675  15.824  11.106   0.561 -0.4191 -0.2696 -0.0242
16472W        W34676   4.126  16.085   3.405 -0.1300  0.1554 -0.0074
16473W        W34677   5.790   4.935   3.075  0.0579 -0.2710  0.1218
16474W        W34678   7.279   5.598  16.802  0.0679 -0.0067 -0.1644
16475W        W34679   2.279  16.802   4.596  0.1660 -0.0947  0.2216
16476W        W34680  15.976   4.376  17.261 -0.1556 -0.1398  0.1438
16477W        W34681  13.587  14.780  17.293 -0.1788  0.3341  0.0419
16478W        W34682  14.776   6.277  12.028  0.3033 -0.1468 -0.2435
16479W        W34683   7.776   2.932   2.502  0.1377  0.2734 -0.0335
16480W        W34684   7.079   1.169  13.359  0.0533  0.1761 -0.1758
16481W        W34685  12.697   3.863   0.552 -0.2414  0.0335  0.1069
16482W        W34686   6.695  16.493   3.587  0.2515 -0.3205 -0.2311
16483W        W34687   1.424   1.965   0.378  0.0199 -0.2065 -0.0258
16484W        W34688   4.142   0.295  12.138 -0.4262  0.0562 -0.2091
16485W        W34689  12.114  12.944   2.014  0.2761 -0.3739  0.0851
16486W        W34690   7.229   2.570   4.947 -0.1824 -0.0169 -0.0054
16487W        W34691   5.130   6.133   0.442 -0.2755 -0.1571 -0.3234
16488W        W34692   9.577   2.037   2.067  0.1107 -0.1054 -0.1173
16489W        W34693   7.118  17.182  13.530 -0.0215 -0.4019  0.2602
16490W        W34694   1.017   6.170   3.299 -0.2702 -0.1480  0.0388
16491W        W34695  11.258   7.154  12.500  0.1176 -0.0358  0.0050
16492W        W34696   4.598   4.639  16.313  0.0309  0.0362  0.0971
16493W        W34697  11.575  13.512   4.827  0.1131  0.0234  0.0035
16494W        W34698  11.085   9.258  16.649 -0.1999  0.2476  0.2669
16495W        W34699   3.492   6.922  17.197  0.0193 -0.0712  0.0866
16496W        W34700   9.699  11.756   0.318 -0.0486  0.0106 -0.2876
16497W        W34701   0.232   4.908   4.126  0.1667  0.0949 -0.0321
16498W        W34702   9.315   5.646  16.629  0.0912 -0.1580  0.1638
16499W        W34703   1.669  10.185   4.516 -0.1118  0.2154  0.1096
16500W        W34704  12.112   9.001   5.383  0.0712 -0.0523  0.0133
16501W        W34705   1.091   7.731   0.073  0.2290  0.2553 -0.1914
16502W        W34706   0.052  13.870  15.828  0.0304 -0.2473  0.1527
16503W        W34707  16.279   8.282   3.788 -0.0769 -0.0983  0.0070
16504W        W34708   8.867  16.622   4.107 -0.2927 -0.1866  0.0037
16505W        W34709   9.831  16.647   4.119  0.2346  0.0719  0.1073
16506W        W34710  11.474   0.930  17.316 -0.4915  0.1717  0.1674
16507W        W34711   2.904   2.238  15.234  0.0036  0.1849  0.1481
16508W        W34712   6.740  13.752  13.568  0.0023  0.0918 -0.0318
16509W        W34713   8.119   8.764   3.546  0.2516 -0.3013  0.1957
16510W        W34714   7.448  12.943   1.614 -0.1035  0.0748 -0.1597
16511W        W34715   2.031  15.700  16.981  0.3273  0.3193 -0.0371
16512W        W34716   6.595   1.208   4.541  0.1025 -0.1535 -0.3424
16513W        W34717   0.359   8.283   3.549  0.3613 -0.0774 -0.1469
16514W        W34718  12.359   5.138   4.609 -0.0460 -0.1397 -0.4110
16515W        W34719   3.080   6.992  12.557 -0.0208  0.1524 -0.4623
16516W        W34720   4.955  10.926  17.494 -0.1220  0.0276 -0.1199
16517W        W34721  15.545   3.188  16.326  0.0360  0.0849 -0.0761
16518W        W34722  10.026  12.141  15.407 -0.0881  0.0061  0.2291
16519W        W34723  11.187  16.833  13.042 -0.1190  0.0259 -0.0343
16520W        W34724   6.354  16.151  16.984 -0.3685  0.0819 -0.2505
16521W        W34725   9.447   5.286  15.776 -0.2720  0.2198  0.1360
16522W        W34726   1.536  11.842   4.236  0.0838  0.1469 -0.0403
16523W        W34727   0.961  16.090   1.131  0.3615  0.1729  0.3313
16524W        W34728  10.688   4.546   3.854  0.1081 -0.2211 -0.2790
16525W        W34729   9.811  10.623  16.398 -0.1032  0.1858 -0.0019
16526W        W34730   9.341   4.165  13.126 -0.0293  0.3555  0.1931
16527W        W34731   2.727   9.181   4.745 -0.2343  0.0169 -0.1213
16528W        W34732   7.371  15.543   5.732  0.0763 -0.1667  0.0358
16529W        W34733   5.655  14.378  16.174 -0.1771  0.3575 -0.0078
16530W        W34734   4.404   1.860   2.790 -0.0584 -0.0505 -0.2240
16531W        W34735  17.145   9.343  14.166 -0.0504 -0.2907  0.0697
16532W        W34736  15.234  10.182  15.092  0.2387 -0.0390 -0.0979
16533W        W34737  13.871  14.695   5.299  0.1418 -0.0363 -0.1497
16534W        W34738   9.584   7.204   0.412 -0.2273  0.4483  0.1039
16535W        W34739  13.661  16.709  15.792  0.1632  0.0644  0.0418
16536W        W34740  16.607   9.594  12.706 -0.1835  0.1184  0.2164
16537W        W34741   7.825  16.163   0.175  0.1267 -0.0778  0.0938
16538W        W34742  10.567   1.588  15.764  0.1843  0.1106 -0.2239
16539W        W34743  13.574  17.178   3.362  0.3006  0.3585  0.1100
16540W        W34744  16.819   4.450   4.647  0.0287  0.2246  0.0889
16541W        W34745   5.293   8.350   0.819 -0.0458  0.0496 -0.0167
16542W        W34746   4.433  13.623  17.204  0.2982 -0.3562  0.0322
16543W        W34747  12.746   2.266  13.016 -0.1483  0.4158  0.1198
16544W        W34748   2.968   3.204   2.659 -0.0367 -0.1227 -0.0016
16545W        W34749   8.104  16.055  16.311  0.0547 -0.1154  0.2333
16546W        W34750   3.218  12.578   2.318  0.1792 -0.0340  0.1786
16547W        W34751   2.979   2.435  15.882  0.3140 -0.2650  0.2197
16548W        W34752  12.526  16.347   0.937 -0.3462  0.0905  0.1416
16549W        W34753   0.681   0.943   3.856  0.4095  0.0674 -0.0448
16550W        W34754   4.286   6.469   4.094 -0.2200 -0.5405  0.0160
16551W        W34755   2.490   5.044   3.815  0.3721  0.0540  0.0248
16552W        W34756  12.819  12.210  12.227 -0.1067  0.3464  0.2056
16553W        W34757  10.617   7.939  13.992  0.2551  0.2535 -0.0199
16554W        W34758   3.551  14.856  15.695 -0.2097 -0.2518 -0.2809
16555W        W34759  16.047   5.575  17.515 -0.3936 -0.2709 -0.0998
16556W        W34760   7.191   8.948   5.270 -0.0394 -0.2233  0.0493
16557W        W34761   6.946   5.282  14.414 -0.1742 -0.0063  0.1440
16558W        W34762   8.718   6.109  11.215 -0.1407  0.1774  0.1456
16559W        W34763   9.325  13.959   3.699  0.0880  0.0377  0.1767
16560W        W34764   0.525   0.347  12.712 -0.1611  0.0531  0.1012
16561W        W34765  15.280   9.590   0.287  0.0231  0.0534  0.3348
16562W        W34766  15.511   1.717   1.145 -0.0079 -0.0708  0.0834
16563W        W34767   0.963  16.091  14.349 -0.3495  0.0785  0.0743
16564W        W34768  14.564   9.471   2.194  0.2788  0.2083 -0.2590
16565W        W34769   9.311   1.811   1.077  0.0274 -0.0018  0.0872
16566W        W34770   4.768  16.615   2.771 -0.2353 -0.1108  0.0243
16567W        W34771   2.956   5.205   2.789  0.1646  0.1486  0.1927
16568W        W34772   6.514  15.251   3.860 -0.0223 -0.3253  0.0834
16569W        W34773  15.307  14.427  14.229  0.2726 -0.3917 -0.0594
16570W        W34774  14.470   5.572  11.925 -0.0709 -0.0993 -0.2866
16571W        W34775  15.387   3.962   1.389 -0.1370 -0.1345 -0.2432
16572W        W34776   1.932   6.347  13.772  0.0127  0.1881 -0.0293
16573W        W34777  17.150   3.947   2.818  0.2138 -0.1793  0.2141
16574W        W34778  10.986   5.349  14.171  0.1220 -0.2476 -0.2458
16575W        W34779   3.652   0.507  16.670  0.0101 -0.1132  0.3421
16576W        W34780   6.183   9.012  13.502 -0.1188  0.0163  0.0053
16577W        W34781  11.169  12.702  16.352  0.2269 -0.0084 -0.1941
16578W        W34782  16.573   3.272   3.729 -0.1053 -0.1740 -0.1228
16579W        W34783   1.218   7.156  16.284 -0.2410  0.1295 -0.3527
16580W        W34784  11.411   3.027  12.792 -0.1795 -0.2506  0.0739
16581W        W34785  13.533   1.580  16.760  0.1402 -0.0927 -0.0056
16582W        W34786  16.713  10.595   4.260  0.1255  0.2532  0.2651
16583W        W34787   6.278   0.331  15.450 -0.1192 -0.4318  0.1105
16584W        W34788   1.314   4.139  15.468 -0.2822  0.0902  0.0503
16585W        W34789  10.504  15.761   4.045  0.0360 -0.1104  0.0623
16586W        W34790   0.532   1.576   2.628  0.0522  0.0042 -0.1492
16587W        W34791   6.585   5.304  16.366 -0.4886  0.1212 -0.2358
16588W        W34792  12.757  16.070  15.035  0.1799  0.2953 -0.0499
16589W        W34793   9.861  14.275  13.846 -0.0003  0.0223 -0.1810
16590W        W34794  12.020  14.895   4.474 -0.1112  0.2055 -0.1255
16591W        W34795  13.370   9.964  13.720 -0.1459 -0.4321 -0.0483
16592W        W34796  15.134   6.026   3.788 -0.0017  0.0646 -0.1660
16593W        W34797   3.719   5.803  16.703  0.2075 -0.2306  0.0140
16594W        W34798   2.025  14.836  15.195  0.0248  0.1581  0.1442
16595W        W34799   6.881   4.888   2.095  0.1415 -0.1265 -0.2149
16596W        W34800   4.892   0.655  13.281 -0.0871  0.0015  0.1131
16597W        W34801  16.483   0.534  13.285  0.2552  0.0181  0.0960
16598W        W34802  11.373   9.083  15.938 -0.3420 -0.0367 -0.1017
16599W        W34803   2.246  16.209   3.614  0.1245  0.1006 -0.2721
16600W        W34804  12.493   0.784   0.848  0.2441  0.1392 -0.0842
16601W        W34805  12.376   7.215   1.357 -0.1179  0.5135  0.0361
16602W        W34806   3.168   5.921  16.702 -0.0720 -0.0274 -0.0673
16603W        W34807   7.951   3.220  12.934  0.1803  0.0270 -0.1516
16604W        W34808  16.108   2.414  17.259 -0.1141  0.2264  0.0193
16605W        W34809   9.409  16.014   1.355 -0.2114 -0.1259 -0.0157
16606W        W34810   6.014  12.140   1.101  0.4010  0.1012  0.2769
16607W        W34811  13.408  11.929  13.976  0.2349 -0.1015 -0.0940
16608W        W34812  14.707  16.068  15.157 -0.0646 -0.1213 -0.0673
16609W        W34813   3.354   4.928   4.130  0.0625  0.1276  0.2610
16610W        W34814   7.589  14.430   4.982  0.3078 -0.1627  0.2711
16611W        W34815   7.232  17.188   4.266  0.1315 -0.0436  0.1014
16612W        W34816  17.123  14.733   1.634 -0.1050 -0.0659  0.0251
16613W        W34817  14.313   1.742   4.076 -0.1347  0.2383  0.2121
16614W        W34818   4.669   1.999   4.892 -0.2014  0.1489  0.0048
16615W        W34819   4.734  13.122  14.900  0.0799 -0.4112  0.1101
16616W        W34820   8.536  11.347   1.687 -0.1367  0.2281  0.0502
16617W        W34821   0.181   1.197   2.114  0.0663  0.2791 -0.1599
16618W        W34822   4.555   8.922  15.992  0.2150  0.1403 -0.2429
16619W        W34823   6.510   8.750  12.510  0.2009 -0.1520  0.1700
16620W        W34824  17.056   8.760  15.951 -0.0787 -0.0213 -0.0143
16621W        W34825   3.572  16.415  14.109 -0.1298 -0.2295  0.0471
16622W        W34826   9.605  14.042  13.285  0.1795  0.0176 -0.2373
16623W        W34827   2.741   9.233  14.469 -0.3815 -0.0410 -0.3089
16624W        W34828   1.824  14.796   4.384 -0.0471  0.0622  0.2242
16625W        W34829   2.199  10.118  16.837  0.0729 -0.0165 -0.2922
16626W        W34830  14.472   6.831   2.182 -0.0171 -0.0712 -0.1690
16627W        W34831   1.275  11.206   0.869  0.0646  0.0053 -0.1200
16628W        W34832   4.300  15.055  15.529  0.0953 -0.0667 -0.0085
16629W        W34833  11.141  16.609  17.308  0.3006 -0.2858 -0.1305
16630W        W34834  12.876  16.270   2.734 -0.4470  0.0132  0.0210
16631W        W34835  12.053  14.948  15.397 -0.1040 -0.0843  0.2690
16632W        W34836  16.314   6.437   4.306 -0.1723  0.3022 -0.1529
16633W        W34837   4.242   4.105   0.407 -0.1524  0.0254  0.1898
16634W        W34838   8.744   9.446  14.973 -0.2731  0.1004 -0.0199
16635W        W34839  17.172  10.516  16.698  0.3375 -0.2921 -0.0249
16636W        W34840   2.046  12.647  14.992 -0.0346  0.3368 -0.1858
16637W        W34841  12.854  12.416  12.722  0.1057  0.0318  0.0293
16638W        W34842   0.084  11.887   1.056 -0.1927 -0.0853 -0.1581
16639W        W34843  12.793   0.907  13.663 -0.1802  0.1147  0.0593
16640W        W34844  12.433   3.440  17.431  0.3366  0.3632  0.0417
16641W        W34845   8.607   2.802  13.502  0.2129  0.3893 -0.2478
16642W        W34846  12.630  13.403   2.374 -0.0809  0.0392  0.2030
16643W        W34847  13.743   2.861  12.990 -0.0894  0.0811 -0.2380
16644W        W34848  16.062  12.124   5.015 -0.0983 -0.2449  0.0502
16645W        W34849   5.677   8.697   0.521  0.0388 -0.1715  0.1699
16646W        W34850  15.098   7.946   2.172 -0.0512  0.0437  0.1160
16647W        W34851  16.986  15.276  13.654  0.1918 -0.1811 -0.1216
16648W        W34852  10.276   9.828  12.769  0.0521  0.2034  0.1057
16649W        W34853   2.164   5.703  16.751 -0.1338 -0.2311  0.0815
16650W        W34854   4.909  16.821  14.860 -0.0621 -0.1275  0.0786
16651W        W34855   8.907  10.982   0.268 -0.0327 -0.0999  0.1745
16652W        W34856   0.679  16.823   2.675 -0.1209  0.0475  0.0872
16653W        W34857  13.024   8.949   0.696  0.0090 -0.5895 -0.0174
16654W        W34858   8.673   1.333   4.645 -0.0513 -0.0308  0.1019
16655W        W34859   5.221   8.159  12.934  0.0104  0.0721 -0.0598
16656W        W34860   1.995   7.340   4.021  0.3021  0.0447  0.0072
16657W        W34861   6.862   9.648  12.354  0.1704  0.2965  0.0502
16658W        W34862  11.518   2.572   5.619  0.1094 -0.3245 -0.1238
16659W        W34863  13.933   3.631   1.513 -0.0061 -0.0550  0.0306
16660W        W34864  11.636   4.848   1.430 -0.2892  0.3126  0.2172
16661W        W34865   4.170   8.249  14.902 -0.0197 -0.0015 -0.1401
16662W        W34866  15.225  11.526  16.882  0.0588 -0.0176  0.1530
16663W        W34867   3.559  12.792   1.260  0.0984 -0.0489 -0.1033
16664W        W34868  12.475   7.547   1.803  0.1268 -0.2214  0.1108
16665W        W34869   1.024   9.297  16.357  0.1406  0.0554 -0.1653
16666W        W34870  14.276   4.494   5.300 -0.0301  0.0161 -0.0855
16667W        W34871   6.610   4.592   1.389 -0.1575  0.2822 -0.0170
16668W        W34872  11.713  14.620  13.650 -0.2578  0.1257 -0.4717
16669W        W34873   2.831   7.154   3.688 -0.0194 -0.0781  0.1051
16670W        W34874   6.300   8.493  16.729 -0.2096 -0.0217 -0.0342
16671W        W34875  13.042   2.907   4.414 -0.0754  0.0783  0.1053
16672W        W34876  16.814  11.838  15.959 -0.0976 -0.0976 -0.1300
16673W        W34877  11.693   2.206  13.127  0.1731 -0.0363 -0.1106
16674W        W34878  16.619   7.718   3.201  0.0212  0.0169  0.0579
16675W        W34879   9.357  16.254  16.707 -0.0356  0.3513 -0.0904
16676W        W34880   0.887  15.765  17.434  0.2430 -0.2676  0.3752
16677W        W34881  17.289  15.283  14.354 -0.1673 -0.0362 -0.0356
16678W        W34882   1.025   9.875   0.803 -0.2083  0.1482 -0.0468
16679W        W34883  11.328  17.274  15.798 -0.2101  0.2250 -0.0889
16680W        W34884  16.423  13.412  16.634 -0.0378 -0.2597  0.4977
16681W        W34885   4.429   9.842   0.853 -0.0344 -0.0008 -0.0997
16682W        W34886   8.673   5.512  15.617 -0.0385  0.1269  0.0679
16683W        W34887   9.299   9.019   4.018 -0.1691  0.2372 -0.1155
16684W        W34888   7.493   5.736  15.485  0.1058  0.0649 -0.3828
16685W        W34889   5.811  16.986   2.249  0.1240 -0.2065  0.2948
16686W        W34890  16.072   5.820   2.614 -0.1619 -0.1122 -0.0793
16687W        W34891  16.409   1.052  14.990 -0.2618  0.1980 -0.2565
16688W        W34892   0.604   4.638   0.153  0.2193  0.0285  0.0063
16689W        W34893   5.338  14.123  15.882  0.0567 -0.2711 -0.2867
16690W        W34894   2.293  15.570   5.672 -0.1796  0.0926  0.1299
16691W        W34895   4.504   9.582  14.488 -0.1323 -0.0108  0.0558
16692W        W34896  11.394   4.398   2.486  0.3692 -0.2820  0.3570
16693W        W34897  12.396   8.188   4.377  0.1710  0.2395 -0.0410
16694W        W34898   7.190   9.608   2.989  0.1087 -0.2068  0.0379
16695W        W34899  10.402  13.129   0.435  0.0642  0.1629  0.0501
16696W        W34900  16.512   6.734   5.325  0.1215 -0.0528  0.1470
16697W        W34901   7.813  10.557  14.150 -0.2476 -0.3771 -0.1846
16698W        W34902   6.050  13.235   1.909 -0.0848  0.0849  0.1623
16699W        W34903  14.177   9.957   3.696  0.0522 -0.5256 -0.0449
16700W        W34904  14.580  12.148  17.228 -0.2620 -0.2845  0.1199
16701W        W34905   1.514  16.251   3.200 -0.0362 -0.1960 -0.0672
16702W        W34906  13.088   2.217   1.716  0.0161  0.0177  0.3817
16703W        W34907  16.635  11.295  15.805 -0.1040  0.3491  0.1171
16704W        W34908   5.959  11.485   3.214 -0.0859  0.2147 -0.2917
16705W        W34909   2.631  15.619   3.176 -0.1863  0.2018  0.0822
16706W        W34910  10.597  16.008  13.252  0.1020 -0.2480  0.0934
16707W        W34911   1.247   1.224  15.806  0.1887  0.0439 -0.3693
16708W        W34912  13.787   4.478  12.872  0.0899 -0.0554  0.0613
16709W        W34913   2.205   8.174  13.244 -0.0971 -0.2898  0.0745
16710W        W34914   7.609   9.399  12.083 -0.1036  0.0190 -0.0141
16711W        W34915   8.346   5.796  12.300  0.3514 -0.0728 -0.3659
16712W        W34916  15.788   6.839  16.333 -0.0039 -0.1681 -0.1005
16713W        W34917   0.179   0.723   2.558  0.1232 -0.0680  0.0110
16714W        W34918  17.108   0.481  15.088 -0.1212 -0.2602  0.2631
16715W        W34919  15.078   6.343  17.448  0.0819 -0.1488  0.3193
16716W        W34920  13.260  10.812  12.685 -0.1217  0.0800  0.2849
16717W        W34921  13.435   6.977   4.009  0.0468 -0.0757 -0.0906
16718W        W34922   5.138  14.293  12.945 -0.0298 -0.0784  0.2378
16719W        W34923  15.563   2.755  11.739  0.0865  0.1374  0.1262
16720W        W34924  16.328   5.598   2.175 -0.1699 -0.2911 -0.0866
16721W        W34925  15.996   4.768   2.134  0.1531  0.2130  0.1247
16722W        W34926   5.739   1.902   2.144  0.0131  0.3877 -0.0861
16723W        W34927   0.793   4.629   1.441 -0.3170  0.1358  0.2640
16724W        W34928   0.038   7.721  13.805 -0.1372 -0.2141 -0.2278
16725W        W34929  10.734  12.602  16.805 -0.3112  0.1133 -0.3969
16726W        W34930  13.218   5.065   0.586 -0.0842  0.1518 -0.0943
16727W        W34931  15.948   9.509  12.497 -0.0396  0.0646 -0.0950
16728W        W34932   7.447  15.882  12.712  0.0974  0.1942  0.2285
16729W        W34933  10.746  12.616  13.142 -0.0843 -0.0601 -0.3119
16730W        W34934  10.821   6.179  17.161  0.4906 -0.0017  0.0904
16731W        W34935  11.286   9.457   4.939 -0.0307 -0.3038 -0.0300
16732W        W34936   5.217   2.526   4.566 -0.2183 -0.0745  0.1747
16733W        W34937  10.092  11.744   2.539  0.0241  0.1319  0.0547
16734W        W34938  10.423   8.583   0.259  0.1230 -0.3862  0.1629
16735W        W34939  12.917   9.370   3.918 -0.3955 -0.1461  0.0016
16736W        W34940  12.240  10.080   3.968 -0.2494  0.1455 -0.0044
16737W        W34941  10.470   5.149   3.035  0.2206 -0.0210  0.0754
16738W        W34942  13.786  14.807   3.921  0.3664  0.2104  0.1340
16739W        W34943  14.499   1.185  15.166  0.0651  0.0870 -0.1421
16740W        W34944  12.849   1.672  14.709 -0.3268 -0.0149  0.0246
16741W        W34945   5.752   4.458   0.112  0.0099  0.2830 -0.2772
16742W        W34946   9.478  13.535   4.686 -0.0945  0.1598 -0.1411
16743W        W34947  16.688   1.457   0.358 -0.0034 -0.1356 -0.2763
16744W        W34948  10.392   9.714  14.049  0.1976 -0.0059 -0.0988
16745W        W34949   6.591  16.992  14.322 -0.1744 -0.1913  0.1416
16746W        W34950  16.788   5.590  16.200  0.0520 -0.0573 -0.0146
16747W        W34951   3.418   4.227  16.970 -0.0483 -0.2943  0.0626
16748W        W34952   8.726  15.931   4.763  0.0376 -0.0916  0.0843
16749W        W34953   1.662  16.040  16.088 -0.2461  0.0235 -0.2926
16750W        W34954  15.209  11.785  13.610  0.1209  0.0848  0.1039
16751W        W34955  13.150   8.678  16.134 -0.0742 -0.1041 -0.2213
16752W        W34956   0.460   9.366  13.453  0.2242 -0.1313 -0.0357
16753W        W34957  13.077  11.967   4.717 -0.0807  0.1813 -0.1858
16754W        W34958  15.440   1.720   2.712 -0.1199 -0.0269  0.0606
16755W        W34959   4.521   2.040   4.394  0.0076  0.0536  0.0014
16756W        W34960  13.126  16.121   1.567  0.1586 -0.0941  0.0346
16757W        W34961  14.554   8.310   1.144  0.0530  0.1389 -0.1994
16758W        W34962   6.174   4.347   4.209 -0.1759 -0.0118 -0.0985
16759W        W34963   8.953   3.850   3.793  0.0969  0.1272 -0.2782
16760W        W34964  15.056   0.725  13.474  0.0036 -0.0283 -0.0418
16761W        W34965   0.483  14.945  13.765  0.0270  0.0441 -0.2420
16762W        W34966   4.902   7.035  14.682  0.0420  0.1937 -0.3670
16763W        W34967   4.184  11.512  13.193  0.0734  0.3616 -0.1924
16764W        W34968   0.481   0.519   3.174 -0.0009  0.0108 -0.2109
16765W        W34969  14.484  11.521   0.332  0.1368  0.0382  0.2769
16766W        W34970  16.630   8.350  11.412  0.0067  0.3113 -0.1766
16767W        W34971  10.688   5.002   0.013 -0.0390 -0.1075  0.1546
16768W        W34972  16.851  14.333  16.558  0.0608  0.0818 -0.2063
16769W        W34973  14.900  14.396   1.863 -0.2425 -0.0055  0.1519
16770W        W34974  15.134   7.984  13.499  0.0879  0.1567 -0.1249
16771W        W34975   4.270   3.289   5.054  0.2157  0.1626 -0.0631
16772W        W34976  10.020  10.472   3.090 -0.2817 -0.1543  0.2281
16773W        W34977  16.984   7.452   0.935  0.2257  0.0627 -0.2928
16774W        W34978  17.340   5.424   1.196 -0.0183  0.1026  0.1108
16775W        W34979   0.225   1.112  15.739 -0.0442 -0.1272  0.2146
16776W        W34980  11.038   0.626   0.647  0.1045  0.1478 -0.0908
16777W        W34981  17.180  13.754   3.948  0.2348  0.1235  0.3008
16778W        W34982   6.471   9.957  16.826  0.0548  0.0093  0.0921
16779W        W34983  13.877   0.653   3.344  0.1654  0.3436  0.2878
16780W        W34984   9.423   6.949  15.763 -0.2425 -0.0073 -0.1189
16781W        W34985  16.442  15.160  14.290  0.2719 -0.0035 -0.1028
16782W        W34986   0.947  10.441   1.625 -0.0903 -0.0489 -0.1492
16783W        W34987   4.681   6.064  14.878 -0.0196  0.2432 -0.2224
16784W        W34988  16.862   5.501  13.702 -0.0315  0.0267 -0.3705
16785W        W34989   3.275  11.879   4.283 -0.0929  0.1493 -0.1895
16786W        W34990   1.321  16.138   1.475  0.1348 -0.0028 -0.2108
16787W        W34991  15.360  13.595   4.013 -0.2659 -0.2145  0.0590
16788W        W34992  15.702  11.536   5.429  0.1847  0.0073  0.0391
16789W        W34993  11.154   7.711   0.050  0.1480 -0.1612 -0.0504
16790W        W34994   1.724   2.559  11.879  0.4308 -0.0043 -0.0464
16791W        W34995   4.220  17.031   1.916 -0.0276  0.1944  0.0167
16792W        W34996  16.838   1.069  16.942 -0.0763  0.0189 -0.3046
16793W        W34997  11.921   7.367  14.284 -0.0129  0.0987 -0.3798
16794W        W34998   0.958  12.573  16.835 -0.0651 -0.0054  0.0377
16795W        W34999  16.497  12.963   2.615  0.0746  0.2048 -0.0358
16796W        W35000  12.461  15.650   0.298 -0.0360 -0.0007  0.2399
16797W        W35001   9.331  11.853  17.127  0.0817  0.1173 -0.1877
16798W        W35002  11.170  15.379   4.925  0.0078  0.1214  0.0158
16799W        W35003   6.362  11.231  16.491 -0.1718 -0.0034  0.3204
16800W        W35004  12.028   1.802  17.014  0.1047  0.0033  0.2901
16801W        W35005  10.129  16.138  17.001 -0.0677  0.1127  0.2477
16802W        W35006  14.696   0.439  14.719  0.2421  0.0394 -0.0738
16803W        W35007  14.569  13.660  12.351 -0.2285  0.2007 -0.0137
16804W        W35008   9.936  12.723  14.688  0.2639  0.1133 -0.1322
16805W        W35009   7.782  16.053  15.867  0.2887  0.0028 -0.0462
16806W        W35010   3.332   2.504   2.551  0.1313 -0.2339  0.1442
16807W        W35011   4.784   2.739  13.624  0.0986  0.0300 -0.0978
16808W        W35012  10.614   2.063  15.745  0.2710  0.0107 -0.1478
16809W        W35013  13.708   6.921   1.369  0.4349  0.0636 -0.3960
16810W        W35014  14.012   4.068   1.253 -0.0303 -0.2772 -0.0762
16811W        W35015   2.869  11.432  12.563  0.2522  0.1247  0.0011
16812W        W35016   8.530   7.490  15.851  0.4777 -0.0274 -0.2683
16813W        W35017   2.190  13.912   4.446  0.2704 -0.1372 -0.0205
16814W        W35018  13.882  14.086  13.380  0.0954 -0.2143 -0.1037
16815W        W35019  12.640   5.335   2.182  0.1158 -0.0307 -0.0792
16816W        W35020  13.738   3.801  13.347 -0.1098 -0.1518  0.1426
16817W        W35021   5.975  15.893   5.241 -0.2393  0.0390  0.1422
16818W        W35022   2.781   1.941   3.733 -0.1928 -0.2202  0.1799
16819W        W35023  10.259   7.006  16.849 -0.3296  0.1595  0.0106
16820W        W35024   8.102  14.615  16.367 -0.1418  0.0927 -0.2559
16821W        W35025   3.472  14.356  15.708  0.0323 -0.0592  0.0526
16822W        W35026   2.130  11.598   5.042 -0.2120  0.0781  0.0730
16823W        W35027   9.122   9.775  13.330 -0.0733  0.2232 -0.0720
16824W        W35028   6.385  10.268   1.119  0.0495  0.2172 -0.1820
16825W        W35029   3.155   9.829   4.959 -0.1061  0.1618  0.1786
16826W        W35030   2.615  10.521  14.337  0.0737 -0.0275  0.1607
16827W        W35031   9.953  15.547   5.266  0.0301 -0.1795  0.0258
16828W        W35032   3.093  12.827  16.453 -0.2739 -0.0997  0.0762
16829W        W35033   8.013  14.835   1.366 -0.0265 -0.0369  0.1643
16830W        W35034   3.481  10.229   2.951  0.1917 -0.1803 -0.1604
16831W        W35035  11.933  14.466  14.490 -0.1471  0.0356 -0.2281
16832W        W35036  14.478  13.640   0.875 -0.0484  0.1477 -0.1099
16833W        W35037   4.154  14.919   4.011 -0.1310 -0.1173  0.0283
16834W        W35038  10.860   9.185   5.163 -0.4464  0.4436  0.1264
16835W        W35039   3.140   6.341  13.747 -0.1175 -0.1371  0.4913
16836W        W35040   6.005  14.574   1.042 -0.3228  0.5198 -0.0149
16837W        W35041   4.685  15.093  13.672 -0.2374  0.0088  0.0803
16838W        W35042   2.324  16.855   0.456  0.2163  0.1517  0.1476
16839W        W35043   5.378  10.920   3.359 -0.2605  0.1416  0.1053
16840W        W35044   3.694  15.398   0.067  0.0047 -0.1137 -0.0767
16841W        W35045   9.338  13.453  15.768  0.2427 -0.1208  0.1088
16842W        W35046  12.145   9.481  14.566  0.2182 -0.1431  0.3318
16843W        W35047   4.847  13.266   2.969 -0.0663  0.1014  0.0628
16844W        W35048   8.812   8.494  15.337  0.3675  0.2076  0.0765
16845W        W35049   1.133  13.460  13.516 -0.0694 -0.4187 -0.0555
16846W        W35050  16.241   8.449  12.740 -0.2423 -0.2380  0.0768
16847W        W35051  14.179  14.692  14.061  0.0333 -0.2893 -0.2066
16848W        W35052   7.492   4.608  12.508  0.1644  0.0637 -0.1883
16849W        W35053  12.686   0.516   2.019 -0.0742  0.1971  0.4043
16850W        W35054   1.754   9.873  15.118 -0.3199 -0.2078  0.4065
16851W        W35055   8.480  13.841  16.535  0.0145  0.2005  0.2163
16852W        W35056   3.323  14.517   1.390 -0.0252 -0.3139  0.0728
16853W        W35057  13.623  16.557   5.515 -0.2226  0.2571 -0.3351
16854W        W35058   9.111   0.296  15.899 -0.0228 -0.2407  0.0344
16855W        W35059   4.739   7.930  15.884  0.1788  0.1097  0.0449
16856W        W35060   6.802   7.574  13.569  0.4207 -0.2941  0.1398
16857W        W35061  13.883  14.134  17.018 -0.1916 -0.2154  0.2607
16858W        W35062  15.160  10.931  16.792  0.3459 -0.0078 -0.0287
16859W        W35063   0.641   2.931   0.692 -0.0326 -0.0756 -0.0860
16860W        W35064   7.735   2.948   0.392  0.3518  0.3690 -0.0665
16861W        W35065  14.302   1.349   3.533 -0.1488  0.0444 -0.1882
16862W        W35066  10.027   3.033  12.570  0.1866  0.3539 -0.0847
16863W        W35067  12.568  10.635   1.268  0.2307 -0.3364  0.2750
16864W        W35068   0.095   9.779  16.653 -0.1155  0.0571 -0.0204
16865W        W35069   4.949  15.454   1.927 -0.0355 -0.1652  0.1301
16866W        W35070   6.194   4.345   1.583 -0.3213 -0.1967  0.1114
16867W        W35071   1.304  11.012  17.514 -0.2788 -0.1488  0.0531
16868W        W35072   9.117   5.624  15.522 -0.2370 -0.0791  0.3291
16869W        W35073   8.465  17.123   3.019  0.4614 -0.0582 -0.2613
16870W        W35074   7.474  13.806  12.529 -0.3753  0.0708  0.2744
16871W        W35075   8.436   0.728  12.892  0.0937 -0.0503  0.2656
16872W        W35076   8.617  14.831  16.822  0.0052  0.1576  0.0237
16873W        W35077  16.593   9.397  13.268 -0.0370  0.0190 -0.2456
16874W        W35078  12.377   8.108   1.818  0.1037  0.1508  0.3484
16875W        W35079  11.440   2.836   0.933 -0.0733  0.3147 -0.0526
16876W        W35080  11.119  16.197   0.200  0.2220 -0.0721 -0.1702
16877W        W35081  14.737  15.316  15.751 -0.2430  0.0594  0.0692
16878W        W35082   9.059  17.000   4.473  0.0889  0.0164  0.1417
16879W        W35083   9.745   1.535   1.017 -0.0603  0.1497  0.0081
16880W        W35084  15.215   0.532   1.201  0.2897 -0.0392 -0.1512
16881W        W35085   7.265  11.621   3.149  0.3349  0.0584  0.0437
16882W        W35086   4.929   8.680   6.320  0.1026 -0.1850  0.0359
16883W        W35087  11.884   4.068   0.458  0.1411 -0.0939 -0.2511
16884W        W35088  14.119  13.492  17.465  0.4239  0.1185  0.1356
16885W        W35089  17.266   9.210   2.427 -0.1883  0.1249 -0.0834
16886W        W35090   5.750  16.525   3.734  0.0915 -0.1174  0.5055
16887W        W35091   2.263   2.835  14.210  0.1216 -0.2502  0.1417
16888W        W35092   3.823   9.275  17.385 -0.2825  0.1460  0.1935
16889W        W35093   6.653   6.921  14.782 -0.0036  0.0390  0.0431
16890W        W35094   1.952   1.205   5.269  0.0269  0.0630 -0.0281
16891W        W35095   6.696   8.548  12.960 -0.0479  0.1634 -0.2239
16892W        W35096  11.508  17.041   0.454  0.0432 -0.3635  0.0573
16893W        W35097  10.943  15.173  15.739 -0.2332  0.1087  0.0219
16894W        W35098  11.615   4.977   5.250  0.0160  0.0492 -0.0105
16895W        W35099   4.914  16.728  17.439  0.0884 -0.2153  0.1653
16896W        W35100   5.990  15.768   1.190  0.1863  0.1842  0.1396
16897W        W35101   2.067  16.519  16.434 -0.2814  0.2099  0.1846
16898W        W35102   5.801  14.322   1.887  0.3284  0.0155 -0.2552
16899W        W35103   5.082  10.889   1.018 -0.0238  0.2452  0.0292
16900W        W35104  12.832   5.487   1.682  0.0357 -0.0934 -0.1426
16901W        W35105  15.520  12.232   3.008  0.0825 -0.1388 -0.1452
16902W        W35106   8.276  16.113  17.487 -0.0061 -0.3041 -0.2078
16903W        W35107   7.720  17.245  16.186 -0.0735 -0.0339  0.3516
16904W        W35108   9.716  12.995   1.909 -0.5095  0.3194 -0.0159
16905W        W35109  12.801   4.839   0.513  0.0551 -0.0731 -0.1188
16906W        W35110   7.951  13.504  12.377 -0.1293 -0.3373  0.1744
16907W        W35111   2.956  12.860   0.168 -0.2670 -0.0017 -0.0788
16908W        W35112   7.077  16.697   2.305  0.1991  0.3783  0.0049
16909W        W35113   5.184  11.892   0.125 -0.1678 -0.1968 -0.2008
16910W        W35114   6.175   0.897  13.176 -0.1464 -0.1882  0.0477
16911W        W35115   9.300  13.167   0.051  0.4640 -0.0778 -0.1379
16912W        W35116   0.913  14.350  15.750 -0.2166  0.1020 -0.1211
16913W        W35117  15.632   7.122  17.169  0.2368  0.2381 -0.2977
16914W        W35118   4.059   4.486  13.198  0.0733  0.0670 -0.3714
16915W        W35119   4.691  13.745   4.488 -0.1533 -0.2838 -0.2307
16916W        W35120   0.281  13.073   4.450  0.0434 -0.1190  0.0363
16917W        W35121   1.374   4.170   3.509  0.0492  0.0026  0.0305
16918W        W35122  12.669  13.833  12.558  0.1752 -0.1929  0.1229
16919W        W35123   7.214   0.577   0.238  0.0529  0.1400  0.0116
16920W        W35124  15.944   9.130   4.517  0.0688 -0.0700  0.1341
16921W        W35125  11.413  11.871   1.383 -0.0243 -0.0448  0.2066
16922W        W35126   5.855   1.634  16.068  0.2722 -0.1441  0.1368
16923W        W35127   9.723  12.186   2.940 -0.2753  0.0931  0.0259
16924W        W35128   8.737   1.007   1.589 -0.1979  0.0269  0.0446
16925W        W35129   6.378  13.448  16.875 -0.3083  0.1986  0.1468
16926W        W35130   8.843   6.501  13.731  0.4338 -0.2775 -0.1487
16927W        W35131  13.464   4.053   2.072 -0.0283 -0.0944 -0.2745
16928W        W35132   9.884  14.339   3.570  0.1991  0.1062  0.1610
16929W        W35133  12.116   3.875   3.569  0.0708  0.2327 -0.0527
16930W        W35134   8.991   2.435  14.564  0.2584 -0.1738 -0.2929
16931W        W35135   4.185   3.802   4.801 -0.2869  0.0083  0.5483
16932W        W35136   3.388   2.904  13.737 -0.2376 -0.0328  0.1794
16933W        W35137  13.247  14.853   2.926  0.2405  0.0186  0.0758
16934W        W35138  12.696   2.180   0.821 -0.1700  0.2686  0.3247
16935W        W35139   4.540  16.315  15.946 -0.0553  0.0347 -0.4799
16936W        W35140   5.121  14.900  17.383  0.0112 -0.1882  0.2467
16937W        W35141  16.169   0.376   1.044  0.0208 -0.0600 -0.0885
16938W        W35142   4.796  12.503   1.445 -0.2306 -0.3160  0.2300
16939W        W35143   3.756   8.582   4.569 -0.0636  0.1669  0.0672
16940W        W35144   4.317   7.612  12.615 -0.0440  0.1878  0.0431
16941W        W35145  14.483  17.324  16.060  0.0452  0.1333 -0.1987
16942W        W35146  15.507  10.645   3.955  0.0053 -0.2519  0.0151
16943W        W35147  13.545   3.623  12.613 -0.1214  0.0359  0.1506
16944W        W35148  11.602  10.769   4.896 -0.0430  0.3656  0.2829
16945W        W35149   7.437   9.057   1.509 -0.1696  0.3611 -0.3730
16946W        W35150   3.174   9.623  13.863  0.4045  0.2360 -0.0290
16947W        W35151   7.054  14.230  17.214 -0.1805  0.0405 -0.2930
16948W        W35152   8.862   8.463  16.994  0.1480  0.2101 -0.0298
16949W        W35153   4.444   5.360  16.818  0.1862 -0.0777 -0.0445
16950W        W35154  16.695  15.672   5.203  0.0566 -0.2729  0.2044
16951W        W35155   6.590   4.578   0.706 -0.4012  0.1152  0.0664
16952W        W35156   5.112   3.967  12.453  0.4247  0.1219 -0.0815
16953W        W35157  14.836   6.813   3.118  0.0515 -0.3305  0.1768
16954W        W35158   9.565   3.724  13.034 -0.0546 -0.1067  0.0099
16955W        W35159   1.272   8.372  13.534  0.0862 -0.1061 -0.1019
16956W        W35160   3.098   9.050  13.761 -0.0684 -0.0603 -0.0448
16957W        W35161  12.651   5.806  13.231 -0.0094 -0.2484  0.0007
16958W        W35162  15.585  14.574   0.146  0.3833 -0.0238  0.0341
16959W        W35163   1.143   6.609  12.414  0.0249 -0.1578  0.0520
16960W        W35164   7.771   7.495   3.443  0.1353  0.1428  0.1468
16961W        W35165  10.812   0.383  16.066  0.0283 -0.0215 -0.2932
16962W        W35166   7.351  13.384  12.966  0.1503  0.0481  0.0795
16963W        W35167   1.728   8.530   3.629 -0.0149 -0.0094 -0.1621
16964W        W35168   4.590  16.960  13.825 -0.1686  0.0912 -0.0783
16965W        W35169   7.167  12.398   0.851 -0.3024  0.1352 -0.0333
16966W        W35170  14.398   7.766  17.462 -0.1547  0.0700 -0.1527
16967W        W35171   3.792   2.983   0.878  0.0678 -0.0962 -0.1239
16968W        W35172  10.257  12.744   5.633  0.0610  0.0410  0.1438
16969W        W35173   0.456  12.063  16.803  0.1355 -0.1069  0.5961
16970W        W35174   5.734  16.378   2.827 -0.0945 -0.1112 -0.0764
16971W        W35175   2.694  17.141   4.781  0.0031  0.1656 -0.3021
16972W        W35176   0.203   3.215   0.950  0.0755 -0.1593 -0.0827
16973W        W35177   8.256  10.103   1.893  0.2661 -0.1142  0.2130
16974W        W35178   1.829  10.661  15.560 -0.2249  0.0541 -0.3660
16975W        W35179   9.921   8.840  14.812 -0.1228 -0.1571 -0.2206
16976W        W35180   8.094   7.189  13.362 -0.0771  0.1074 -0.0127
16977W        W35181   9.614  13.130   3.694 -0.0105 -0.1035  0.5674
16978W        W35182  16.623   6.059   3.632  0.0797 -0.1476  0.1756
16979W        W35183  13.578  17.100   5.528 -0.1019 -0.0063 -0.2039
16980W        W35184  15.765   7.267   4.367  0.0658 -0.0182 -0.3548
16981W        W35185  12.015   7.847  13.406 -0.2879 -0.0311  0.2859
16982W        W35186   1.371   6.108   4.464  0.1344 -0.1375  0.6115
16983W        W35187  11.306  14.091   3.210  0.1872 -0.2196 -0.0118
16984W        W35188  10.710   8.842  13.304 -0.1785 -0.0077  0.0508
16985W        W35189  14.308   6.433  15.665 -0.0124 -0.1296  0.1959
16986W        W35190  11.220  17.165  17.517  0.1070  0.2131  0.2847
16987W        W35191   2.185  12.250   0.755 -0.2375  0.2812  0.1701
16988W        W35192  14.854   7.427   3.847 -0.2150 -0.0988  0.0634
16989W        W35193  12.019  14.467   4.724  0.2577 -0.0061  0.2302
16990W        W35194  16.013   7.552   2.144 -0.0654 -0.1591  0.0297
16991W        W35195   1.482   1.414   3.475  0.2718  0.1815 -0.1334
16992W        W35196   7.262   0.760   0.706 -0.0600 -0.0335  0.1005
16993W        W35197   1.070  12.145  12.570 -0.0099  0.1609 -0.2710
16994W        W35198   7.798   6.856  12.121 -0.3836  0.2683 -0.2860
16995W        W35199   6.586   1.267   1.198  0.2331 -0.1040 -0.3589
16996W        W35200  10.262   8.847   4.874  0.0688  0.2132 -0.4536
16997W        W35201  17.056   0.627  14.147  0.0397 -0.2213 -0.1647
16998W        W35202   2.444  17.191   2.283 -0.1655  0.3278 -0.0702
16999W        W35203  11.417   8.282  15.314  0.2354 -0.1165  0.2350
17000W        W35204  15.191  16.112   1.151  0.1488  0.1109  0.1036
17001W        W35205   5.216  13.074  13.856  0.0802  0.0292  0.3442
17002W        W35206  10.345   0.997   0.102  0.0834  0.1522  0.1765
17003W        W35207   5.102  10.509  14.612  0.2415  0.0642  0.2102
17004W        W35208   9.798   4.525  14.270  0.0577  0.4538 -0.0099
17005W        W35209  10.618   9.995  14.858 -0.0372 -0.0765  0.0153
17006W        W35210   1.511  10.998   3.334  0.1561 -0.0688 -0.1434
17007W        W35211   5.118   6.556  12.032  0.2581 -0.0367 -0.3597
17008W        W35212  11.955  15.142   1.263  0.0745 -0.0181 -0.0374
17009W        W35213  10.986   8.798   4.323  0.1356 -0.0366  0.1391
17010W        W35214  11.239   3.614  15.261  0.3806 -0.0484  0.1643
17011W        W35215   3.392   1.029  14.711  0.0197  0.0252  0.1719
17012W        W35216  17.231   5.338   4.025  0.0719 -0.0580 -0.0990
17013W        W35217   3.402   5.707  14.383  0.0616 -0.3377  0.1408
17014W        W35218  16.183   0.671   5.170 -0.0430  0.2600  0.1486
17015W        W35219   6.181   1.395  13.797  0.0993  0.1270  0.0839
17016W        W35220   8.981  12.324   0.488  0.0704 -0.0571  0.0050
17017W        W35221  11.930  16.223   0.725  0.0419 -0.0431  0.1664
17018W        W35222  17.110   0.950   2.312 -0.1232 -0.0950 -0.0869
17019W        W35223   1.953   6.119  14.335 -0.1955 -0.0102  0.0078
17020W        W35224  17.145  14.559   4.613  0.1253  0.2396  0.0951
17021W        W35225  16.196   2.711   2.622 -0.0642 -0.0179 -0.2127
17022W        W35226   5.367   5.497  16.569  0.1853  0.0096  0.0547
17023W        W35227   4.640   1.195   4.453  0.3506 -0.5139 -0.0562
17024W        W35228   5.770   0.659  13.342 -0.0520 -0.1836  0.1587
17025W        W35229  16.727   8.658   4.649  0.2255  0.3394  0.3910
17026W        W35230   4.807   2.624  14.118 -0.1803 -0.0353 -0.0993
17027W        W35231  10.642  16.708  16.282 -0.0303  0.2367 -0.1059
17028W        W35232   0.962  12.735   5.218  0.4451 -0.1433 -0.2796
17029W        W35233   3.455   9.243  12.875 -0.0958  0.1040  0.2297
17030W        W35234   7.750  13.377   1.317  0.4650 -0.2403 -0.3329
17031W        W35235   2.703  14.234  17.507 -0.1666  0.4676  0.0081
17032W        W35236  10.750   1.675   1.444 -0.4123  0.0956  0.2134
17033W        W35237  13.144   0.561  12.756 -0.1919  0.0601  0.0338
17034W        W35238   0.572   2.742  14.774  0.1800 -0.3151  0.0126
17035W        W35239  12.484  12.866   0.953  0.1896  0.0558  0.0918
17036W        W35240   0.540  13.797   1.647 -0.0505 -0.0508 -0.4323
17037W        W35241  17.151   6.144  11.950 -0.0448 -0.0418 -0.1628
17038W        W35242   8.083   8.439   0.254 -0.2802  0.2063  0.2522
17039W        W35243   5.235  14.267  14.523  0.0337  0.0765  0.0826
17040W        W35244  15.415  15.493   5.027 -0.0927  0.2839  0.0101
17041W        W35245   2.718   7.290  17.012 -0.0715 -0.1422  0.1968
17042W        W35246   3.702  14.624  14.093 -0.1423 -0.0364  0.0907
17043W        W35247  14.018  16.536  12.733 -0.0310 -0.0184  0.0747
17044W        W35248   4.454  11.935   5.313  0.2828  0.0544 -0.0300
17045W        W35249   5.348  15.134   3.502  0.1493 -0.3197 -0.1066
17046W        W35250   9.235  12.394   5.326  0.2442  0.1417 -0.0753
17047W        W35251  15.115   3.418  16.222  0.2591  0.2819  0.1219
17048W        W35252  14.271   9.494  16.867  0.0458 -0.0157 -0.1648
17049W        W35253   2.375  11.404  16.970 -0.0278 -0.6546  0.2023
17050W        W35254  10.601  16.867  13.522 -0.2366 -0.1364 -0.1914
17051W        W35255   7.801  13.458  17.389 -0.2013  0.1255  0.2299
17052W        W35256  10.405  13.284   4.036 -0.2726  0.0863 -0.0346
17053W        W35257  10.309   4.322  13.366  0.3079 -0.1285  0.0356
17054W        W35258  16.349   2.416   1.343 -0.3428 -0.1175  0.0151
17055W        W35259  10.178   0.505  14.294  0.1724  0.1084  0.1634
17056W        W35260   8.077   2.508  11.572 -0.2158 -0.1757  0.1703
17057W        W35261  11.467  10.251   2.285 -0.0593  0.1354  0.0110
17058W        W35262   3.486   4.262  17.484  0.0417  0.2350 -0.3796
17059W        W35263   1.993   0.720   5.016 -0.0253 -0.0227  0.1625
17060W        W35264   5.744  12.562  14.534 -0.0990 -0.2832  0.3447
17061W        W35265   2.232   4.793   1.095  0.1387  0.0154 -0.0820
17062W        W35266  15.752   1.818  14.133 -0.0039  0.2852 -0.4171
17063W        W35267   3.150   2.521  12.736  0.2435  0.3713 -0.1745
17064W        W35268  15.561   5.741   2.316  0.2067  0.0087 -0.0651
17065W        W35269   0.667   7.524  13.759  0.5181  0.2807 -0.2995
17066W        W35270   0.570   0.514   2.313  0.2465  0.1919  0.1232
17067W        W35271  11.067   5.410   2.821  0.1549 -0.1136  0.0231
17068W        W35272   0.071  11.987   2.680 -0.0546 -0.0463 -0.0923
17069W        W35273  13.003  13.089  16.013 -0.1956  0.1557 -0.2679
17070W        W35274  12.960  14.959   2.377  0.0410  0.2332  0.1152
17071W        W35275  12.043   7.832   4.455  0.1034 -0.0836 -0.1169
17072W        W35276  12.247   3.492   1.176 -0.2275 -0.0824  0.0541
17073W        W35277  16.289   7.709  16.759 -0.0289 -0.1767  0.1075
17074W        W35278  13.748   6.138   3.749  0.2726  0.2834 -0.0770
17075W        W35279   1.992   9.258   3.762  0.0119  0.0134  0.0350
17076W        W35280  10.176  15.819  15.695 -0.3167 -0.0627  0.2002
17077W        W35281   2.537  14.223  13.909  0.0230 -0.0411 -0.0338
17078W        W35282  13.559  15.113  16.152  0.1864  0.0855  0.0909
17079W        W35283  16.195   4.701   5.584 -0.1771 -0.0525 -0.2324
17080W        W35284   3.271  12.105  13.275 -0.1376  0.0443  0.0549
17081W        W35285  13.751   0.034   1.960 -0.1535 -0.2297  0.0341
17082W        W35286   8.401   0.387  12.356  0.0743 -0.3367 -0.1097
17083W        W35287  12.851  15.113   4.599  0.0964  0.0133 -0.0815
17084W        W35288  12.531   2.922  12.210 -0.1602  0.1258 -0.0778
17085W        W35289   1.253   1.815  13.202 -0.0623 -0.0166  0.1781
17086W        W35290   3.131  14.806  11.506 -0.0125  0.0591 -0.1508
17087W        W35291   6.475   4.887   5.021  0.2494  0.1127 -0.2121
17088W        W35292   6.234  11.622   3.687 -0.3562  0.0969 -0.0660
17089W        W35293   6.650  14.627  15.866  0.0398  0.1053 -0.0450
17090W        W35294   1.415   6.532  15.562 -0.0460 -0.2056 -0.3915
17091W        W35295  10.204   8.304   2.208  0.0542  0.0937 -0.1388
17092W        W35296   1.411   0.865  13.470  0.2099  0.2886  0.2114
17093W        W35297  10.360   8.691  13.771 -0.1948  0.2731 -0.0507
17094W        W35298  11.062  12.502  15.511 -0.1129 -0.1217  0.0657
17095W        W35299   2.882   0.749  14.413  0.1438 -0.3180 -0.1674
17096W        W35300   7.653   0.391  14.480 -0.0708  0.0512  0.0448
17097W        W35301   1.577   9.631  15.536 -0.1181 -0.0844 -0.1605
17098W        W35302   8.335   4.171  15.243 -0.1999 -0.1227 -0.1283
17099W        W35303   7.063   6.624  17.188  0.3326 -0.2244 -0.1694
17100W        W35304  13.186  15.493  13.784 -0.1650  0.2625  0.3391
17101W        W35305  11.461   1.256  14.239  0.0707 -0.1014 -0.2736
17102W        W35306   6.856   3.462   2.436 -0.2506  0.0468 -0.6014
17103W        W35307   8.722  16.315   0.178 -0.1199 -0.2501  0.0292
17104W        W35308  12.977   7.594  14.818  0.5208  0.2095 -0.1159
17105W        W35309   6.255  16.749  16.633 -0.2412 -0.0702 -0.3714
17106W        W35310   8.712   2.351  13.739 -0.1161  0.3857 -0.2084
17107W        W35311   9.024  10.158  17.231 -0.1910 -0.1083 -0.0623
17108W        W35312  16.999  10.364  14.451 -0.0107 -0.0750 -0.0898
17109W        W35313  15.734  14.292  14.490 -0.0820 -0.0080 -0.0042
17110W        W35314   3.886   7.574   0.380 -0.0297  0.0986  0.0188
17111W        W35315  13.837  12.000  13.064 -0.1889  0.0154 -0.1645
17112W        W35316  15.837   0.076   3.572 -0.1559 -0.0799  0.2069
17113W        W35317  14.740  16.761   1.635 -0.0612  0.1655 -0.3688
17114W        W35318   4.846   5.839   0.760 -0.2992 -0.1729  0.2710
17115W        W35319   0.702  15.770   3.931 -0.0947 -0.2893  0.0145
17116W        W35320  10.739  14.088  12.706 -0.0142 -0.0331 -0.0134
17117W        W35321   5.182   3.685  13.888  0.0086 -0.0805  0.1831
17118W        W35322   5.888   2.124   3.869  0.0153  0.1564  0.3623
17119W        W35323   1.567   5.294   3.941 -0.0835  0.0281 -0.0142
17120W        W35324  14.722   7.940  15.048 -0.1672  0.1714 -0.0252
17121W        W35325   5.935   1.206  15.778  0.1321 -0.2053 -0.2165
17122W        W35326   8.619  11.978   2.027 -0.0012  0.1890  0.0856
17123W        W35327   2.399   4.262   4.461 -0.1476  0.1239 -0.0542
17124W        W35328   7.028   2.696  15.389 -0.2622 -0.2051 -0.0333
17125W        W35329   4.104  13.777  13.915 -0.1444 -0.0457 -0.2904
17126W        W35330   5.567   8.629   1.195 -0.1540 -0.0173  0.2412
17127W        W35331   7.794  13.851  12.929 -0.2068 -0.1750  0.1548
17128W        W35332  12.973   2.210  17.031 -0.0963  0.0749 -0.2101
17129W        W35333   9.167  16.039   4.335  0.0862  0.0519  0.1022
17130W        W35334  16.112  13.783   0.200 -0.0945  0.1417 -0.1651
17131W        W35335   9.537  13.222  15.292  0.0185  0.0028  0.2176
17132W        W35336   0.795  12.792   1.903  0.1770 -0.1691 -0.0965
17133W        W35337   9.120  10.551  15.697 -0.0543  0.0883 -0.1970
17134W        W35338   7.684   2.009  12.875  0.2192 -0.1695  0.0651
17135W        W35339  10.281   9.915   0.178 -0.0744  0.1304  0.2890
17136W        W35340   8.492  13.308  16.225 -0.1625 -0.0398  0.2708
17137W        W35341   0.026   4.449   3.489  0.1031  0.0862 -0.2881
17138W        W35342   9.760  13.669   3.572 -0.0590  0.0260  0.0521
17139W        W35343  13.685   7.248   4.790 -0.0614  0.1658 -0.2070
17140W        W35344  14.500  10.372   1.418 -0.0234 -0.1386  0.2072
17141W        W35345   8.867  14.042  15.783 -0.3476  0.0090  0.0656
17142W        W35346   3.624   8.604  15.018 -0.0231  0.0892  0.2264
17143W        W35347  16.721   0.505   5.161 -0.1243 -0.0525  0.0630
17144W        W35348   1.493   6.239  14.014 -0.1447 -0.2182 -0.0286
17145W        W35349   2.504  13.208  12.411 -0.0688 -0.0128 -0.0725
17146W        W35350   9.000  17.196   1.290 -0.1952  0.0540  0.0659
17147W        W35351   7.635   5.546  16.434  0.0203 -0.3726  0.1148
17148W        W35352  13.382  15.047  15.690 -0.2757 -0.0145  0.0796
17149W        W35353   0.235  12.237   3.102  0.1592 -0.2240  0.1528
17150W        W35354   7.888  10.999  12.139  0.0546  0.1591 -0.1447
17151W        W35355  17.024   6.053  15.011 -0.1061 -0.0408  0.1518
17152W        W35356   0.186   7.143   3.371  0.1619 -0.0494  0.1109
17153W        W35357  11.539   1.679   5.002  0.1423  0.0029 -0.0904
17154W        W35358  15.456   5.388  12.031 -0.0371  0.0207  0.2307
17155W        W35359  14.301  15.130   1.715  0.0229  0.0756  0.0935
17156W        W35360  12.546  12.477   3.533 -0.1508 -0.1722 -0.3258
17157W        W35361   5.002  12.785  17.121 -0.0570  0.0559  0.3379
17158W        W35362   1.354   8.679   0.449  0.2350  0.4146 -0.2932
17159W        W35363   6.069   1.443  13.205 -0.0646  0.1934 -0.3098
17160W        W35364  15.979   4.711   0.178  0.1369 -0.0849 -0.3338
17161W        W35365  16.315   4.646  17.018 -0.0931 -0.1355 -0.2531
17162W        W35366   1.914   4.697   4.994  0.0799  0.1609  0.0644
17163W        W35367  11.586   7.882   0.994 -0.0105 -0.4245  0.0255
17164W        W35368   0.122  13.253  14.224  0.0280 -0.0345  0.0380
17165W        W35369  16.132   2.253  12.179 -0.1850  0.2851  0.1190
17166W        W35370   8.589   6.449  13.258 -0.0289  0.2118  0.0825
17167W        W35371   7.508   5.027  16.094  0.1072  0.2826 -0.1184
17168W        W35372   6.214   6.052  14.394 -0.0941 -0.1889  0.1781
17169W        W35373   6.343   0.437   5.335  0.2555 -0.0609 -0.1002
17170W        W35374   6.466   5.626   2.877  0.1156  0.2439  0.1599
17171W        W35375   9.156  10.161  15.273  0.2064  0.2409 -0.0407
17172W        W35376   7.646   5.723   4.231  0.1280  0.0336 -0.0462
17173W        W35377   9.188   5.703  16.009 -0.0278  0.1420 -0.1162
17174W        W35378  13.310  11.108   4.953  0.2003 -0.0677  0.1961
17175W        W35379   5.516   8.308   5.329 -0.2349  0.1677 -0.4215
17176W        W35380   1.646   3.915  16.308 -0.1615  0.0874  0.1121
17177W        W35381  15.249   3.030   3.388  0.0603  0.1744 -0.2328
17178W        W35382   5.812   8.357  16.549 -0.0193 -0.1134 -0.1576
17179W        W35383   2.065   6.878  16.401 -0.0503  0.0639 -0.1098
17180W        W35384   1.409   2.341   4.392 -0.1528  0.2831  0.2118
17181W        W35385  10.300   6.966   1.097  0.0252  0.1523  0.1818
17182W        W35386  16.721   3.079   3.313 -0.1122 -0.2592  0.0342
17183W        W35387   7.853  12.509  17.322  0.1588 -0.1755 -0.0632
17184W        W35388  16.282   4.634  14.050 -0.1025  0.1733 -0.0495
17185W        W35389   7.370  14.469   0.590 -0.0655 -0.2906 -0.0351
17186W        W35390   9.815   4.946   5.284 -0.0603  0.0303 -0.2547
17187W        W35391   5.953   9.250  14.615 -0.0553 -0.1177 -0.1543
17188W        W35392  11.726   6.750  12.825  0.0456 -0.0689  0.1144
17189W        W35393   2.495   4.514  13.488 -0.1133  0.0459 -0.1412
17190W        W35394  14.307   8.287  12.985 -0.1313 -0.1626  0.0872
17191W        W35395  12.454  12.909   2.348  0.3691 -0.1831  0.0617
17192W        W35396   9.739   8.032  14.178 -0.0449 -0.1061 -0.0115
17193W        W35397  14.136   4.822   0.656  0.0687  0.3546 -0.3083
17194W        W35398   2.266   8.603  13.110  0.0373 -0.4946 -0.2145
17195W        W35399   4.101   8.132   5.127 -0.3461 -0.0040  0.2793
17196W        W35400  10.450  16.053   1.778 -0.0104 -0.1756  0.0949
17197W        W35401  11.989  12.241  16.487 -0.2549 -0.0384 -0.0352
17198W        W35402   2.125   4.129  12.072  0.0661  0.2622  0.3350
17199W        W35403   1.125   5.252   2.358 -0.0339  0.0253 -0.0030
17200W        W35404  11.647   8.054  14.029 -0.1472 -0.4265 -0.0101
17201W        W35405  14.748   0.357   1.192 -0.0250 -0.0286  0.2307
17202W        W35406   0.609  13.156   0.338  0.0935  0.1005 -0.1217
17203W        W35407  10.484  17.316  15.087 -0.1059  0.0211  0.1197
17204W        W35408   2.962   6.939   2.519  0.0963 -0.1560  0.0405
17205W        W35409   0.520   1.843  16.384 -0.0841  0.1081 -0.0527
17206W        W35410   4.144   2.175  14.271  0.0588  0.0792 -0.1368
17207W        W35411   8.648   9.585  16.397 -0.2246 -0.0464 -0.0936
17208W        W35412  12.281   4.213  15.947  0.3497 -0.0193 -0.0742
17209W        W35413  13.386  15.914  14.562 -0.0092  0.0248  0.1791
17210W        W35414   6.029  10.068   4.895 -0.0386 -0.1051 -0.0482
17211W        W35415  15.082  11.345  16.422  0.0059 -0.2298  0.1038
17212W        W35416   9.716   9.290   5.647  0.0704  0.1790  0.0330
17213W        W35417  11.225  15.766   2.728  0.2136 -0.1787  0.1497
17214W        W35418  12.710   6.796  12.209  0.1271 -0.1445 -0.2121
17215W        W35419   9.491   6.467   5.258  0.0627 -0.0144 -0.0338
17216W        W35420   2.958  12.712  15.967 -0.0010 -0.1575 -0.3469
17217W        W35421   0.953  10.056   1.921  0.0256  0.0159 -0.4414
17218W        W35422  12.352   7.789   2.317  0.2476 -0.0888  0.0648
17219W        W35423   1.128   9.354  15.448 -0.2001  0.3087  0.2469
17220W        W35424   2.968  13.449   1.962  0.0925 -0.1546 -0.0607
17221W        W35425  14.183   3.178   2.535  0.2571 -0.0167  0.3018
17222W        W35426   6.183   6.746   1.536 -0.2611 -0.0484 -0.0676
17223W        W35427   3.825  13.818  12.720 -0.1113  0.0023  0.0327
17224W        W35428  15.890  14.794   3.882 -0.1394  0.2955 -0.1289
17225W        W35429  17.132   4.361   2.600 -0.1632  0.4887  0.2773
17226W        W35430   4.949   0.063  15.313  0.0634 -0.0393 -0.2412
17227W        W35431  16.316   4.491   0.519  0.2035  0.1066  0.1731
17228W        W35432  12.670  15.415  16.121 -0.1918  0.2599 -0.1323
17229W        W35433  15.967  13.176   1.733  0.2947  0.0043  0.1162
17230W        W35434   5.287   9.211  17.467  0.1999  0.0440 -0.1096
17231W        W35435  10.860   9.144   1.470 -0.1371 -0.0282  0.0670
17232W        W35436   6.640   4.917   0.198 -0.2538 -0.1890 -0.1666
17233W        W35437  13.644  14.956   4.921 -0.2971 -0.0002  0.0692
17234W        W35438  14.116   9.132   0.151 -0.0546  0.0119  0.0416
17235W        W35439   2.930   7.771  16.886  0.2018  0.1220  0.3169
17236W        W35440   9.149   2.918  13.621 -0.1799 -0.0647  0.0356
17237W        W35441  16.047  14.552   1.312 -0.3340 -0.0062 -0.2934
17238W        W35442  16.589   7.669   0.499  0.1256 -0.1783 -0.0773
17239W        W35443  16.002  10.084  14.194  0.4828 -0.1654 -0.1839
17240W        W35444   1.895  12.331   3.922 -0.0542 -0.0911 -0.3501
17241W        W35445   0.502  10.922   5.211  0.0167 -0.0807 -0.1169
17242W        W35446   4.755   2.231  13.700 -0.1081  0.0163  0.0749
17243W        W35447   4.557  15.773   6.333 -0.3905  0.1318  0.0441
17244W        W35448  16.429   2.618  11.674  0.2540  0.2171 -0.1641
17245W        W35449   8.229   6.320   2.139  0.0995 -0.0750  0.1882
17246W        W35450  16.690  14.565  16.948  0.1882 -0.0567  0.0643
17247W        W35451   7.041  11.827  16.781 -0.1401  0.0375  0.1739
17248W        W35452   3.188   7.252  14.810  0.0275 -0.2265  0.1038
17249W        W35453  12.517   3.620  16.154  0.0402 -0.0779  0.0038
17250W        W35454   9.266  11.727   0.134 -0.0012 -0.0501  0.0766
17251W        W35455   9.498   1.018   2.253  0.1843 -0.2508 -0.1186
17252W        W35456   4.437  15.234  14.150 -0.1458 -0.0324 -0.1447
17253W        W35457  11.944   4.646  15.964 -0.0082  0.2873 -0.0908
17254W        W35458  12.863   6.150  14.074  0.3028 -0.0413  0.2695
17255W        W35459   9.811   4.979   6.715 -0.1365 -0.0747  0.2002
17256W        W35460  15.452  14.613   1.185  0.2569  0.0253  0.0486
17257W        W35461   6.280   4.560  14.036  0.0947  0.2297 -0.2123
17258W        W35462  17.033   2.925  13.909 -0.1984 -0.1321 -0.3068
17259W        W35463   8.262  15.560   5.355 -0.0485 -0.2791  0.1935
17260W        W35464   8.147   3.324   4.775 -0.1774 -0.2355 -0.3596
17261W        W35465  10.804  15.864  12.644 -0.0309  0.1414  0.4634
17262W        W35466   7.225   7.016   5.219  0.0109 -0.0411  0.1185
17263W        W35467  14.923  13.438  14.901 -0.0774  0.1086  0.0542
17264W        W35468   7.788   1.076   4.173 -0.0906  0.1092 -0.2175
17265W        W35469  16.652  13.547  14.888  0.1513 -0.0812 -0.0669
17266W        W35470   9.413  10.111  14.748  0.1368 -0.3905  0.0594
17267W        W35471   4.090   0.536  15.310 -0.0457  0.0088  0.2493
17268W        W35472   2.675   1.514  14.759  0.2317 -0.1336 -0.2901
17269W        W35473  12.067  13.695   1.155  0.2602  0.3761 -0.0389
17270W        W35474   9.945  13.192   0.633  0.0584 -0.0856 -0.1285
17271W        W35475  14.878  10.031   5.063 -0.2152 -0.2227  0.1164
17272W        W35476  16.050  15.946   2.409  0.1030  0.3976  0.0040
17273W        W35477  13.043   0.802   3.423 -0.1491 -0.1050  0.0494
17274W        W35478   3.663   3.887   4.742  0.1490 -0.1928 -0.0649
17275W        W35479  14.786   3.526  13.963  0.1025 -0.0318  0.1449
17276W        W35480  16.184  11.647  17.380 -0.1861 -0.0674 -0.1434
17277W        W35481   4.500  11.665  12.808  0.1491 -0.1820 -0.3675
17278W        W35482   2.262   7.285  15.144 -0.0052 -0.4195 -0.0998
17279W        W35483  15.819  13.271   5.106 -0.1369  0.0579  0.2278
17280W        W35484  15.632  15.661   3.153 -0.0010  0.0983 -0.1010
17281W        W35485   2.656   0.404  13.590 -0.3279 -0.1139 -0.0214
17282W        W35486  11.003  13.581  17.497  0.0748  0.3083  0.0843
17283W        W35487  10.162  11.605  13.213 -0.4118  0.0774  0.0809
17284W        W35488   6.941  10.066  14.057  0.1579 -0.0367 -0.3844
17285W        W35489  13.121  16.613  13.648 -0.3242  0.0944 -0.1086
17286W        W35490  11.372   9.685   1.396 -0.5122  0.3665 -0.0302
17287W        W35491   3.905  10.193  14.113 -0.2689 -0.1566 -0.5314
17288W        W35492   4.191   2.664  14.284 -0.2278 -0.1156  0.0119
17289W        W35493   6.678   2.988  17.104  0.2528 -0.1273 -0.0383
17290W        W35494  15.216  17.002   2.743  0.0944  0.1389 -0.1410
17291W        W35495  10.688   6.814   4.110  0.1973  0.2525 -0.1066
17292W        W35496   0.069   9.175  13.179 -0.0329 -0.1498  0.1414
17293W        W35497   2.316  16.424  13.711 -0.0149 -0.0277 -0.1695
17294W        W35498  14.208   7.023   1.286  0.0027 -0.2536 -0.1875
17295W        W35499  15.013  14.977   1.243 -0.0490 -0.1119  0.1640
17296W        W35500   3.576  12.171  17.136  0.5314  0.2157 -0.1320
17297W        W35501   0.733   6.326   3.722 -0.2467  0.0891 -0.3272
17298W        W35502  12.317   8.006  12.374  0.0319 -0.0008 -0.3262
17299W        W35503  13.499   1.514   3.552 -0.1833 -0.0775  0.0978
17300W        W35504  11.502  12.262  12.297 -0.1181  0.0891 -0.2156
17301W        W35505   8.506   9.574   0.103 -0.1192 -0.1122  0.0777
17302W        W35506   8.991  13.580   3.446  0.1066  0.0466  0.0572
17303W        W35507   4.953   9.227  14.629  0.1166  0.2713 -0.1338
17304W        W35508   4.577   1.587  15.494  0.2966 -0.3441  0.3906
17305W        W35509   3.449   0.499  13.893  0.0322 -0.3302 -0.0161
17306W        W35510   9.878   5.017   5.779  0.0979 -0.0660  0.2687
17307W        W35511   5.489   9.207   0.476  0.0592 -0.0104  0.1143
17308W        W35512   0.538  10.857  12.714  0.0244 -0.2356  0.3193
17309W        W35513  13.870   3.755  12.249 -0.1093 -0.0389 -0.1692
17310W        W35514   8.551   8.701   0.377  0.3270 -0.3237  0.3413
17311W        W35515   8.655   5.242   5.482  0.0087 -0.2557  0.0108
17312W        W35516   5.822  12.943   1.451  0.1705 -0.0778 -0.2181
17313W        W35517   0.425   6.712   4.392 -0.0866 -0.1296 -0.1675
17314W        W35518  16.619  17.137   2.911 -0.1689  0.0618  0.1613
17315W        W35519   8.907   4.829   4.818  0.0469  0.0998 -0.0672
17316W        W35520   9.585   9.189   1.440  0.1374  0.3370 -0.1924
17317W        W35521  15.889  12.479  12.594 -0.0516 -0.0215  0.0523
17318W        W35522  15.275   4.957   4.533 -0.2680  0.2947  0.0124
17319W        W35523  10.268  16.552   4.482  0.0102 -0.2033 -0.0757
17320W        W35524  11.459  14.696   5.310 -0.0138 -0.1777 -0.0447
17321W        W35525   8.406  14.675   5.301  0.2272  0.1956  0.3471
17322W        W35526   3.714   3.313   0.467 -0.0378  0.1465 -0.1621
17323W        W35527   0.983   8.977   1.845 -0.4911 -0.0130 -0.2725
17324W        W35528  10.214   1.780   4.884 -0.3716  0.3652  0.2873
17325W        W35529   7.102   4.318   0.837 -0.4011  0.0292 -0.0435
17326W        W35530   3.212  16.449  13.824  0.1089  0.1867 -0.2610
17327W        W35531  16.651   3.877  12.506  0.0807 -0.0937 -0.0989
17328W        W35532   4.752   8.706  16.385  0.2254  0.0558 -0.0185
17329W        W35533   2.540   0.055  11.847  0.0048  0.2023 -0.1265
17330W        W35534  13.359   2.068  15.521 -0.1297 -0.1738 -0.1854
17331W        W35535  17.199  12.292  14.808  0.0506 -0.0290 -0.2515
17332W        W35536  15.958  16.844  15.351 -0.2291  0.1029 -0.0789
17333W        W35537   0.172   3.739  17.488  0.0443  0.0485 -0.2931
17334W        W35538   0.015  16.223  14.292 -0.0725  0.2988 -0.0395
17335W        W35539  12.978  14.991  15.951 -0.2686 -0.1259  0.0740
17336W        W35540   7.980   4.134   2.125 -0.1769 -0.1302 -0.1241
17337W        W35541   5.648  14.881  17.529 -0.1016 -0.0209 -0.2352
17338W        W35542  15.239   0.086  15.335 -0.2414  0.1863  0.0739
17339W        W35543  17.169   5.812   4.745  0.0995  0.0615 -0.0242
17340W        W35544   6.163   2.160   3.350 -0.3042  0.2246 -0.0383
17341W        W35545   9.996  13.907   2.021 -0.0656  0.0541 -0.2612
17342W        W35546   8.584   3.849  12.797 -0.0065  0.0560 -0.1680
17343W        W35547   6.320   3.980  14.906 -0.0633  0.0248  0.0243
17344W        W35548   7.999   0.668  12.549 -0.0614  0.1182  0.2861
17345W        W35549   8.725  15.217   0.713  0.0333 -0.0346 -0.1761
17346W        W35550  15.715  16.226   1.312 -0.6475 -0.0227 -0.4344
17347W        W35551  15.475  12.660   4.661  0.0413 -0.3066 -0.1538
17348W        W35552  13.695   6.177   4.289  0.0438 -0.1888 -0.0873
17349W        W35553  15.157  14.389  13.753 -0.1545 -0.1897  0.3117
17350W        W35554  15.491   8.845  15.494 -0.1487  0.1056 -0.2811
17351W        W35555   5.485   5.225   2.699  0.2311  0.2846 -0.1242
17352W        W35556   0.970  11.127   3.355 -0.0169 -0.1615  0.0507
17353W        W35557   7.622   2.359   0.772 -0.2253  0.1308  0.2113
17354W        W35558   9.477  12.073  16.122  0.0766  0.1806  0.0393
17355W        W35559   5.028   7.806   4.888  0.1575  0.0956 -0.0239
17356W        W35560  12.993  11.607  16.948  0.1248  0.0068 -0.4676
17357W        W35561  14.790   3.174   5.283  0.0856  0.2937  0.0102
17358W        W35562  15.429  14.874   2.565 -0.1089  0.0917 -0.2093
17359W        W35563  16.066   1.653  15.972 -0.0441  0.1221  0.0578
17360W        W35564   5.624   7.485   1.304 -0.1032  0.1821  0.2128
17361W        W35565  10.648  15.392   0.568 -0.0028  0.1650 -0.1449
17362W        W35566  11.637   0.138  16.251  0.2791  0.2265 -0.0593
17363W        W35567   8.707  10.723   1.397  0.0735  0.2535  0.1052
17364W        W35568   4.123  17.201  14.916  0.1343 -0.2484 -0.0370
17365W        W35569   7.823   1.201   2.341 -0.0572  0.1066  0.0146
17366W        W35570  17.157   5.901   3.747 -0.3533  0.2840  0.0342
17367W        W35571  16.450   2.748  16.909 -0.1991  0.2740  0.1484
17368W        W35572   8.594  12.859   0.421 -0.0181  0.1770 -0.2700
17369W        W35573   7.718   6.954   6.715  0.0434  0.2368 -0.0057
17370W        W35574   3.870  10.008  15.838 -0.3874  0.1839  0.3217
17371W        W35575  16.093  13.778  16.538 -0.0740  0.0480 -0.0765
17372W        W35576  11.130   6.577   5.488 -0.1697 -0.0127  0.0689
17373W        W35577  13.959   8.562   3.508  0.1792 -0.2838  0.2885
17374W        W35578   9.113   7.612   3.406 -0.0875 -0.0754 -0.0954
17375W        W35579   7.613  12.828  12.747 -0.2493  0.0912  0.3107
17376W        W35580   4.740   2.535   0.700 -0.0651 -0.1398  0.5838
17377W        W35581   1.007   5.771  17.275 -0.3719 -0.1751 -0.0087
17378W        W35582   0.740   7.955  16.730 -0.0737  0.0819  0.0826
17379W        W35583   0.224   2.653   3.222  0.1420 -0.3810  0.2237
17380W        W35584  13.817   2.173   1.710  0.0745  0.1521  0.0247
17381W        W35585   7.744   5.159   1.751  0.2088 -0.2187 -0.1995
17382W        W35586   9.755  11.004  12.140  0.0916 -0.0960  0.3531
17383W        W35587  15.808  14.214  16.562  0.0153 -0.3565 -0.2079
17384W        W35588   1.956   5.158   2.961  0.3196  0.3433  0.0552
17385W        W35589   3.783  11.323   1.708 -0.0614  0.2801 -0.1190
17386W        W35590   9.192   1.826  15.276  0.0200  0.1342 -0.1465
17387W        W35591  10.987   5.479   4.663 -0.2534  0.1595  0.2444
17388W        W35592   2.700  16.907  15.704  0.3523 -0.1243 -0.1650
17389W        W35593  11.045  17.239   0.450 -0.2156 -0.1195 -0.0315
17390W        W35594  16.159   5.020   4.529  0.2730  0.0587  0.2411
17391W        W35595   6.671  13.839  17.127 -0.1973 -0.2245  0.3191
17392W        W35596   5.993  10.761   0.367  0.0389  0.3059  0.1750
17393W        W35597  10.667  15.949   3.078  0.3143 -0.0791  0.2104
17394W        W35598   9.888  13.794  13.635  0.0893 -0.0326  0.0763
17395W        W35599   2.974   7.757   2.975  0.3669  0.2666  0.1084
17396W        W35600   4.269  15.603  15.301  0.0483 -0.1452  0.3067
17397W        W35601   6.759   6.538  16.777 -0.1556  0.0535 -0.0296
17398W        W35602   7.376   8.624   1.857 -0.2364 -0.0969  0.3041
17399W        W35603  11.685   0.884  15.862 -0.1344  0.2013 -0.0975
17400W        W35604  13.102   9.580   4.701  0.1419 -0.1251  0.4160
17401W        W35605   9.273   9.277  14.353  0.0070  0.1057 -0.1058
17402W        W35606  17.309   9.881  13.940 -0.0774  0.0043  0.1890
17403W        W35607   3.051  14.068  13.903 -0.2379  0.1883  0.2051
17404W        W35608  10.142   5.836  11.870  0.1553  0.3163 -0.2601
17405W        W35609   6.099  13.312   2.908 -0.4971 -0.1203  0.0755
17406W        W35610  14.669  12.643  16.241  0.0593  0.1511  0.0092
17407W        W35611  14.675   3.069  12.918 -0.0061  0.1687 -0.0275
17408W        W35612   0.897   3.376   1.513  0.0232 -0.0465  0.3446
17409W        W35613  11.519  10.801   5.470  0.1900 -0.0363  0.2042
17410W        W35614  15.828  11.346   2.137 -0.2771 -0.1070  0.0336
17411W        W35615  11.455  12.986   5.204  0.1525 -0.1961 -0.2382
17412W        W35616   5.837   2.281   2.936  0.1451 -0.0814 -0.2384
17413W        W35617  16.033   2.065   0.105  0.1770 -0.1904  0.0353
17414W        W35618   7.448   9.181  16.799 -0.2333  0.0880 -0.2058
17415W        W35619   3.540   2.085   2.743  0.1061  0.4187  0.3600
17416W        W35620   9.344  13.612  13.944 -0.0246 -0.1334  0.0430
17417W        W35621   3.210   4.066  12.235 -0.1074  0.1687  0.0551
17418W        W35622   6.558   0.496   4.158  0.0255 -0.0895  0.4039
17419W        W35623  12.979  12.765  15.050 -0.1382 -0.0423 -0.1139
17420W        W35624  14.318   4.563  16.756  0.0173 -0.1768 -0.0085
17421W        W35625   5.780  15.339   2.161 -0.0617 -0.3352 -0.2609
17422W        W35626   5.294  14.242  17.384  0.0738  0.4096 -0.2618
17423W        W35627   1.136   5.275   0.930  0.0481  0.0533  0.0140
17424W        W35628   3.678   8.822   2.257  0.2489 -0.0572  0.2562
17425W        W35629   7.194   1.120   5.219 -0.0722  0.2277 -0.1609
17426W        W35630   3.507   8.438  12.405  0.2670  0.1079  0.5185
17427W        W35631   3.408  12.573  12.957 -0.1349  0.3375 -0.1888
17428W        W35632  11.722  15.796   0.081  0.0508 -0.1439  0.4026
17429W        W35633   5.148  15.313  13.641  0.2171  0.2167  0.1248
17430W        W35634   6.452   6.220  12.495 -0.0743  0.1810  0.0882
17431W        W35635  13.692  12.905   1.681  0.1227 -0.1134 -0.1432
17432W        W35636   2.972   9.319   1.134  0.1599  0.1403  0.0169
17433W        W35637   2.439  14.437   2.566 -0.0297  0.0509  0.1462
17434W        W35638   0.548   5.608   0.242  0.0714  0.1970 -0.3601
17435W        W35639   5.759   3.705  15.092  0.2772  0.1457  0.2448
17436W        W35640   2.632   4.457   0.331 -0.0237 -0.0921  0.0966
17437W        W35641   7.834  15.398  13.764 -0.2025 -0.0128  0.2589
17438W        W35642  16.659   0.626   0.815  0.1912  0.1044 -0.1156
17439W        W35643   7.105   7.512   3.933 -0.2163  0.0688 -0.0324
17440W        W35644   6.937   7.126  17.305 -0.1044 -0.2218 -0.2708
17441W        W35645   0.599   3.916   4.123  0.1397 -0.0174  0.3155
17442W        W35646  14.048   7.268  16.852  0.2168 -0.1630 -0.0127
17443W        W35647   8.396  17.185   5.930  0.0517  0.0687  0.2134
17444W        W35648   0.562   2.250  13.930 -0.0930 -0.0758  0.3197
17445W        W35649   7.429  12.433   5.077  0.0641 -0.1882  0.0257
17446W        W35650   5.070   8.972   5.217 -0.0979  0.1458  0.3620
17447W        W35651   9.044   1.234  13.810  0.0867 -0.0521 -0.3935
17448W        W35652   9.903  15.117   3.599 -0.0390  0.1482 -0.0086
17449W        W35653  15.366  11.378  13.300  0.3958  0.0209  0.1457
17450W        W35654   4.119   1.317  16.649  0.4228 -0.1544  0.1284
17451W        W35655   8.423   8.110  15.149  0.0647  0.1187  0.0816
17452W        W35656   5.510   9.549  14.612  0.0714  0.4409 -0.2868
17453W        W35657  15.115  16.151   2.588 -0.1938  0.1016 -0.1352
17454W        W35658  11.575   5.373   2.809  0.0462  0.0843 -0.4177
17455W        W35659   5.369  13.266  16.907  0.0119 -0.0341 -0.1533
17456W        W35660   3.573   2.472   1.734  0.4526 -0.0084 -0.1769
17457W        W35661   6.320   2.687  16.856  0.1063  0.3406 -0.1866
17458W        W35662   5.189   9.819  16.307 -0.2451  0.1908 -0.2558
17459W        W35663   1.467   4.125  16.747 -0.0043 -0.2205  0.4909
17460W        W35664   5.970   2.736  13.736  0.1469  0.0627  0.0448
17461W        W35665   3.672   2.299   4.698 -0.1370 -0.1271  0.0617
17462W        W35666  16.352  16.836  15.078  0.1031  0.1551 -0.2957
17463W        W35667   5.520   9.296  15.525 -0.0641 -0.2260  0.0837
17464W        W35668   3.020  12.826  15.047 -0.0582  0.0155  0.3234
17465W        W35669   9.100  14.440  15.457  0.1400 -0.3093 -0.0682
17466W        W35670  12.511  17.162  13.154  0.3588 -0.1822  0.1192
17467W        W35671  16.031   0.432  16.601 -0.5555  0.0747 -0.0060
17468W        W35672  10.451   2.973   1.807  0.4864 -0.2069 -0.0626
17469W        W35673   3.805   8.789   2.830  0.1639 -0.2228  0.1457
17470W        W35674   2.243   6.758  15.041  0.1085  0.2900 -0.0320
17471W        W35675   1.976  13.383   1.381 -0.0966 -0.0436 -0.0079
17472W        W35676   3.213  13.095   3.428  0.0416  0.1327  0.0820
17473W        W35677  14.259  11.588   0.806  0.0721 -0.1270 -0.0626
17474W        W35678   3.982  10.088   0.040 -0.3373  0.0548 -0.0307
17475W        W35679   2.577   9.361  16.905 -0.0549 -0.0742 -0.0298
17476W        W35680  15.370  14.949   4.190  0.4731  0.1201 -0.1483
17477W        W35681  16.235   2.901   0.704  0.0097  0.1491  0.1923
17478W        W35682  12.351   1.712   4.394 -0.1657  0.0988  0.0911
17479W        W35683   6.311   9.218   1.568 -0.2431 -0.1387 -0.0096
17480W        W35684   1.528  14.537   2.372  0.2073  0.0475 -0.2088
17481W        W35685   5.943   8.119   5.101  0.3652 -0.0178  0.0459
17482W        W35686  10.838  16.089  15.235 -0.0085 -0.0055  0.1532
17483W        W35687  13.195  15.769  12.351  0.4291 -0.1243 -0.3637
17484W        W35688   6.037   6.119   5.170  0.2780  0.0467  0.0435
17485W        W35689   9.898  16.297  14.803  0.2956 -0.2678  0.0501
17486W        W35690  10.948  12.181  14.594 -0.1404  0.0529 -0.1014
17487W        W35691   6.706   8.733  11.983 -0.1018  0.0959 -0.1388
17488W        W35692   0.191   7.144  12.633  0.1089  0.1436  0.1662
17489W        W35693   2.402   3.434  15.224  0.4070  0.3721 -0.1756
17490W        W35694   9.060  12.429  16.287 -0.1045  0.1599  0.1866
17491W        W35695   1.571   0.691  12.847  0.0951  0.0912 -0.0201
17492W        W35696  12.273   5.511  12.998  0.2176 -0.0590 -0.1705
17493W        W35697   8.899  13.542  15.078 -0.2625 -0.0309 -0.0160
17494W        W35698   9.978   4.762  12.227  0.0050 -0.0728  0.0060
17495W        W35699   8.581  14.457   4.879 -0.0738  0.3248 -0.4719
17496W        W35700   8.198   1.871  12.757  0.0414  0.0197 -0.2808
17497W        W35701  14.921   4.166   1.408  0.0838 -0.2378  0.1397
17498W        W35702  10.588  10.004  16.698  0.2906 -0.1623  0.2493
17499W        W35703  16.281  16.149   1.961  0.0414 -0.2156 -0.0206
17500W        W35704   4.827  16.077   1.168 -0.0198  0.0427 -0.3632
17501W        W35705   0.484   5.521  12.690 -0.3799  0.1689 -0.1018
17502W        W35706   0.003   8.817  14.717  0.1025  0.1462 -0.1033
17503W        W35707  16.929   8.723  12.307 -0.1029 -0.0623 -0.0557
17504W        W35708   2.754   7.240  13.301 -0.1381  0.0653 -0.1945
17505W        W35709   7.887  16.220  15.013  0.1888 -0.0226 -0.0830
17506W        W35710  10.574  15.126   2.826  0.0885  0.2497  0.1237
17507W        W35711   2.316   3.748   5.224  0.0464 -0.1758 -0.1749
17508W        W35712  15.771   9.277  12.949  0.0218  0.1020 -0.0468
17509W        W35713  16.658   8.223  15.340 -0.0751 -0.0298  0.1240
17510W        W35714   8.723   3.441  16.327 -0.0524 -0.0202 -0.1583
17511W        W35715  12.937   9.611  12.323  0.0877 -0.1397 -0.2147
17512W        W35716  11.301   0.218   2.514 -0.5003  0.3469 -0.0555
17513W        W35717   1.697  10.258  16.350  0.0553  0.1234 -0.1129
17514W        W35718   3.197  11.483   5.470  0.0880 -0.2842  0.0982
17515W        W35719  11.564   5.832  14.719 -0.0461 -0.2191  0.1062
17516W        W35720  11.718  10.264  16.990 -0.0261  0.1968  0.3879
17517W        W35721  10.835  16.605  13.955  0.3784  0.4073 -0.0705
17518W        W35722   5.836   6.720  13.056 -0.1830  0.4438 -0.1011
17519W        W35723  13.446  15.315   3.094  0.2555 -0.1055 -0.3568
17520W        W35724   9.881   9.830   0.806  0.1525 -0.2105 -0.3273
17521W        W35725   5.266   4.979   2.323  0.0521 -0.4123  0.0040
17522W        W35726   3.937   2.591  16.942  0.3969  0.1425 -0.1255
17523W        W35727   1.770  10.131   0.121 -0.0567  0.0019  0.0777
17524W        W35728  11.700   0.731  14.524  0.1586 -0.0067  0.3008
17525W        W35729  15.295   7.321   0.010  0.0000 -0.4007 -0.2516
17526W        W35730   2.324   8.604   5.454 -0.0770  0.0287  0.1837
17527W        W35731   4.184  16.154   5.004 -0.0557 -0.1747  0.0130
17528W        W35732  15.229   1.403  12.923  0.0501 -0.2906  0.1164
17529W        W35733  10.036  11.985  13.448 -0.1987 -0.0143 -0.2101
17530W        W35734  13.973  14.550  15.761 -0.0943  0.0039  0.3394
17531W        W35735  15.462   0.951  13.142 -0.1823 -0.0223  0.1371
17532W        W35736  12.308   1.148   4.553  0.0309 -0.1002 -0.1739
17533W        W35737   6.554  14.428  17.257  0.0493  0.0184 -0.0798
17534W        W35738  13.742   1.779   2.406 -0.0513 -0.0509 -0.2470
17535W        W35739   7.022   4.178   1.320 -0.1271 -0.1414  0.2842
17536W        W35740  12.755  10.868  13.607  0.0420  0.0523 -0.3779
17537W        W35741   6.030  14.611  15.335  0.1364  0.3105 -0.0343
17538W        W35742   9.650   8.886  17.175  0.0582 -0.1626 -0.4644
17539W        W35743   6.974   1.689  16.847 -0.2726  0.0825  0.2201
17540W        W35744  16.151  16.536  13.129  0.0302 -0.0744  0.3101
17541W        W35745  17.061   1.711  12.620  0.2480  0.2539  0.0234
17542W        W35746   1.150  10.691  14.309  0.0383 -0.1333  0.1733
17543W        W35747   7.545   1.082   1.048  0.2525 -0.0860 -0.1759
17544W        W35748   7.412   2.309  14.576 -0.3571  0.0159  0.3656
17545W        W35749  13.334   6.514  12.847 -0.3067  0.0936 -0.0527
17546W        W35750   4.163   8.761   1.286 -0.0349 -0.0738  0.3531
17547W        W35751   6.347   3.045   0.906  0.1443  0.3786 -0.1279
17548W        W35752  16.635   8.224   3.406  0.1876 -0.0241  0.0579
17549W        W35753  16.711   3.040   0.589  0.0500  0.1215  0.0319
17550W        W35754   4.281  13.336  14.113 -0.3621 -0.1615 -0.0994
17551W        W35755   7.124   3.971  15.558  0.1854  0.0708  0.0249
17552W        W35756  15.431   6.195  15.974 -0.1882  0.3858  0.2456
17553W        W35757  14.120   7.421  13.168 -0.0407 -0.0305  0.2756
17554W        W35758   4.507  12.469  17.171 -0.3775 -0.0463  0.4879
17555W        W35759   2.466   0.005  12.376  0.0048  0.3862 -0.2113
17556W        W35760  15.011  12.132  17.461 -0.2225  0.0430  0.2469
17557W        W35761  15.489  10.766   0.483  0.0831  0.1134 -0.3047
17558W        W35762   8.707   1.136   3.600  0.1216  0.1635  0.0526
17559W        W35763   0.773   9.081  13.126  0.0428  0.0154  0.0306
17560W        W35764   1.681  10.115  15.575  0.1215 -0.2773  0.1692
17561W        W35765  15.047   0.340   0.751 -0.1987 -0.0641 -0.2398
17562W        W35766   3.064   4.396   2.141  0.1825 -0.0721 -0.0277
17563W        W35767  16.679   0.667   3.070  0.0647  0.2797 -0.0997
17564W        W35768   9.300   6.661  17.241 -0.1442 -0.2799 -0.0161
17565W        W35769  14.174   4.130   4.955  0.1953  0.0749  0.0363
17566W        W35770  12.729   9.186  12.453  0.1430 -0.1295 -0.3561
17567W        W35771   1.354   3.940  13.535 -0.0102  0.0982  0.0544
17568W        W35772   1.205  16.735   1.848 -0.1029  0.0210  0.3481
17569W        W35773   2.761   8.355   4.647 -0.3162  0.1064 -0.2284
17570W        W35774   5.013  11.152  13.344  0.2962  0.3774  0.0999
17571W        W35775   3.427  16.764   1.023 -0.0297 -0.0261  0.2699
17572W        W35776   7.065   7.170  14.011 -0.0023 -0.0574 -0.0321
17573W        W35777   1.398  16.374  13.240  0.0573 -0.3748  0.1185
17574W        W35778   4.717   8.517   4.503 -0.0938 -0.2775 -0.1507
17575W        W35779   1.032  10.662   3.474  0.2590 -0.0241 -0.0820
17576W        W35780   7.333   4.418   0.351  0.0733 -0.1075  0.1332
17577W        W35781   1.143   1.758  12.351  0.4118 -0.0494  0.1931
17578W        W35782   1.683  17.290   4.421  0.1034  0.0333 -0.0171
17579W        W35783  11.496  16.840  14.413  0.0251 -0.3443  0.1013
17580W        W35784   3.671  10.086  12.593  0.1221  0.1830  0.0069
17581W        W35785  14.397   4.318   1.475  0.1417  0.1195 -0.0201
17582W        W35786   6.088   8.590  17.342  0.0164  0.1429  0.0383
17583W        W35787   0.691  13.413   2.961 -0.0755 -0.1021  0.1167
17584W        W35788  13.308   6.078   3.361  0.0850  0.2429 -0.0243
17585W        W35789   0.411  15.623  15.906  0.2313  0.2812  0.2788
17586W        W35790   2.225   9.047   0.550 -0.1485 -0.1382  0.0175
17587W        W35791   8.111  10.923   4.626  0.0919  0.2221 -0.2950
17588W        W35792   1.889   3.562  12.926  0.0034 -0.0834  0.1991
17589W        W35793  11.645   9.409  17.229  0.2112  0.0378  0.2415
17590W        W35794   8.454  12.828   4.765 -0.0704 -0.1268  0.1420
17591W        W35795  12.990  16.954  17.477  0.2611 -0.0074 -0.3963
17592W        W35796   0.921   7.210  15.399 -0.0167  0.1434 -0.0227
17593W        W35797   8.680   2.603  17.487  0.0610 -0.2349  0.2371
17594W        W35798  11.366  12.883  14.655  0.0683 -0.1045  0.1377
17595W        W35799   4.378  13.428  13.585  0.1067 -0.0170 -0.0414
17596W        W35800  12.004   3.152   1.487  0.1420  0.5014 -0.1248
17597W        W35801   1.356   5.099  12.266 -0.0686 -0.0394 -0.0669
17598W        W35802  12.478  11.326   1.405  0.0692  0.1059 -0.0407
17599W        W35803  16.003   5.735   1.258 -0.2920  0.1310 -0.0261
17600W        W35804  10.045   7.305   0.602  0.0579 -0.0033  0.0357
17601W        W35805  14.971  11.416  12.928 -0.0809 -0.0164 -0.2907
17602W        W35806  14.817  15.910  14.270  0.3686  0.0661  0.0311
17603W        W35807  15.764   3.132   1.451  0.0582  0.5351 -0.1430
17604W        W35808  10.577   8.360  16.841  0.1760  0.3528  0.1932
17605W        W35809  16.603   7.102  16.081 -0.1670 -0.0221 -0.0526
17606W        W35810  13.267  16.500   4.306  0.2215 -0.1062 -0.0042
17607W        W35811   4.308  10.224   4.486  0.0009 -0.2645  0.0868
17608W        W35812  14.221   7.834  12.531 -0.0179 -0.0447 -0.0663
17609W        W35813   9.853   7.208   1.146  0.0490 -0.0326  0.2024
17610W        W35814   0.072   3.321   4.796 -0.0020  0.0179  0.0847
17611W        W35815  14.441   0.180   5.444  0.0407  0.0984 -0.1758
17612W        W35816  10.543   5.572   0.889  0.0626 -0.0834 -0.3772
17613W        W35817   2.403  11.728  16.035 -0.1420  0.0356 -0.0715
17614W        W35818  14.805  13.342   4.750  0.0727  0.1386 -0.2755
17615W        W35819   9.890  14.554   0.892 -0.0144  0.0806  0.0389
17616W        W35820  16.729   0.914   3.591  0.0926 -0.2032  0.0904
17617W        W35821   9.468   2.213  14.513  0.0505 -0.0663  0.6070
17618W        W35822   2.085  12.750  11.625 -0.1398 -0.0852  0.2824
17619W        W35823   3.767   7.504   1.891 -0.3347  0.3095 -0.2979
17620W        W35824  17.237   9.559  17.051  0.0921 -0.0113  0.1380
17621W        W35825   4.673   7.582   1.241 -0.2194  0.0018  0.1294
17622W        W35826   8.270  11.283   3.239 -0.2079 -0.1083  0.1138
17623W        W35827  14.899  11.583   2.843 -0.2686 -0.0841 -0.2085
17624W        W35828  10.701   4.056  16.626  0.0981  0.0899  0.0583
17625W        W35829   0.140  16.847   5.286  0.0511 -0.2443 -0.2116
17626W        W35830  15.601  14.268   1.654  0.0257 -0.1014  0.0954
17627W        W35831  11.637   8.556   2.009 -0.4043 -0.0411 -0.2050
17628W        W35832  12.376  11.345  13.316  0.0278  0.1872 -0.1160
17629W        W35833   5.291   6.558  13.852 -0.0987  0.2508 -0.1604
17630W        W35834  11.402   1.498  16.258 -0.3713  0.2371  0.2162
17631W        W35835   9.297  11.819  15.122 -0.3515 -0.0615 -0.1895
17632W        W35836   0.552   9.534  16.528 -0.2866  0.2156  0.1102
17633W        W35837  14.680  14.257   0.640 -0.1030  0.0298 -0.0457
17634W        W35838  14.068  10.352   3.937  0.1246  0.0851 -0.0123
17635W        W35839  15.731   5.347  15.522  0.2961 -0.1491 -0.0984
17636W        W35840  11.238  12.420   0.153 -0.3509 -0.1889  0.2069
17637W        W35841   7.343   4.537   2.745  0.0353  0.1444 -0.1610
17638W        W35842   1.767  14.632   1.944 -0.1828 -0.1755  0.3141
17639W        W35843   0.365  10.075   1.034 -0.3003 -0.1300 -0.0715
17640W        W35844   4.695  17.199  15.712  0.1048 -0.2416  0.2290
17641W        W35845  14.225   6.806  12.482 -0.0867  0.1842  0.0836
17642W        W35846   6.836  12.827  15.698  0.1219  0.0483  0.1291
17643W        W35847   5.392   8.068  14.687 -0.0468 -0.1863  0.1923
17644W        W35848   5.900   2.897   0.664 -0.3041  0.0634  0.0041
17645W        W35849   3.990   6.467   1.010  0.0911 -0.0560  0.0727
17646W        W35850   9.133  13.693  14.513  0.1486 -0.0763  0.0836
17647W        W35851  13.724   7.232  13.814  0.1405  0.0271 -0.2662
17648W        W35852   0.481   8.627   3.883 -0.0869  0.1893  0.0736
17649W        W35853  15.210  13.896  14.295 -0.2461 -0.2578  0.2897
17650W        W35854   9.360   6.163  15.849 -0.1016  0.1972 -0.3415
17651W        W35855   4.967  16.506   1.415  0.1263  0.3454  0.0012
17652W        W35856   1.165   4.003  12.168  0.2132 -0.3032  0.1044
17653W        W35857  13.974   0.297  16.730 -0.0643  0.3316 -0.0472
17654W        W35858   8.836  14.683   2.850  0.1794  0.0376  0.1229
17655W        W35859   9.001  17.281  14.552 -0.1034  0.1740 -0.1690
17656W        W35860  16.480   3.219   2.751 -0.1598  0.0969 -0.1615
17657W        W35861  12.352   4.153   2.114  0.0923 -0.1050  0.1699
17658W        W35862   8.464  11.931   4.715 -0.2772  0.0621  0.3366
17659W        W35863   5.038   1.377  16.211 -0.0619 -0.2813  0.1991
17660W        W35864   2.301   6.493   2.159 -0.2043  0.0728  0.0372
17661W        W35865  14.919   3.058  15.132 -0.1362 -0.1380  0.0702
17662W        W35866   6.391   8.999  16.687  0.1778 -0.1800 -0.1318
17663W        W35867   9.438   5.190  16.716 -0.0210  0.2767 -0.0792
17664W        W35868   0.430  11.081   1.050 -0.0191  0.0510  0.1422
17665W        W35869  13.322  14.909   0.408  0.1663  0.0373 -0.0418
17666W        W35870  16.429   2.047   0.917  0.2767  0.1638  0.0079
17667W        W35871  12.832  10.306   0.925  0.0155  0.0742 -0.0508
17668W        W35872   9.080   4.137   0.245 -0.2347 -0.1929  0.0766
17669W        W35873   5.029  15.708   5.069  0.2411  0.1767 -0.1589
17670W        W35874   3.356  11.160  13.452  0.0604  0.1008  0.0667
17671W        W35875  13.019   1.780  12.824  0.3450 -0.2543  0.1189
17672W        W35876   0.976   5.404  15.186  0.0964  0.2304  0.1008
17673W        W35877   0.249  10.002  17.095 -0.1125 -0.0382 -0.0811
17674W        W35878  10.515   9.658   2.067  0.3805  0.0221  0.0689
17675W        W35879   3.482  11.298  17.482 -0.0900 -0.1821  0.1579
17676W        W35880   0.135   8.024  14.418 -0.0384 -0.4101 -0.0104
17677W        W35881  17.192   7.133   2.872 -0.1073 -0.1044  0.0423
17678W        W35882   7.119   9.495   5.050 -0.2125  0.1002 -0.0560
17679W        W35883  12.024  13.147   1.072 -0.0212  0.2994  0.2803
17680W        W35884  14.376   2.479  12.309 -0.2649 -0.2085 -0.0613
17681W        W35885  15.340  11.539  14.562 -0.1330  0.0883 -0.1520
17682W        W35886  13.529   4.998  14.035 -0.1743 -0.2605 -0.3797
17683W        W35887  16.455  11.885  14.084  0.2185 -0.0965  0.2943
17684W        W35888   5.995  14.837  14.908  0.0635  0.1213 -0.0021
17685W        W35889  13.662   9.820  14.149  0.0196 -0.3088  0.0726
17686W        W35890   9.903   9.582   4.460  0.0798 -0.0640 -0.1688
17687W        W35891  13.434  14.078  14.247 -0.0376 -0.3267 -0.0700
17688W        W35892   3.204   4.206  15.548  0.2022 -0.2461 -0.0748
17689W        W35893   1.436  12.390  14.172 -0.2710  0.0823  0.0301
17690W        W35894   7.351   4.532  13.284  0.1241 -0.2495  0.1213
17691W        W35895   9.246   0.398  14.552 -0.0582  0.1758  0.3591
17692W        W35896   2.662   6.999  16.640  0.4523 -0.0121  0.1963
17693W        W35897   1.364   5.421   0.491 -0.1884  0.2747  0.1855
17694W        W35898   5.569   7.774  11.157  0.0589 -0.3182  0.2012
17695W        W35899   8.178   1.376   4.114 -0.1611 -0.4253  0.0890
17696W        W35900  13.928   6.900  12.887  0.2096 -0.0988 -0.0780
17697W        W35901   5.973   1.429   2.801 -0.0447  0.1158  0.1608
17698W        W35902   6.436  12.953   1.992 -0.0723  0.2048  0.1318
17699W        W35903   3.779   9.136  14.774 -0.0246  0.1505 -0.0703
17700W        W35904   8.209  16.587   0.202 -0.0731  0.0104  0.2052
17701W        W35905   8.427   5.775  14.969  0.0475  0.0410  0.1933
17702W        W35906  11.720  14.984   5.680  0.0184 -0.2541  0.1720
17703W        W35907  15.420   8.421   1.139  0.0850  0.1446 -0.0975
17704W        W35908   3.440  12.120   2.074 -0.0165  0.0412  0.1917
17705W        W35909   2.017   2.258  13.817 -0.1834 -0.0517 -0.1314
17706W        W35910  12.704   3.079   4.066 -0.0939 -0.1900  0.1322
17707W        W35911   9.393  14.101  16.606 -0.0669 -0.0627  0.2741
17708W        W35912   7.121   1.542   2.131 -0.0008  0.0320 -0.0229
17709W        W35913  11.213  16.818   3.554  0.2866 -0.0557  0.0271
17710W        W35914   3.799   7.936   2.137  0.2319 -0.1492  0.1415
17711W        W35915  16.953   9.915  16.832  0.1470 -0.2411  0.1465
17712W        W35916   2.464  16.581  14.514  0.0963  0.1131 -0.3325
17713W        W35917   6.240   2.504  15.230  0.3012  0.0144  0.2830
17714W        W35918   8.735  12.953  17.084 -0.1393  0.3014 -0.0545
17715W        W35919   0.179   0.827   4.004 -0.1784  0.3146 -0.1779
17716W        W35920   8.250   7.220   1.445  0.1970  0.2655  0.0602
17717W        W35921   7.248   0.237  13.191 -0.2498 -0.1919 -0.2342
17718W        W35922   4.737  14.708  16.404 -0.1524  0.3122 -0.0917
17719W        W35923  12.929  13.010   2.541  0.0589 -0.2319 -0.0350
17720W        W35924   0.470  12.341  14.135 -0.0998 -0.0462 -0.1798
17721W        W35925  14.264   2.895   3.353 -0.0497 -0.0195 -0.0536
17722W        W35926   8.065  11.085   5.964 -0.3481  0.0743 -0.0751
17723W        W35927   9.802  11.173   0.477  0.0232 -0.0430 -0.2173
17724W        W35928  17.320   3.205  16.807 -0.0007 -0.1544  0.2701
17725W        W35929  10.509   9.642   6.355  0.1872 -0.2447 -0.0918
17726W        W35930   9.380  12.696   1.675  0.2052  0.2133  0.0133
17727W        W35931  14.110   0.615  12.056  0.0380 -0.0993 -0.2171
17728W        W35932  13.528   1.436   1.702 -0.0344  0.1827 -0.0037
17729W        W35933   6.981  15.103  13.894  0.0009  0.5076 -0.3153
17730W        W35934   4.989   9.518  13.181  0.0551 -0.0571  0.2991
17731W        W35935  13.846   6.887   3.007 -0.0256 -0.1881 -0.1513
17732W        W35936   3.037   7.783  12.753 -0.0840 -0.1904  0.1726
17733W        W35937  13.692   2.807   3.631  0.1686  0.1566 -0.0973
17734W        W35938   9.281   6.975   2.629  0.2427  0.1610 -0.3413
17735W        W35939   8.439   3.819   1.214  0.1686 -0.0233  0.0037
17736W        W35940   0.659   2.101   2.877 -0.3662 -0.0103 -0.0357
17737W        W35941  16.769   2.364  13.280 -0.0239 -0.0428 -0.2594
17738W        W35942   3.870  12.163   0.686 -0.0668 -0.1004  0.2287
17739W        W35943  16.855  16.611   4.144 -0.0203  0.0794  0.0076
17740W        W35944   2.202  10.386   2.652 -0.1328 -0.1204  0.0800
17741W        W35945  14.255   1.312   1.791  0.0029 -0.2701  0.0380
17742W        W35946  12.048   6.414  11.119 -0.0480 -0.1612 -0.1088
17743W        W35947  14.288  12.738   2.899  0.1205  0.0844 -0.0519
17744W        W35948  15.338   5.085   4.050  0.1548  0.1692 -0.1410
17745W        W35949   4.092  12.502  13.153 -0.1290  0.0647 -0.0765
17746W        W35950  10.726   3.941   2.390 -0.2687  0.1673 -0.2941
17747W        W35951  11.059   2.149   3.415  0.2726  0.0052  0.1238
17748W        W35952   5.921   1.433   6.151  0.1320 -0.1133 -0.0089
17749W        W35953  14.366  14.937  13.429 -0.0011  0.0720  0.3717
17750W        W35954  15.292   8.670  17.320  0.2285 -0.2568 -0.1854
17751W        W35955   7.395   5.877   2.741  0.0104 -0.0234 -0.0132
17752W        W35956   2.389   1.509  14.176 -0.0300  0.0163 -0.0017
17753W        W35957   6.049   7.339  16.970 -0.2593 -0.2488  0.1064
17754W        W35958   5.645  11.852  14.594 -0.3337  0.1250  0.0091
17755W        W35959   6.528   7.509  12.711 -0.0315 -0.0347 -0.0899
17756W        W35960  10.819   4.069   4.981  0.0573  0.0811  0.2673
17757W        W35961   1.615  13.152   4.382 -0.0291  0.1870 -0.1768
17758W        W35962  15.065  16.017  16.111 -0.2221 -0.1165  0.2111
17759W        W35963   7.029   2.962   2.477 -0.1088  0.0767  0.1835
17760W        W35964   4.172   7.797  13.480  0.2086  0.0442 -0.0414
17761W        W35965   0.200   3.923   3.299  0.1831 -0.0546  0.1286
17762W        W35966   0.042  10.944   5.002  0.2213 -0.2884  0.1802
17763W        W35967   1.332  14.186   3.275 -0.2110 -0.2863  0.2389
17764W        W35968  13.191  15.701   1.347  0.4249  0.1476 -0.1431
17765W        W35969  14.154  12.683   4.431 -0.0542 -0.1013  0.0880
17766W        W35970  11.152   6.008   0.257  0.3116  0.0419  0.2196
17767W        W35971  10.477   6.779   5.312 -0.2984 -0.0075 -0.2170
17768W        W35972  11.974   5.769  16.877  0.0452 -0.1792  0.0579
17769W        W35973  14.623  16.144  16.277 -0.3316 -0.0348 -0.5142
17770W        W35974  12.461   9.013  16.616 -0.2958 -0.3280  0.1936
17771W        W35975   9.673   6.367  13.953  0.1414  0.0113  0.0839
17772W        W35976   8.764   6.073   2.835  0.2453  0.1400  0.0357
17773W        W35977  14.832  14.039   2.835  0.0903 -0.2196  0.0271
17774W        W35978  17.156   8.222   0.046 -0.1861 -0.0877 -0.1001
17775W        W35979  15.057   7.789   2.806 -0.0664  0.1020  0.2507
17776W        W35980  14.483   7.200   1.784  0.1493  0.2324  0.1612
17777W        W35981   3.965  15.205   3.571 -0.2201 -0.0387 -0.1767
17778W        W35982   3.144  11.107  17.079 -0.0935 -0.0035  0.2930
17779W        W35983   5.583   4.776   3.901  0.1118 -0.2415  0.0587
17780W        W35984   3.385   3.967  16.425 -0.0921 -0.0073  0.1305
17781W        W35985   0.318   4.986   2.164 -0.0008 -0.3925  0.1607
17782W        W35986   3.272  14.704  14.319 -0.1520  0.3046 -0.1265
17783W        W35987  10.638   5.709  15.204 -0.0680  0.0127  0.1619
17784W        W35988   0.647   9.332   0.026  0.1671  0.0797  0.1215
17785W        W35989   0.913  12.210  13.965  0.1662  0.4942  0.2522
17786W        W35990  15.789   9.822   1.304 -0.1019 -0.0125 -0.2258
17787W        W35991   3.121   2.907   2.293  0.0603  0.2244 -0.2680
17788W        W35992  14.496   4.719   1.100 -0.0939  0.2166 -0.0833
17789W        W35993  15.408  12.257  13.378  0.0372  0.0280  0.1360
17790W        W35994   7.035   5.358   0.462  0.1183  0.2890  0.0628
17791W        W35995   1.374  13.882  12.115 -0.0384  0.1000  0.4016
17792W        W35996   7.783  14.774  15.583 -0.0016 -0.0579 -0.2530
17793W        W35997   5.579   4.114   3.101  0.2375  0.1034  0.1739
17794W        W35998   7.529  11.337   0.142  0.0341 -0.0113 -0.0127
17795W        W35999   7.909   4.010  14.856  0.2288  0.1385  0.1236
17796W        W36000   1.227  15.734   3.556  0.0068  0.1143  0.1462
17797W        W36001  17.308   0.686   0.426 -0.0289 -0.0015  0.1390
17798W        W36002  16.321   7.693   1.659  0.0617  0.0001 -0.0129
17799W        W36003  14.041  14.449  15.238 -0.2236  0.0190  0.0334
17800W        W36004  11.780  10.901  16.171 -0.1096 -0.1159  0.1325
17801W        W36005  15.144   6.407   3.371  0.2599  0.2105 -0.3382
17802W        W36006  11.350  15.824   5.670 -0.1407  0.0407 -0.2295
17803W        W36007   8.452  12.267   0.480  0.0995  0.0543  0.0059
17804W        W36008  13.600   4.245   2.566 -0.2267  0.0800  0.1416
17805W        W36009   4.726   5.400   4.862  0.0510  0.0677  0.1247
17806W        W36010   5.689   0.231  12.586  0.1630  0.0687 -0.1061
17807W        W36011   0.452  12.048  13.740  0.0528 -0.0970  0.0290
17808W        W36012  11.457   6.034   4.446  0.0584 -0.1769 -0.1527
17809W        W36013  15.074   3.355   2.440 -0.0238 -0.1100  0.2582
17810W        W36014  13.985   1.683   1.486 -0.1807  0.1309  0.1494
17811W        W36015  11.013  16.173   2.818  0.0551 -0.1115 -0.0146
17812W        W36016  15.269  15.273  13.680 -0.2487 -0.3113  0.2072
17813W        W36017   2.635  11.461  13.159 -0.3860 -0.0233 -0.0442
17814W        W36018   8.907  10.169  12.666 -0.1923  0.2152  0.3778
17815W        W36019   4.963   7.707  14.642  0.1982  0.0438 -0.0322
17816W        W36020   2.539  10.671   4.055 -0.0619  0.4287 -0.2409
17817W        W36021   8.023   9.633  12.001 -0.1619  0.0031 -0.0176
17818W        W36022   7.600  13.406   2.661 -0.1328 -0.0619  0.0084
17819W        W36023   8.071   0.827  13.215  0.1877  0.0601  0.3993
17820W        W36024   0.274  11.191  13.874 -0.0201  0.1547  0.1139
17821W        W36025   7.416   5.922   5.292  0.0778  0.2693 -0.3038
17822W        W36026  12.538  14.341   5.604 -0.3364  0.0270 -0.0040
17823W        W36027  15.277   2.303   4.003 -0.3179 -0.2148 -0.0632
17824W        W36028  14.424  13.614   3.001  0.3774 -0.0676 -0.2468
17825W        W36029  14.634   8.859  16.296 -0.1681  0.2103 -0.2419
17826W        W36030   5.839   0.768  16.118 -0.2457  0.0160 -0.1871
17827W        W36031   4.759  16.928  16.709  0.1738 -0.1313 -0.1983
17828W        W36032   9.718  14.494  16.597 -0.3586  0.0152 -0.0566
17829W        W36033   3.212   4.075   3.655  0.1042 -0.0071  0.1298
17830W        W36034   3.079   5.608   1.134 -0.2412  0.4747  0.1948
17831W        W36035  16.345  11.453   0.557 -0.4903  0.1246  0.2899
17832W        W36036   2.678  11.029  12.880 -0.0355 -0.3030 -0.0797
17833W        W36037   5.337   0.385   2.151  0.0002 -0.0729  0.1100
17834W        W36038   1.569   7.076   3.335  0.3265 -0.6089  0.1062
17835W        W36039  11.740   2.895  14.777  0.0177  0.2462 -0.0770
17836W        W36040  13.392   2.817   2.936 -0.2035 -0.5266  0.1041
17837W        W36041   0.130  10.881   4.388  0.0727 -0.0496  0.1580
17838W        W36042   2.035   9.769  14.703  0.1404 -0.2915  0.0590
17839W        W36043  11.127  10.144  13.854  0.0322 -0.0222 -0.2126
17840W        W36044   0.643   7.476   1.478  0.1540  0.3334 -0.0701
17841W        W36045   7.099  13.333  14.730 -0.5168 -0.0023 -0.0555
17842W        W36046   5.932   9.342  15.775 -0.2144  0.0522 -0.0695
17843W        W36047   4.380   0.731   2.669  0.3391 -0.4676  0.4654
17844W        W36048   7.555   6.411  12.118 -0.2297  0.1436  0.2389
17845W        W36049  11.912   2.925   3.973  0.1767  0.1319 -0.3085
17846W        W36050  11.605  13.917  12.211  0.0243  0.1744 -0.0066
17847W        W36051   4.629   2.729   3.116  0.0740  0.4668 -0.0579
17848W        W36052   5.883   1.354   1.038 -0.1062 -0.2845 -0.0846
17849W        W36053  15.379   3.955  15.987 -0.3297 -0.0493 -0.0574
17850W        W36054  14.422   3.821  15.615  0.1622  0.0317 -0.2551
17851W        W36055  16.499  16.468  12.601  0.0498  0.0328 -0.0149
17852W        W36056   2.075   2.780  13.679  0.0185  0.3033  0.1157
17853W        W36057   6.426   7.222   2.869 -0.1607 -0.1392 -0.3355
17854W        W36058   6.336  12.204   5.256 -0.2290 -0.2203 -0.2166
17855W        W36059  14.066   6.222  16.169  0.0556  0.2485  0.0257
17856W        W36060  11.067   1.899  14.897 -0.2881  0.0606  0.1792
17857W        W36061  11.598   4.084   5.280 -0.2770 -0.1891  0.0155
17858W        W36062  12.060  14.964  16.433 -0.0930 -0.1753  0.3214
17859W        W36063   0.609  11.264   2.207 -0.0094  0.0623  0.2258
17860W        W36064  15.697   1.855  16.820 -0.2021  0.1449  0.0526
17861W        W36065  10.267   7.521  16.805  0.2238 -0.1434 -0.2200
17862W        W36066   1.418   1.844   2.217 -0.0586  0.1564  0.2062
17863W        W36067   4.319   1.981  12.447 -0.1544  0.0590  0.0794
17864W        W36068   6.148   5.951  12.917 -0.0584 -0.0478  0.1531
17865W        W36069   6.543  10.461  14.838 -0.1059 -0.1907 -0.1584
17866W        W36070   6.765   0.059   4.112 -0.0031 -0.3849  0.0372
17867W        W36071  11.817   6.730   2.121 -0.0861 -0.0875  0.0868
17868W        W36072   5.817  14.244  13.819  0.1596  0.0495  0.2313
17869W        W36073  11.396  15.243  12.819 -0.0126 -0.1468 -0.3095
17870W        W36074   1.699   3.839  15.816 -0.2050 -0.1429 -0.0398
17871W        W36075  14.856  10.343  17.164  0.0388  0.1464 -0.0288
17872W        W36076  12.439   0.968   5.539  0.1499  0.0597 -0.2182
17873W        W36077   9.475  16.577  15.884  0.1826 -0.5304 -0.0327
17874W        W36078  16.326  15.419  13.320 -0.0753  0.0170  0.0718
17875W        W36079   4.577  14.995   2.098 -0.0634 -0.1012 -0.2246
17876W        W36080  10.224   8.989  16.944  0.2578  0.0857 -0.1210
17877W        W36081   7.559   4.264  15.584  0.0853  0.2402  0.2709
17878W        W36082   3.693   7.226   4.988  0.1259  0.1859  0.1449
17879W        W36083  15.403  13.291   1.264 -0.0576  0.2352  0.1967
17880W        W36084  14.025  15.793   1.024  0.2957 -0.0686  0.0758
17881W        W36085  16.026  15.806  17.496  0.1096 -0.2635 -0.0545
17882W        W36086  16.731  12.358  16.678 -0.1041  0.1029 -0.0019
17883W        W36087   6.269   7.382  12.279 -0.1435 -0.0206  0.1332
17884W        W36088  12.731   1.088  15.559 -0.0404  0.3051 -0.1407
17885W        W36089  15.757   4.880  12.656 -0.1351  0.1808  0.1663
17886W        W36090   5.859  15.940   2.988 -0.4675  0.1568  0.0473
17887W        W36091  11.765   5.432  13.196 -0.2429 -0.2957 -0.1387
17888W        W36092  15.965   3.538  13.958 -0.1185  0.1662  0.1221
17889W        W36093  15.718   7.492   1.786 -0.0317 -0.0172 -0.1184
17890W        W36094   3.308   2.663   0.784 -0.0441  0.0169 -0.1035
17891W        W36095  13.852  13.462  16.470 -0.1495  0.3153 -0.1654
17892W        W36096   0.765   5.738  16.360 -0.0743  0.1350  0.2797
17893W        W36097  15.129  16.576   1.247  0.3000 -0.1633  0.2639
17894W        W36098   9.745   7.262  12.448 -0.0336 -0.1758 -0.4732
17895W        W36099   1.634   4.407  12.956  0.0466  0.0379  0.1842
17896W        W36100   2.590   7.748  12.498  0.0138  0.1198 -0.2091
17897W        W36101   4.815   9.613   3.144 -0.0282 -0.3441  0.2889
17898W        W36102  16.624   6.576   2.623 -0.0964  0.1251 -0.0249
17899W        W36103  11.615   2.224   2.417  0.2120 -0.0248  0.0444
17900W        W36104  10.363  16.539  12.513  0.1948  0.0887 -0.0813
17901W        W36105   1.974  10.564   4.743  0.1144  0.2424 -0.0635
17902W        W36106   7.428  14.614  15.255 -0.0782  0.1880 -0.4203
17903W        W36107  15.103  14.114  15.905  0.1346  0.0840  0.0021
17904W        W36108  14.186   1.492   0.767  0.2180 -0.0809 -0.1687
17905W        W36109  11.450  13.088   2.775  0.2944  0.2118 -0.1347
17906W        W36110   4.407   0.719  12.080  0.1091 -0.1092  0.0594
17907W        W36111  12.554   6.423  12.571 -0.0049  0.0919 -0.0102
17908W        W36112   3.297  13.149   1.654 -0.0282 -0.4794 -0.0357
17909W        W36113   3.134  14.038  17.147  0.1659  0.0558  0.0901
17910W        W36114  11.487   8.956  16.400 -0.1488  0.2358 -0.3211
17911W        W36115   2.443  15.503   1.544  0.1027  0.1474 -0.1612
17912W        W36116   2.425  13.287   2.715  0.0044  0.1176  0.0167
17913W        W36117   5.263  17.184  13.580  0.1667  0.2116 -0.2564
17914W        W36118  16.029   6.001  16.723 -0.0694  0.2436  0.0943
17915W        W36119   9.936  10.616   3.622  0.1343 -0.1346  0.2254
17916W        W36120  16.317  16.636   3.968 -0.0534 -0.1937  0.0774
17917W        W36121   6.512   5.234   4.072 -0.3234 -0.0048 -0.3465
17918W        W36122   7.418  14.961   0.594 -0.1144  0.1182  0.2113
17919W        W36123  13.803   5.757  14.073 -0.2014 -0.5031  0.0870
17920W        W36124  13.933   1.798   1.970 -0.0375  0.2178  0.2458
17921W        W36125   2.926  14.887  15.560  0.0410 -0.0502 -0.0517
17922W        W36126   7.234  13.961   1.797 -0.0620 -0.1352  0.1517
17923W        W36127   8.629  10.876  14.514  0.0441 -0.0617 -0.0558
17924W        W36128  10.422  15.785  15.239  0.2955 -0.1817 -0.1834
17925W        W36129   5.898  10.718  13.374 -0.1367  0.4404 -0.1457
17926W        W36130  10.543   7.919  16.615 -0.1384 -0.0835  0.1432
17927W        W36131  13.010   1.880  11.777 -0.3108 -0.3555  0.1846
17928W        W36132   1.322   7.597  15.466  0.1324 -0.0274 -0.0100
17929W        W36133   4.134   9.547   2.155 -0.1829 -0.0924  0.1082
17930W        W36134   0.050   5.514   0.239 -0.0358  0.0384  0.0101
17931W        W36135  16.690   1.672   2.393 -0.1645 -0.0774 -0.0432
17932W        W36136  10.742   4.334   1.225 -0.1537 -0.3158 -0.1754
17933W        W36137   6.111  15.645   2.290  0.0358 -0.2285  0.2532
17934W        W36138   5.836   2.665  12.796 -0.0390 -0.1281 -0.1214
17935W        W36139  15.431  15.675  13.484 -0.0696 -0.2210 -0.0361
17936W        W36140   5.798  14.728   2.654 -0.1044  0.2077 -0.2339
17937W        W36141  14.333  13.127   3.225 -0.0178 -0.1023 -0.0851
17938W        W36142   5.554   1.557  16.544 -0.1540 -0.1515  0.0407
17939W        W36143  10.463  13.896   1.696  0.0270 -0.3026  0.1271
17940W        W36144   6.960   4.468   1.840  0.0532 -0.0492 -0.0613
17941W        W36145   2.073  14.227  14.625 -0.2360 -0.1515  0.3066
17942W        W36146  12.637   5.553   4.397 -0.0838  0.0247  0.0413
17943W        W36147   6.940   5.850   1.826  0.1947  0.1002 -0.3098
17944W        W36148   9.525  13.894   1.749 -0.0846 -0.0205 -0.0997
17945W        W36149   4.829  17.200  12.825  0.0098  0.1360  0.1225
17946W        W36150   5.361  13.764  14.579  0.0880  0.2324  0.0430
17947W        W36151  15.045   8.286   1.479  0.2694 -0.0351  0.1141
17948W        W36152  10.942   9.824  17.053  0.1921  0.2599 -0.0532
17949W        W36153   4.445  13.983  13.600  0.1119  0.2580  0.0512
17950W        W36154  10.845   6.650   2.342  0.0588  0.2918  0.2269
17951W        W36155  11.319   3.328   0.797 -0.0053  0.3119 -0.1538
17952W        W36156   9.883  13.903   4.404  0.0200  0.0684 -0.1937
17953W        W36157   0.834   7.288   4.838 -0.0368 -0.0875 -0.0986
17954W        W36158   4.427   9.177   1.371 -0.4735  0.3478  0.0493
17955W        W36159  10.650  11.173  15.855 -0.2666  0.1160  0.1904
17956W        W36160   6.450   9.519  15.929 -0.1920 -0.0539 -0.0371
17957W        W36161   4.143   0.759   5.176 -0.2727 -0.0117 -0.0147
17958W        W36162   8.244   7.625   4.156 -0.1800  0.0219  0.1004
17959W        W36163  16.469  15.786   2.871  0.0989 -0.2786 -0.0342
17960W        W36164  14.893   8.569   0.164 -0.0543  0.0500  0.2760
17961W        W36165  17.142   2.014  14.124  0.0084 -0.2727 -0.0701
17962W        W36166   9.811   6.106   5.426  0.2130 -0.0470  0.0168
17963W        W36167   7.017   1.909   3.311  0.1893  0.1539 -0.0165
17964W        W36168  10.486   7.387   5.234  0.0687  0.2725  0.1548
17965W        W36169   5.778   9.725  15.494 -0.1279  0.0515 -0.1480
17966W        W36170  14.552  12.961   4.134  0.0672  0.2121 -0.1600
17967W        W36171   8.121   1.583   0.578 -0.1128 -0.1643 -0.0423
17968W        W36172  16.516  14.043  14.350 -0.0901  0.1142 -0.1067
17969W        W36173  12.460  13.950  14.447 -0.1586  0.0237  0.0302
17970W        W36174   5.118   4.737  16.532 -0.3058  0.1247  0.0058
17971W        W36175   4.925   6.987  13.438 -0.2684 -0.0788 -0.2779
17972W        W36176  15.252  15.547  11.637 -0.2293  0.1329  0.2117
17973W        W36177   1.939   1.029   1.574  0.0910  0.1154  0.1143
17974W        W36178  10.390   6.095  15.406  0.0640  0.1160  0.0720
17975W        W36179  15.305  14.691  14.728  0.0400 -0.1751  0.1856
17976W        W36180  13.695   4.611  15.411 -0.0263  0.0406 -0.0303
17977W        W36181   6.929   3.042  15.796  0.0595 -0.3841 -0.0587
17978W        W36182   1.136   9.388  12.882  0.2246 -0.0918  0.2076
17979W        W36183  15.087   6.276  12.583  0.0152  0.0339  0.1744
17980W        W36184   1.206  16.592  13.676 -0.1046 -0.2921 -0.0027
17981W        W36185   1.710  10.940   0.953 -0.0750  0.0484  0.0987
17982W        W36186   9.065  12.893  14.318 -0.0189  0.1106  0.0710
17983W        W36187  14.273  16.079   2.134 -0.1983 -0.0004 -0.0295
17984W        W36188   6.793   9.874  13.109  0.1941 -0.0391  0.0415
17985W        W36189  10.540   3.075   1.233 -0.4078  0.1831  0.1360
17986W        W36190  12.139  13.316  15.100  0.0428  0.2260 -0.0140
17987W        W36191   8.444   3.022  12.833 -0.0771 -0.2816  0.0004
17988W        W36192   3.359   5.733   0.628 -0.0457 -0.0839  0.0216
17989W        W36193   2.707   3.579   4.388 -0.0123  0.2368  0.0574
17990W        W36194   0.995  12.711  14.051  0.1566 -0.2149 -0.0265
17991W        W36195  17.253   0.824  15.481  0.1487 -0.5355  0.2099
17992W        W36196  15.084  11.523  15.092 -0.0696 -0.3661 -0.0334
17993W        W36197  13.085   0.127   1.501  0.2110 -0.2868 -0.0748
17994W        W36198  10.076   6.466   6.775  0.2880  0.1185 -0.0479
17995W        W36199  11.895  13.273   0.262 -0.1206 -0.0957 -0.5445
17996W        W36200   9.328   0.458  16.911  0.1343  0.0158 -0.1458
17997W        W36201   6.480   3.249  13.663 -0.0433  0.0246 -0.0387
17998W        W36202   4.761   0.574   3.464 -0.0794 -0.1291 -0.0438
17999W        W36203  13.907   1.187  17.370 -0.1861  0.0864 -0.0720
18000W        W36204   7.941   3.995   2.906  0.1727 -0.0816  0.4071
18001W        W36205  16.013   9.854  17.199 -0.0471  0.0219 -0.4140
18002W        W36206   4.404   0.632  16.173 -0.1415 -0.0185  0.0625
18003W        W36207   5.165   1.144   2.693 -0.0130 -0.0634 -0.0038
18004W        W36208  12.635   4.856   2.087  0.0865  0.1677  0.0754
18005W        W36209   5.184  14.045   3.479  0.1537  0.0772  0.0832
18006W        W36210   0.862  10.536  12.658 -0.1457  0.2716  0.1682
18007W        W36211   5.919  10.998  12.881  0.0835 -0.1067 -0.0571
18008W        W36212   0.773  15.661  14.886 -0.0411 -0.3826 -0.1731
18009W        W36213  13.649  14.584   1.246 -0.1713  0.0140  0.3530
18010W        W36214   3.678   7.220   4.374  0.2219 -0.0249 -0.0323
18011W        W36215  11.812   1.277   0.146  0.1867 -0.1854  0.0579
18012W        W36216  12.589  15.936  13.793  0.0755  0.0229  0.0788
18013W        W36217  15.469  11.796   6.026 -0.0453  0.0217  0.0585
18014W        W36218   6.106  11.185  13.312 -0.1879  0.2867  0.1638
18015W        W36219  14.358  11.561  13.744  0.2101  0.3908 -0.2866
18016W        W36220  13.573  14.111  12.837 -0.0649 -0.4284  0.1833
18017W        W36221  15.877  13.975   3.429  0.0038  0.0153  0.2973
18018W        W36222  11.898   6.474   1.686  0.0966  0.1495  0.0916
18019W        W36223  12.131   2.977   4.467  0.0701 -0.1224  0.2280
18020W        W36224   4.543  15.539  12.468 -0.0322 -0.1063  0.0537
18021W        W36225   9.575  15.220   3.177 -0.1455  0.0074  0.2701
18022W        W36226  12.288  16.718   0.608  0.1656  0.0656 -0.4244
18023W        W36227   0.653   9.104   5.260  0.3072 -0.1746  0.1111
18024W        W36228  14.237   2.474  13.742  0.1298 -0.1822  0.1118
18025W        W36229  13.337  10.791   2.758  0.1360  0.0543  0.2450
18026W        W36230   3.495  12.225  12.574 -0.1323 -0.3719  0.2712
18027W        W36231  13.903   1.750   4.358  0.0666 -0.0053 -0.1450
18028W        W36232   1.415  12.214   2.543  0.0463  0.4662  0.2890
18029W        W36233  12.401   4.403   4.027  0.3150 -0.0382  0.1004
18030W        W36234   8.476   7.078   5.014  0.0198 -0.1290 -0.1710
18031W        W36235  11.127  10.000   1.808  0.0059  0.2011  0.1252
18032W        W36236  10.793  14.278  16.025  0.0523 -0.0537  0.1449
18033W        W36237   6.527  12.821  14.512 -0.2660  0.0034 -0.0288
18034W        W36238  14.476   3.606  12.793 -0.2227 -0.0734  0.3374
18035W        W36239  13.949  16.182   0.360 -0.0102  0.2713 -0.1128
18036W        W36240  17.171   6.893  16.573 -0.0973 -0.4173 -0.2337
18037W        W36241  14.445   0.567   4.625  0.4386 -0.1584  0.0409
18038W        W36242  16.586  11.882  14.610  0.0448 -0.1413  0.1828
18039W        W36243  12.954  16.444   0.677 -0.0220 -0.1842 -0.1228
18040W        W36244   5.058   7.324  15.057 -0.2809 -0.1066  0.1361
18041W        W36245  12.064   4.920   6.067 -0.0069  0.0380  0.3833
18042W        W36246   3.059   4.942   2.291  0.4221  0.0638 -0.0979
18043W        W36247  16.855   5.678   2.260 -0.2174 -0.1257  0.0080
18044W        W36248   0.695   7.599  15.123  0.1233  0.4237 -0.3241
18045W        W36249  17.308  16.333   3.765  0.1512  0.0174 -0.0800
18046W        W36250  15.870   1.810  15.438 -0.2972 -0.1349  0.1225
18047W        W36251   4.149   5.287  13.438 -0.0892 -0.0541  0.0088
18048W        W36252  17.054   2.918  16.292  0.0717 -0.3937  0.0527
18049W        W36253  14.928  15.811   3.774 -0.2093  0.1575 -0.1364
18050W        W36254  16.591  14.394  16.131  0.0607 -0.1531  0.0412
18051W        W36255  17.078   1.846   1.594  0.0432 -0.1154 -0.0410
18052W        W36256   4.162   2.389  12.241 -0.1068  0.1430 -0.2824
18053W        W36257   6.374  11.944  13.608 -0.1286  0.1664 -0.1273
18054W        W36258  16.218   2.423  15.744 -0.0463  0.1513 -0.1746
18055W        W36259  16.913  11.056  12.891  0.3474  0.2415  0.0600
18056W        W36260   0.811  14.716   5.008  0.1041 -0.0179  0.0205
18057W        W36261  14.195   9.950   3.176  0.0920  0.0788 -0.2850
18058W        W36262  14.567   4.506  12.436 -0.0934  0.1634 -0.0108
18059W        W36263   0.820   5.555   4.778 -0.2093  0.2765 -0.0542
18060W        W36264  12.775   4.311   0.775  0.1449 -0.0715 -0.2689
18061W        W36265   7.693   0.400  14.966  0.0853  0.0025  0.0393
18062W        W36266  15.534  15.963  16.718 -0.0036  0.2557 -0.0383
18063W        W36267  15.284   3.086  17.306  0.0993 -0.2907  0.0038
18064W        W36268   5.044  14.310  15.493  0.0059  0.0643 -0.0863
18065W        W36269  10.586  13.517  17.188 -0.1803 -0.5248  0.1210
18066W        W36270   7.103   5.456  16.359  0.2286 -0.4536  0.1306
18067W        W36271  16.721  11.397  16.335  0.3492 -0.0714  0.1680
18068W        W36272   4.421  11.680   2.277  0.5038 -0.0715  0.0405
18069W        W36273   9.983   0.992   2.522  0.0523 -0.0378 -0.0162
18070W        W36274  13.494  13.160   0.553  0.0454 -0.3088  0.1947
18071W        W36275  13.286   5.321  16.751  0.2385  0.1721  0.0077
18072W        W36276  14.279   2.127   4.608 -0.2976 -0.1122  0.3703
18073W        W36277  11.480  17.129   3.800  0.2199 -0.0228 -0.1453
18074W        W36278   1.365  16.226  14.027 -0.2291 -0.2704  0.0878
18075W        W36279   8.500  16.636   2.794 -0.0491  0.0005 -0.1179
18076W        W36280  12.729  15.297  13.523 -0.1368 -0.2113 -0.1419
18077W        W36281  16.081   6.364   2.659  0.0149  0.0316  0.1074
18078W        W36282   5.509   7.668  14.912  0.3040 -0.0491  0.0760
18079W        W36283   1.454   9.432  15.016 -0.4145 -0.0171 -0.0296
18080W        W36284   5.310  12.172  12.330  0.0897 -0.2882 -0.0766
18081W        W36285   9.310   5.820  13.393 -0.3268  0.0661  0.0855
18082W        W36286  15.491   4.811  15.481  0.2349 -0.2235  0.1798
18083W        W36287  14.685  13.679  15.309  0.1645 -0.2536  0.0601
18084W        W36288  16.026  16.833   5.107 -0.1160 -0.2371 -0.0130
18085W        W36289  14.409  14.484  11.320 -0.0253  0.0131 -0.0129
18086W        W36290  15.735   8.350   2.195 -0.2604 -0.1621 -0.2368
18087W        W36291   1.950   9.123   1.569  0.3154  0.0429  0.0936
18088W        W36292   8.499  11.754   5.334 -0.0395  0.3184 -0.2081
18089W        W36293   9.695   4.447   4.141 -0.3259 -0.1526 -0.1243
18090W        W36294   3.053  10.767  13.392 -0.1767 -0.1668  0.0896
18091W        W36295   2.022  10.656   3.720 -0.0238 -0.0675  0.0361
18092W        W36296  12.242   5.671   2.280 -0.2530  0.1307 -0.0148
18093W        W36297  14.890   3.360   3.705 -0.0706 -0.2147 -0.0043
18094W        W36298   6.321   1.861   3.736  0.2760  0.0789  0.0791
18095W        W36299  17.244   8.032   3.596  0.1071 -0.0232 -0.1644
18096W        W36300  14.488   3.935   5.285 -0.0695  0.1203  0.0724
18097W        W36301  10.850  16.012   1.405  0.0032 -0.0912 -0.0967
18098W        W36302   0.233  10.369   0.511 -0.0900  0.2570  0.1453
18099W        W36303   5.707   4.537   4.405 -0.1044 -0.0184 -0.2910
18100W        W36304   2.121  16.024  16.601  0.0596  0.0180 -0.0602
18101W        W36305  12.434  11.031   0.993  0.0397 -0.1443 -0.3840
18102W        W36306   8.403  10.839   3.018  0.0049  0.2033  0.1826
18103W        W36307  16.148   5.858   3.487 -0.1920 -0.0400  0.0195
18104W        W36308  14.592   9.927  14.337  0.0123 -0.1143  0.2971
18105W        W36309   5.816   7.645  12.258  0.0601 -0.0847  0.0114
18106W        W36310  16.800  13.156   2.217 -0.0581 -0.0136 -0.1147
18107W        W36311   9.102   4.743   1.128 -0.2589  0.3765 -0.0748
18108W        W36312   7.746   5.132   2.234 -0.0968 -0.0346  0.3422
18109W        W36313   9.249  13.056   4.713 -0.0044 -0.3181  0.6558
18110W        W36314   3.220   0.268   2.372  0.3714  0.0837  0.0487
18111W        W36315   3.924   5.325   4.940 -0.2194 -0.4786  0.0099
18112W        W36316   1.127   3.010  17.196  0.1391 -0.1041 -0.2020
18113W        W36317  11.329  11.578   4.047 -0.1299  0.0797  0.2564
18114W        W36318   6.573   1.611   4.829 -0.0066 -0.0567  0.0136
18115W        W36319   2.871   4.737  16.114 -0.0104  0.0157 -0.3567
18116W        W36320   8.473  14.090  13.868  0.0232  0.0533  0.2225
18117W        W36321   5.101  13.954   4.116  0.1405  0.0786  0.0745
18118W        W36322  16.629  12.673  16.189  0.1254  0.1788 -0.2805
18119W        W36323   8.823   5.672  14.659  0.1302 -0.3615 -0.0832
18120W        W36324  17.006  16.417  16.847 -0.2667  0.1296  0.0603
18121W        W36325  13.606   9.388   0.524 -0.2602 -0.1042 -0.0382
18122W        W36326   1.162   2.032   1.768 -0.1454  0.2130 -0.1031
18123W        W36327   9.790  14.979   4.854 -0.1423 -0.1477  0.1994
18124W        W36328   6.095   8.871   5.429 -0.0576  0.1299  0.0526
18125W        W36329   3.853   2.395   3.954 -0.2834  0.2130 -0.1939
18126W        W36330   6.565  12.686  14.043 -0.2376 -0.0873  0.2599
18127W        W36331   6.729   2.340  16.260  0.0834 -0.1097 -0.1238
18128W        W36332   1.913   0.186   4.937  0.0536  0.0388  0.0124
18129W        W36333  13.139   7.129   2.072  0.1995 -0.4219  0.0616
18130W        W36334  14.398   8.414  14.891 -0.1600  0.1341 -0.3239
18131W        W36335  14.795   3.412   5.967 -0.0198  0.0659  0.3524
18132W        W36336   5.585  12.757  15.901 -0.0822 -0.0671  0.1611
18133W        W36337   3.339   2.378   4.293 -0.1462 -0.1822  0.1775
18134W        W36338   6.133   5.826  15.211 -0.0206  0.1242 -0.0518
18135W        W36339  12.161   5.544  16.103 -0.1243 -0.0512  0.1342
18136W        W36340   9.759  11.177   3.784 -0.0674 -0.0484 -0.3153
18137W        W36341   6.435  12.575  17.185  0.4471  0.0263 -0.0467
18138W        W36342  11.895   9.377  11.608  0.0408  0.2266 -0.1256
18139W        W36343   4.695   4.373  15.881 -0.1199  0.1361  0.1485
18140W        W36344  14.180  15.301  13.145  0.1384 -0.0239 -0.2551
18141W        W36345  13.836   8.135   5.156 -0.0681 -0.0080  0.1183
18142W        W36346   3.610  10.581  12.403 -0.0542 -0.0105 -0.0843
18143W        W36347   9.093  14.137   0.262 -0.1831 -0.0903 -0.0240
18144W        W36348  15.256   6.746  13.491 -0.1886  0.1510  0.0123
18145W        W36349  14.462  16.080   5.097  0.0128 -0.0637  0.0003
18146W        W36350  13.110   1.513   4.044  0.0312  0.0713  0.1196
18147W        W36351   5.061  15.940   1.604  0.0388  0.0415 -0.0674
18148W        W36352  12.173   7.279   0.871  0.1928  0.2491  0.0878
18149W        W36353  11.904   3.030  14.013  0.0360  0.2016  0.0692
18150W        W36354  16.819  11.387   3.545  0.0459 -0.1962  0.1350
18151W        W36355   8.971   1.911   3.202 -0.0115 -0.1259 -0.2051
18152W        W36356  12.326   9.264   1.979 -0.0351  0.0484  0.2995
18153W        W36357  16.813   2.636  14.941  0.1384  0.0122  0.1638
18154W        W36358  10.082   9.398  12.698 -0.0778  0.0108  0.0278
18155W        W36359   1.630  14.738   0.180  0.1279 -0.0235  0.1239
18156W        W36360  15.675  17.222   4.611 -0.2359  0.0585 -0.3012
18157W        W36361   4.025   0.528  15.825 -0.1412 -0.0315 -0.0709
18158W        W36362  16.573  16.532  17.155  0.1604  0.1460  0.1322
18159W        W36363  15.065   9.097   2.330 -0.0789 -0.1397 -0.2996
18160W        W36364   0.309   7.578   3.564 -0.1984 -0.0148 -0.1880
18161W        W36365  14.308   9.246   1.176  0.2070  0.4184 -0.0017
18162W        W36366   7.926   5.226   0.746 -0.1322  0.2101 -0.1650
18163W        W36367  12.138   6.375  12.846  0.0801  0.0166 -0.0690
18164W        W36368   1.638   2.928  16.239  0.1821  0.0172  0.0932
18165W        W36369   0.895   5.617  13.599  0.2665 -0.1941  0.0265
18166W        W36370  13.408  14.317  16.478  0.0580 -0.0317  0.1238
18167W        W36371  14.093  14.165  12.438  0.0327 -0.0846  0.1167
18168W        W36372   0.507   2.373  12.258 -0.1357 -0.0149  0.0507
18169W        W36373  10.733  13.430  13.663 -0.2366  0.1652  0.3369
18170W        W36374   3.630   0.301  15.541 -0.1015  0.1669  0.0520
18171W        W36375   4.010   0.433   2.478  0.0476 -0.0507  0.2668
18172W        W36376   9.290   2.771   2.867 -0.1361 -0.2096  0.2191
18173W        W36377   0.273   8.458  12.714  0.3388 -0.1395 -0.0457
18174W        W36378   8.877  11.033  13.639  0.4371  0.0900 -0.2646
18175W        W36379   1.084   0.721   0.085 -0.0140  0.2559  0.0052
18176W        W36380  11.663   5.647  15.200 -0.1919 -0.5001 -0.5078
18177W        W36381  14.786   6.356  15.198  0.2569 -0.0634 -0.2118
18178W        W36382  15.213   1.468   0.011 -0.0701 -0.1232 -0.3418
18179W        W36383   8.596   8.640  11.733  0.0788  0.0521 -0.0279
18180W        W36384   3.243  17.229  14.480  0.0820 -0.0726 -0.2417
18181W        W36385   1.880  15.267  15.588  0.0091  0.1159 -0.0233
18182W        W36386   9.975   1.132  16.839  0.0923 -0.1818  0.1480
18183W        W36387  11.635  13.278   3.225 -0.5052  0.0122 -0.4369
18184W        W36388   5.211   0.549  16.946  0.1960  0.2446  0.3261
18185W        W36389   7.003  15.902  16.097 -0.0439  0.0425 -0.0800
18186W        W36390  10.642  13.203  12.658  0.0291 -0.2678 -0.1022
18187W        W36391   2.441  11.038  14.870  0.0696 -0.4722  0.1511
18188W        W36392  10.420   8.851   2.028 -0.1854  0.0290  0.1569
18189W        W36393  13.149  11.519   3.205  0.0641 -0.1108 -0.2063
18190W        W36394  15.285  15.516  16.961 -0.1161  0.2517  0.0468
18191W        W36395   1.281   4.582   1.309  0.0674  0.0598  0.1933
18192W        W36396  16.417   0.827   1.554  0.1791  0.0369 -0.0982
18193W        W36397  15.263  10.994  15.956 -0.1978  0.1866 -0.0121
18194W        W36398   7.000  10.769  14.716  0.1307 -0.1340 -0.1361
18195W        W36399  17.289   3.949   4.322  0.0170  0.0916 -0.1851
18196W        W36400   5.770   1.642  12.772 -0.2445  0.2818  0.3917
18197W        W36401   8.117   7.859   5.083  0.0042  0.1303 -0.1474
18198W        W36402  13.287  10.387   1.030 -0.0030  0.0488 -0.0026
18199W        W36403   1.454   9.546  13.716 -0.1152 -0.0201  0.0020
18200W        W36404   4.347   7.835  16.656 -0.2764 -0.0156 -0.0427
18201W        W36405  12.575   7.288   3.801 -0.1542 -0.2878  0.3796
18202W        W36406   1.567  17.058  15.900  0.1224 -0.0496  0.1462
18203W        W36407   1.277   3.722   4.787  0.0721 -0.1811  0.1353
18204W        W36408  15.379  11.156  13.756  0.1905  0.1869  0.0595
18205W        W36409  11.616  10.938   1.562 -0.3636  0.1359 -0.0732
18206W        W36410  13.124  16.767   2.257 -0.2166 -0.0146 -0.0744
18207W        W36411   3.024   8.716  12.421  0.1034  0.0126 -0.2113
18208W        W36412  15.674  10.707  14.811 -0.0406 -0.1330  0.1313
18209W        W36413  16.744  11.000   3.894  0.0718 -0.4159 -0.0907
18210W        W36414   3.231   4.435   5.543 -0.0504 -0.0801  0.0414
18211W        W36415   7.349  15.929   3.805  0.2150  0.1222 -0.0345
18212W        W36416  13.854  15.618  12.278  0.2518 -0.1038  0.0103
18213W        W36417  16.485   4.985   0.859  0.0517  0.0822 -0.1567
18214W        W36418  11.100  14.470  16.885  0.1090  0.0278  0.2851
18215W        W36419   5.814   8.317  14.647  0.0882 -0.1665 -0.1155
18216W        W36420   5.791   4.586  14.834  0.2929 -0.3528 -0.2297
18217W        W36421   9.280   3.192  15.593 -0.0687  0.2418  0.0798
18218W        W36422   7.372  14.768   4.654  0.0024 -0.4400 -0.0534
18219W        W36423  14.430   4.671  14.297 -0.0662  0.3171  0.1592
18220W        W36424   9.284   5.937  14.724  0.0432 -0.2075 -0.1856
18221W        W36425  10.186  11.799   5.229 -0.0531  0.2745 -0.0352
18222W        W36426   7.636  13.780  14.976 -0.1546  0.2322 -0.1662
18223W        W36427  11.397   0.813  12.335 -0.0828  0.0015 -0.0082
18224W        W36428   9.239  10.140   4.652 -0.1395  0.4174  0.2444
18225W        W36429  11.124   5.050  12.220  0.2214  0.0560 -0.2625
18226W        W36430   0.297   5.763   0.630 -0.0506  0.1526 -0.0935
18227W        W36431   9.943   5.596  15.923  0.0562 -0.0590  0.1254
18228W        W36432   0.252   6.629   1.617 -0.1301  0.1078  0.0538
18229W        W36433   8.660   0.681   3.638  0.0007 -0.0635  0.1085
18230W        W36434   3.843  17.236   4.243  0.1792  0.0407 -0.2034
18231W        W36435   7.412  11.638   2.270 -0.2285 -0.2365 -0.1792
18232W        W36436   6.557   7.131   2.361  0.1852 -0.2118 -0.0486
18233W        W36437   8.128   2.141  14.989 -0.2063 -0.3434 -0.2611
18234W        W36438  14.529  10.959   0.568  0.0976  0.3149  0.0232
18235W        W36439  12.141  12.725  16.572  0.3723  0.1137  0.4384
18236W        W36440   0.646   6.444  12.302  0.1408  0.2762  0.2751
18237W        W36441   3.706  11.405   3.784  0.0389  0.4990  0.0367
18238W        W36442  12.772  15.719  15.674 -0.2056 -0.2898 -0.0623
18239W        W36443  14.669  12.399   2.925 -0.0135  0.2784  0.1324
18240W        W36444   8.294   5.318   4.643  0.1286 -0.0474 -0.1214
18241W        W36445  16.859  10.449   1.154 -0.4621  0.0219  0.0472
18242W        W36446   2.770  15.668   5.720  0.0073 -0.0637  0.0821
18243W        W36447   9.275  16.870   2.987  0.0290  0.0960 -0.0684
18244W        W36448   7.248   1.781  14.545  0.3034  0.3376  0.2845
18245W        W36449  12.865   5.395   0.689  0.2831  0.0594  0.1459
18246W        W36450   9.591   4.186   4.551 -0.2043 -0.0430 -0.0496
18247W        W36451   8.159   6.700   4.902  0.1062 -0.1826  0.0785
18248W        W36452   1.711   8.816   1.300 -0.0193 -0.0672 -0.0734
18249W        W36453   4.783   7.885   3.879 -0.1721 -0.1360  0.3597
18250W        W36454   8.691   4.386  15.002 -0.0074 -0.1754 -0.3841
18251W        W36455   2.170  11.478   5.628 -0.3863  0.0032  0.0986
18252W        W36456   7.057   5.256   0.999  0.2171 -0.3596 -0.2066
18253W        W36457   5.874  13.943  17.016  0.2037  0.1342  0.1796
18254W        W36458   1.997   6.184   3.096 -0.0490 -0.0278 -0.0525
18255W        W36459  12.565  10.159   1.937 -0.2232  0.0420  0.1161
18256W        W36460  12.903   7.666  16.285  0.5265 -0.1615  0.1525
18257W        W36461  14.833   7.217   0.427  0.0234  0.0429 -0.0669
18258W        W36462  14.211   0.217   2.063  0.2214  0.2249  0.0214
18259W        W36463   7.574  11.301  13.047  0.1568 -0.0453  0.0515
18260W        W36464   6.168   6.323   4.689 -0.3179  0.4096  0.0277
18261W        W36465  10.539   3.905  13.349  0.1685  0.2505 -0.0695
18262W        W36466  15.799  16.487   1.854 -0.0174  0.1570 -0.2348
18263W        W36467   7.373  16.059  13.139 -0.2380 -0.1839  0.0369
18264W        W36468  10.883  10.867  16.421 -0.0532  0.0551 -0.2313
18265W        W36469  10.240  13.171   3.087  0.2703  0.3143 -0.0838
18266W        W36470   2.806  16.490   0.281 -0.0659  0.1282  0.0322
18267W        W36471  16.959   7.321  13.832  0.0280 -0.0687 -0.1551
18268W        W36472   7.738   3.494  14.501 -0.1267  0.3482  0.1390
18269W        W36473  13.160   9.757  14.515 -0.0097 -0.0465  0.1949
18270W        W36474  13.099   0.641   1.613 -0.0196 -0.2748 -0.0135
18271W        W36475   1.185   5.626  16.052 -0.1210 -0.0470 -0.0315
18272W        W36476   9.462  16.798   3.848  0.0954 -0.0311 -0.2412
18273W        W36477   0.439  14.030   4.617  0.1589 -0.0190  0.0547
18274W        W36478  12.227   0.297   3.682 -0.3307  0.0345  0.1384
18275W        W36479   1.414   4.951  17.253  0.0538 -0.2697 -0.0240
18276W        W36480  10.357  11.855  17.038  0.1155 -0.2072 -0.0400
18277W        W36481   0.340  15.113   0.329  0.1543 -0.0807 -0.4619
18278W        W36482   3.048  16.225  12.793  0.2117 -0.2952 -0.2803
18279W        W36483   1.324   2.638   0.009 -0.1986  0.0857  0.1637
18280W        W36484   4.444  14.586  14.959  0.0105 -0.1507 -0.0245
18281W        W36485   2.249  10.512   1.488  0.1242  0.0891 -0.1673
18282W        W36486  16.565   1.893  12.141 -0.1365 -0.0137  0.0807
18283W        W36487   3.177   0.612   5.340  0.2886 -0.1217  0.1324
18284W        W36488  15.286   4.974  13.985 -0.0407 -0.1769 -0.2904
18285W        W36489   3.073   5.590  14.022 -0.3564 -0.1087  0.1032
18286W        W36490   6.512  15.854  15.072  0.1028 -0.1427  0.2547
18287W        W36491   0.934  14.125   0.313 -0.0667  0.2527  0.1257
18288W        W36492   2.649   6.828  17.288  0.4835 -0.0928  0.0893
18289W        W36493   2.127   4.334   0.186 -0.0663  0.2419  0.0382
18290W        W36494  17.120  10.842  14.364 -0.0194  0.3187  0.3300
18291W        W36495  11.796   7.709   2.225  0.1084 -0.1522  0.2122
18292W        W36496   0.368  16.537  12.904  0.0855  0.0031  0.0072
18293W        W36497  14.996  16.151   5.210  0.0613  0.0784  0.0725
18294W        W36498  14.349  16.397   1.603  0.0981  0.0898 -0.0173
18295W        W36499   5.923   7.921   2.334  0.0527  0.1622 -0.2000
18296W        W36500  15.663  13.477   0.393 -0.0215 -0.1529  0.1684
18297W        W36501  13.852  11.255   4.328 -0.4036 -0.0524 -0.2776
18298W        W36502  15.406   6.663  12.433 -0.0507 -0.1230 -0.2623
18299W        W36503   2.132   4.717   3.152  0.2297  0.0692 -0.2514
18300W        W36504  13.365   4.200   4.325 -0.1604  0.3365  0.3537
18301W        W36505   9.982  13.688   5.084 -0.3088  0.0077  0.1651
18302W        W36506   5.541  10.079   2.963  0.0290  0.1876  0.2170
18303W        W36507   3.831  15.966  14.135 -0.2397  0.2381 -0.2139
18304W        W36508   2.912   1.534  16.843  0.1392  0.0119 -0.2416
18305W        W36509  13.483   0.732   0.349 -0.4421  0.0785  0.1198
18306W        W36510   2.900   4.025  16.602 -0.1691 -0.0051  0.0954
18307W        W36511   5.441   5.430   4.331 -0.0353  0.0389  0.0688
18308W        W36512   7.869   2.027  13.442 -0.1660 -0.0269 -0.1693
18309W        W36513   6.776   5.539  13.531  0.0347 -0.3041 -0.0972
18310W        W36514  15.685  17.261   5.146  0.2996 -0.2293 -0.1203
18311W        W36515   0.477  16.059  16.542 -0.1143  0.2432  0.2597
18312W        W36516  13.911   2.851   1.154  0.2506  0.0417 -0.0342
18313W        W36517  13.412   4.978  12.734  0.0520  0.2837  0.0890
18314W        W36518   5.767   3.647   2.881  0.2126 -0.1929  0.1169
18315W        W36519   1.352   4.400   1.771  0.0602  0.0729 -0.2939
18316W        W36520   5.173   8.717   3.391 -0.2264  0.0085  0.1477
18317W        W36521   1.348   8.489  14.528 -0.2458  0.0201 -0.2039
18318W        W36522  11.971  16.313   4.013 -0.2330  0.2974 -0.1840
18319W        W36523  12.342   0.318   0.728  0.2716 -0.0867 -0.0198
18320W        W36524   1.303  15.605  15.006  0.1257  0.1645  0.0472
18321W        W36525  10.941  12.335  14.072  0.0415  0.2136  0.1394
18322W        W36526   6.582   5.576   0.163 -0.3284 -0.0621 -0.0035
18323W        W36527  12.728   8.498   1.839  0.1684 -0.2260  0.0304
18324W        W36528  11.777  11.809  16.258 -0.1102 -0.1137 -0.0416
18325W        W36529   9.053  16.174  17.095 -0.1041 -0.1282 -0.1541
18326W        W36530  14.984  10.732   4.050  0.1743  0.1305  0.0865
18327W        W36531  12.279  14.313  13.202  0.0044 -0.0171 -0.2218
18328W        W36532  14.733   2.606  13.609  0.2422  0.1757  0.1890
18329W        W36533  15.963  10.740   0.245  0.1116  0.0665  0.1088
18330W        W36534  10.601  14.535  14.301 -0.3482  0.1697  0.0368
18331W        W36535  15.380  14.964   2.076  0.2527 -0.2738 -0.1701
18332W        W36536  14.431   9.624   0.858  0.1714  0.2854  0.1017
18333W        W36537  10.388   7.764   3.459  0.0384 -0.0723  0.1857
18334W        W36538   9.636   0.749  14.574 -0.4677  0.0078  0.0772
18335W        W36539   0.436   5.626  13.136 -0.0295 -0.1433  0.0534
18336W        W36540   9.164   9.486  12.535  0.0311 -0.1383 -0.0327
18337W        W36541   8.414   5.082  12.875 -0.0045  0.0767  0.2686
18338W        W36542   2.388   6.525   3.082  0.0224  0.0207 -0.0510
18339W        W36543   7.344  14.129   0.215 -0.0205 -0.0588  0.1869
18340W        W36544   9.397   5.598   0.761  0.1761 -0.2743 -0.2289
18341W        W36545   7.907  16.142   2.446  0.2542  0.1070 -0.1772
18342W        W36546  14.211   7.093  16.330  0.2152  0.0321 -0.0394
18343W        W36547  14.570   4.877   3.861  0.1292 -0.1448 -0.0963
18344W        W36548   5.805   8.151  11.949  0.1743 -0.2275 -0.2650
18345W        W36549   3.714  11.489  15.959  0.0414 -0.1134 -0.0800
18346W        W36550  14.713   2.511   0.175 -0.2319 -0.2462 -0.1432
18347W        W36551   8.094   4.175   3.655  0.0091  0.0877 -0.3346
18348W        W36552   2.866  16.367   2.780 -0.3553  0.0414  0.1374
18349W        W36553   2.526  15.085  16.532 -0.1942 -0.0143  0.4105
18350W        W36554   3.764  11.651   4.287  0.0563  0.0174 -0.1749
18351W        W36555  15.839   2.106  15.917 -0.2940  0.1291 -0.0782
18352W        W36556   4.291  12.000  13.161  0.2700  0.1831 -0.0142
18353W        W36557  13.547   1.580   0.673  0.0454 -0.2528 -0.1195
18354W        W36558   9.265   2.002   5.713  0.1112 -0.1171 -0.1314
18355W        W36559  13.795  14.043  15.233 -0.0240  0.2334  0.2631
18356W        W36560   6.091   4.185  12.139  0.1288 -0.0753 -0.2122
18357W        W36561  14.721   7.170  17.396  0.1230 -0.1135  0.1324
18358W        W36562  17.051   8.439  15.012 -0.1153 -0.1175  0.0231
18359W        W36563  16.473   5.984  13.002 -0.2324  0.2131 -0.1563
18360W        W36564   4.449  16.843   4.274  0.0245  0.1265 -0.2240
18361W        W36565  10.120   1.336   5.120  0.1479  0.0601 -0.1705
18362W        W36566  17.039   1.788   2.858  0.3254 -0.0011 -0.3382
18363W        W36567   4.630  15.415  15.667 -0.0328  0.2096  0.6313
18364W        W36568  16.570   0.363   2.721 -0.0268  0.1354 -0.1754
18365W        W36569  16.262   2.607   4.760 -0.2249  0.0410 -0.1396
18366W        W36570  10.519   0.856  13.318 -0.2328 -0.0152 -0.0184
18367W        W36571   7.369   2.209  17.462 -0.0272  0.1507  0.3639
18368W        W36572   4.889  14.326  13.997 -0.1357 -0.1647 -0.0555
18369W        W36573   9.545   1.145  13.740 -0.1622 -0.3042  0.2362
18370W        W36574  10.513   6.667   0.435 -0.2229  0.0851 -0.0459
18371W        W36575   0.127   9.711  13.069 -0.0715 -0.0268 -0.2285
18372W        W36576   1.335  11.238   5.221  0.1046  0.3788 -0.2531
18373W        W36577   2.796  17.123  14.743 -0.1238  0.2432 -0.1056
18374W        W36578  14.870   4.212   1.902  0.1076  0.1997  0.0524
18375W        W36579   0.178   8.690   5.273 -0.1264 -0.0404 -0.0548
18376W        W36580   7.399   6.855   1.292  0.0050 -0.0979 -0.2826
18377W        W36581   9.283   4.104   5.867 -0.0550 -0.0082  0.0067
18378W        W36582  15.476   0.869  16.384 -0.0419  0.1256 -0.0084
18379W        W36583   7.057  16.760   4.900 -0.2119  0.2136 -0.1907
18380W        W36584  10.807   6.274  12.710  0.0605 -0.4835 -0.1107
18381W        W36585  15.246  16.329  13.588  0.2373 -0.0090 -0.0216
18382W        W36586   1.070  13.685  12.443 -0.2766 -0.0324  0.0624
18383W        W36587  11.161   4.770   3.468  0.0216 -0.1415  0.0486
18384W        W36588   5.318  17.199  12.429 -0.1455 -0.0960  0.0597
18385W        W36589   6.936  10.325   2.556  0.1984  0.0531 -0.2385
18386W        W36590   8.228   2.644  16.494  0.0494 -0.1170  0.0971
18387W        W36591  10.663   7.690   0.009  0.0110  0.2516  0.2668
18388W        W36592  11.825   7.629   0.360 -0.1990  0.0486  0.1937
18389W        W36593  12.336   1.021   4.065 -0.0134  0.1715  0.2256
18390W        W36594   5.099  10.948   0.530  0.0240 -0.0543 -0.0574
18391W        W36595   6.477   0.565  13.425  0.2109  0.0621  0.0011
18392W        W36596   4.195   1.653   4.451  0.1260  0.2116  0.0997
18393W        W36597  14.429  14.278  14.427  0.1620 -0.1933  0.1463
18394W        W36598   4.320   0.445  17.364  0.1134  0.1085 -0.0068
18395W        W36599  12.662  17.159   3.531 -0.3910  0.0745 -0.1954
18396W        W36600  14.138   3.850  16.063 -0.1094  0.1843  0.1840
18397W        W36601   8.260   5.917  13.936 -0.2062  0.2646 -0.3388
18398W        W36602  13.618   2.719   4.581  0.5662  0.1910  0.0841
18399W        W36603   0.559   9.457   5.596  0.1342  0.2235 -0.0461
18400W        W36604   1.090  13.534  12.908 -0.2230 -0.1212  0.1366
18401W        W36605   7.500   9.176   0.610 -0.0081 -0.3609 -0.1409
18402W        W36606   6.448   9.477  14.619  0.1843 -0.1522 -0.0298
18403W        W36607   3.230  13.157  16.073 -0.0930  0.3775 -0.2535
18404W        W36608   0.481   7.601  12.827  0.1028  0.0701 -0.1112
18405W        W36609   0.650  12.200   1.822 -0.0243 -0.4872 -0.3721
18406W        W36610   3.784  11.912   3.491 -0.0942 -0.1035 -0.0798
18407W        W36611   3.334  13.694   4.474  0.1890 -0.0955  0.2506
18408W        W36612   5.817  16.901   3.208 -0.3723 -0.2437  0.2716
18409W        W36613  13.324   9.827   0.162  0.2985 -0.1535 -0.1787
18410W        W36614   4.042   3.920  13.535  0.4341 -0.0268 -0.0947
18411W        W36615  10.746  16.147  16.758 -0.0106 -0.2097  0.0033
18412W        W36616  10.996  14.469   5.244  0.0494 -0.0073  0.1818
18413W        W36617   3.660  11.027   4.231 -0.1618  0.1321  0.0390
18414W        W36618  14.605  15.331  12.771 -0.2585 -0.2280  0.2580
18415W        W36619  15.016   5.414   4.699  0.1808  0.0368  0.2782
18416W        W36620  13.439   5.423   1.723 -0.5117  0.1203 -0.0373
18417W        W36621   3.877   0.498   5.626  0.1410  0.0648  0.2885
18418W        W36622  10.054   1.583   4.199  0.0279  0.1862  0.1656
18419W        W36623   1.628   0.522   3.776 -0.2186  0.1811  0.1177
18420W        W36624  14.804  15.618  16.203  0.1719  0.1054 -0.0830
18421W        W36625   6.176  16.725   1.956  0.1339 -0.0597  0.0312
18422W        W36626   8.863   1.617   1.520 -0.0907 -0.0014  0.0192
18423W        W36627   8.563  14.760  12.383  0.0234 -0.1261  0.2089
18424W        W36628   9.105  14.849   2.334  0.4160 -0.0718  0.1181
18425W        W36629   0.023  15.772  17.266  0.2632  0.2311 -0.1465
18426W        W36630   8.403   4.833   4.845  0.0407  0.0922  0.0317
18427W        W36631   2.956   2.134  16.972 -0.0003  0.0509 -0.0640
18428W        W36632   3.137   1.059   1.747 -0.3262  0.0640  0.3174
18429W        W36633  11.997  11.782   0.115  0.1061  0.0392 -0.0501
18430W        W36634   5.848   2.266  16.191 -0.0947  0.1613  0.1832
18431W        W36635   2.791   3.646  11.164  0.1540  0.0239 -0.0488
18432W        W36636  12.903   5.032  15.460  0.0112  0.0374 -0.1653
18433W        W36637  11.587  16.024  16.490 -0.0343 -0.3970  0.1422
18434W        W36638   3.019   6.423   3.993  0.0041 -0.3885 -0.2269
18435W        W36639   7.657   6.780   5.308  0.0258  0.0037 -0.0570
18436W        W36640   6.751   4.076  16.605 -0.1659 -0.2490  0.0316
18437W        W36641   3.416   2.883  16.476 -0.1309  0.1502 -0.0593
18438W        W36642  12.295  11.162   4.308  0.1105  0.0625 -0.2672
18439W        W36643   0.717  12.776  13.198 -0.0353 -0.1340  0.0781
18440W        W36644  10.373  12.763  12.720 -0.1571  0.0537 -0.1353
18441W        W36645  13.513  14.488  14.539 -0.1772 -0.1112  0.1044
18442W        W36646  13.806  12.346   0.656 -0.1466  0.2822  0.2142
18443W        W36647   6.519   5.523   4.525  0.2532  0.1425  0.0365
18444W        W36648  13.337  12.005   0.294  0.3204  0.0240 -0.5669
18445W        W36649   6.786  14.725   4.606 -0.1207 -0.2398 -0.2074
18446W        W36650   6.238  17.252   4.799 -0.1043  0.0700  0.0475
18447W        W36651   1.751   7.742  15.669  0.0735  0.1660  0.0641
18448W        W36652   4.602   3.184   1.419 -0.0542 -0.0506  0.1413
18449W        W36653   3.989   1.201  13.721  0.0842 -0.1486  0.1408
18450W        W36654  10.565   0.230  14.085 -0.0687  0.1002  0.2672
18451W        W36655   9.451   1.378  15.206  0.1101 -0.0508  0.2699
18452W        W36656  11.640   4.756  14.599  0.1945 -0.3284 -0.1446
18453W        W36657  11.237  12.907   3.405  0.0521  0.0800  0.1008
18454W        W36658  14.505   9.397   5.221  0.0845 -0.0740  0.1046
18455W        W36659   3.997   1.527  16.239  0.1477  0.4611 -0.0763
18456W        W36660   4.845   2.156   2.629  0.0014  0.0141 -0.1676
18457W        W36661  15.863  13.141  12.836 -0.0076  0.1555 -0.1897
18458W        W36662  11.847   7.307   5.324  0.1181  0.1837  0.1255
18459W        W36663   2.850   5.836   4.901  0.1574 -0.1644  0.5506
18460W        W36664  13.402   1.123   3.245  0.0816 -0.4863 -0.3852
18461W        W36665   6.609  16.978  12.942 -0.1737  0.3480  0.1278
18462W        W36666  13.274  12.948   3.887 -0.2451 -0.0413  0.2662
18463W        W36667   0.997   9.988   0.299  0.0632 -0.3108  0.2469
18464W        W36668   5.033  10.033  14.060 -0.0745  0.1660 -0.1066
18465W        W36669  15.971  12.448  16.728 -0.1278  0.1090 -0.2810
18466W        W36670   7.510   2.539  15.565  0.2053  0.1364  0.1227
18467W        W36671  13.428  12.285   2.711  0.1267 -0.1546 -0.0422
18468W        W36672  14.391  11.742   4.665  0.2200 -0.0175  0.1372
18469W        W36673   3.081   6.592  15.378  0.0916 -0.0906  0.0505
18470W        W36674   4.535   5.510  11.742  0.0693  0.0411 -0.2804
18471W        W36675   2.512   6.139  14.367  0.0978 -0.2381 -0.1724
18472W        W36676  13.540  15.039   5.407 -0.1756 -0.0671 -0.2107
18473W        W36677  11.678   3.236   4.275 -0.3385 -0.2335 -0.2101
18474W        W36678  17.043   9.734   5.665  0.1322 -0.0682  0.1737
18475W        W36679   4.190   3.108   0.264 -0.0460  0.1465 -0.0185
18476W        W36680   4.439   7.023   4.987  0.1320  0.4041  0.0048
18477W        W36681   5.345   3.249  14.320 -0.1266  0.1022 -0.1709
18478W        W36682  13.802  14.629   0.202  0.0545 -0.0179  0.0343
18479W        W36683  14.949  14.164  15.397 -0.0096  0.2002  0.1198
18480W        W36684   4.880   6.250  13.950 -0.0082  0.0256  0.2009
18481W        W36685  16.311  16.444  15.620 -0.1682 -0.4603  0.0184
18482W        W36686   3.439   8.219   1.198  0.1001  0.0101 -0.0449
18483W        W36687  11.568   7.787   4.089  0.0376  0.0247 -0.1824
18484W        W36688   2.039  12.619  13.383 -0.1168 -0.2381 -0.0001
18485W        W36689  14.309  12.174   4.328  0.1112 -0.0800 -0.0146
18486W        W36690   4.866  15.210   1.023  0.0249  0.2535  0.0569
18487W        W36691   3.320  16.412   3.652  0.0479 -0.0353  0.0384
18488W        W36692   2.427   3.546  17.325  0.3709  0.1995 -0.0985
18489W        W36693   3.515  11.304   2.910 -0.0939  0.4237  0.0566
18490W        W36694  11.665  10.988  15.021 -0.2419  0.3751  0.0604
18491W        W36695   2.757   1.062  15.260 -0.0058 -0.1223  0.0240
18492W        W36696  13.048  15.793  14.132  0.0698  0.2188 -0.1043
18493W        W36697   8.357  11.700  13.961 -0.2078  0.1810  0.2178
18494W        W36698   2.995  12.151  13.754  0.1069  0.3547  0.1318
18495W        W36699   8.244  10.729  15.546 -0.1908  0.0894  0.0047
18496W        W36700   2.827  13.560   0.946 -0.0964  0.1013 -0.3466
18497W        W36701  13.625  12.613  17.226 -0.3034  0.0606 -0.1636
18498W        W36702   3.564  14.324   2.180 -0.2335 -0.0084  0.0904
18499W        W36703   1.261  13.002   3.681 -0.0439  0.0130  0.0007
18500W        W36704   0.452   2.612   1.159  0.1727 -0.2786  0.0277
18501W        W36705  15.758  11.092  16.090 -0.0922 -0.0270  0.3867
18502W        W36706   2.440   0.601  14.607 -0.1273  0.0708  0.4041
18503W        W36707   2.764  12.679   4.596  0.1576 -0.1190  0.0394
18504W        W36708   8.978  10.912  11.409  0.0594 -0.0679 -0.3564
18505W        W36709   0.405   4.674   3.670  0.2838  0.1853  0.4327
18506W        W36710   7.705  12.466  12.420  0.1406 -0.0920 -0.1120
18507W        W36711  12.489  14.814  16.168 -0.0572  0.2624 -0.1053
18508W        W36712   6.085  15.838  15.328 -0.1225 -0.0661 -0.0125
18509W        W36713   5.084  14.178   1.407  0.0662 -0.0076  0.2292
18510W        W36714  10.331   5.576  12.270  0.0439 -0.1736 -0.0031
18511W        W36715   5.872   6.865   2.100 -0.0643  0.2409 -0.0670
18512W        W36716   9.182  13.099   3.464  0.3816  0.1202  0.1604
18513W        W36717  12.682   4.014   5.029  0.2707 -0.2163  0.0631
18514W        W36718   6.193  10.473   1.520  0.1587 -0.0041  0.1057
18515W        W36719   1.806   1.106   0.467 -0.1596 -0.0301 -0.1601
18516W        W36720  15.343   2.520  16.551 -0.1423  0.0168 -0.2571
18517W        W36721   3.424   5.386  14.883  0.0790  0.2232  0.0017
18518W        W36722  13.718   0.427   5.065  0.0299  0.3160  0.0492
18519W        W36723   9.784  15.843   3.737 -0.1598  0.0050  0.4245
18520W        W36724   1.249  14.295  15.340 -0.0982 -0.0525  0.2885
18521W        W36725   7.266  10.085   1.365 -0.0000 -0.1600  0.1024
18522W        W36726   7.395   0.096  17.519  0.1819 -0.1607  0.0113
18523W        W36727   4.055   6.705  17.247  0.0460  0.2179  0.3122
18524W        W36728  12.816   7.158  14.917 -0.1939  0.0114  0.0383
18525W        W36729   2.135   8.236   3.183  0.1304 -0.0555 -0.1819
18526W        W36730  16.813   2.850   4.143 -0.2221 -0.3547 -0.1812
18527W        W36731  10.051   8.801   2.514 -0.0994 -0.1041 -0.0106
18528W        W36732   7.826  14.250   1.121 -0.3724 -0.0164  0.0552
18529W        W36733  13.673   7.690  13.978 -0.2506 -0.0105  0.1005
18530W        W36734   8.931   4.282  14.009  0.1695  0.2222 -0.1459
18531W        W36735   7.240  15.398   0.970 -0.1041 -0.1075 -0.1784
18532W        W36736   2.731  17.032   2.766  0.0632 -0.2176 -0.2944
18533W        W36737   2.704   1.459   2.757 -0.1906 -0.1211 -0.0868
18534W        W36738  16.659  14.912  17.342 -0.0669  0.0897  0.0454
18535W        W36739   1.687  16.078   5.032  0.0034 -0.1087  0.3395
18536W        W36740   4.157   6.151  12.164 -0.0544 -0.2965 -0.3261
18537W        W36741   2.244  10.586  14.705 -0.1498 -0.2059  0.0936
18538W        W36742  13.398   6.021  12.805 -0.2860  0.3565  0.2254
18539W        W36743   8.902   1.636   5.065  0.1003 -0.2360 -0.3104
18540W        W36744   3.827   8.113  13.300 -0.0476 -0.0226 -0.1565
18541W        W36745  10.543   7.181   6.806  0.1914  0.0290  0.2027
18542W        W36746   8.902   3.861  14.343 -0.1597 -0.1918  0.0870
18543W        W36747   4.397   0.168   1.615  0.0699 -0.1407  0.2537
18544W        W36748  14.673   6.021   2.398  0.1959  0.0102  0.1265
18545W        W36749  12.074   7.935   3.131  0.1847 -0.0905  0.2369
18546W        W36750  14.445  12.815  15.184 -0.1259  0.0427  0.2919
18547W        W36751  12.800  10.001  16.775 -0.2730  0.0216  0.1293
18548W        W36752  16.952  11.936  16.943 -0.0812 -0.1469  0.2254
18549W        W36753  13.176   2.941  12.887 -0.1807 -0.1523  0.0048
18550W        W36754   7.478  15.620  14.239  0.0091  0.0791  0.0158
18551W        W36755   6.739   7.433   1.960 -0.2477 -0.0447  0.0840
18552W        W36756  14.686   2.274  17.197 -0.0645  0.0760 -0.2935
18553W        W36757  16.613   6.957  12.279  0.2060  0.2526  0.1346
18554W        W36758   7.497   6.471   0.253  0.1415 -0.1795  0.1198
18555W        W36759   0.781  10.057  15.975 -0.0041 -0.1681 -0.2872
18556W        W36760  11.903  16.917   4.136 -0.0281 -0.1283 -0.2223
18557W        W36761   9.758   4.015   3.258 -0.0349 -0.0677 -0.0883
18558W        W36762  10.077  14.679  14.059  0.0061 -0.4226  0.2669
18559W        W36763  11.043   3.598   2.059 -0.3532  0.2346 -0.0029
18560W        W36764   1.705   3.996   2.340  0.1721  0.1470 -0.1200
18561W        W36765  11.567   0.024   2.124  0.2158  0.1113 -0.0410
18562W        W36766  10.842  15.653  17.520  0.0921  0.2885  0.0647
18563W        W36767   4.623   8.069   4.988 -0.1566  0.0257  0.2604
18564W        W36768  16.852  15.227  15.847  0.0621  0.0854  0.1326
18565W        W36769   8.564  11.286  14.163  0.0389 -0.1753 -0.0204
18566W        W36770   6.494  14.057   4.999  0.1437 -0.0423  0.0735
18567W        W36771  15.569  16.380  17.049  0.2453 -0.0027  0.0075
18568W        W36772   0.122  14.383  17.473 -0.0870  0.0408  0.0585
18569W        W36773   9.010  16.773   3.653  0.3240 -0.1080  0.0982
18570W        W36774  14.182  10.060  15.949  0.1629 -0.4297 -0.0369
18571W        W36775  13.506   1.083  16.997  0.2825  0.0145  0.0864
18572W        W36776   3.264  13.885   5.336 -0.1792  0.1101 -0.1618
18573W        W36777   5.221  17.268   5.087 -0.1674 -0.1478  0.0714
18574W        W36778   3.672  10.073  16.392 -0.1991  0.2262  0.1106
18575W        W36779   4.161  14.367   0.119  0.0354 -0.1019 -0.1623
18576W        W36780   4.725  15.490   4.731  0.0885 -0.0410 -0.0002
18577W        W36781   6.838   9.943   0.679  0.1170  0.2161 -0.2155
18578W        W36782  11.370   5.205  15.068  0.2200  0.1786  0.0308
18579W        W36783   5.862  11.076  16.340 -0.0245  0.1520 -0.0084
18580W        W36784  12.998  10.763   5.210  0.2291  0.1296 -0.1137
18581W        W36785   7.439  10.712  14.449  0.0336  0.2644 -0.1838
18582W        W36786   6.345  12.647   2.415 -0.1306 -0.1513 -0.2807
18583W        W36787   1.164  15.401   1.660 -0.3101 -0.1689 -0.2013
18584W        W36788   5.044   2.509   2.244 -0.1576  0.0444 -0.1958
18585W        W36789   9.634   5.022  13.259 -0.1154 -0.0064  0.3043
18586W        W36790   7.876   6.704  15.507 -0.2135 -0.2934 -0.1260
18587W        W36791   0.668  14.669   0.750 -0.0219 -0.1220 -0.1014
18588W        W36792   3.225  16.884  13.495  0.0190  0.1846 -0.0395
18589W        W36793  15.419   8.356   0.181  0.3747 -0.0641  0.3156
18590W        W36794   3.955   6.159  16.996 -0.0362 -0.0710  0.0041
18591W        W36795   1.420   9.334  13.299  0.1633  0.0191  0.1550
18592W        W36796   1.949  12.061   4.367 -0.0499  0.1199  0.1112
18593W        W36797   4.109   7.421  15.850 -0.0444 -0.0925  0.2440
18594W        W36798  11.958   2.047   2.048 -0.2344  0.0256 -0.3820
18595W        W36799   6.980   2.372   6.235  0.2550 -0.0861  0.0994
18596W        W36800   4.198   4.328  13.986  0.0337  0.0214  0.1210
18597W        W36801  13.158  10.941   3.222  0.1990  0.1867 -0.2274
18598W        W36802   2.202   8.259  12.248  0.3081  0.0008 -0.3452
18599W        W36803   0.640   3.141   1.946  0.0477  0.0539  0.2991
18600W        W36804  14.297   4.103  14.083  0.1550 -0.0483 -0.1782
18601W        W36805   2.104  11.882  16.891  0.0453 -0.0793  0.1482
18602W        W36806  11.627   7.851  17.490 -0.3267  0.2084  0.2117
18603W        W36807  12.024   1.170  12.254  0.1673 -0.0580 -0.1801
18604W        W36808   6.797  16.825   4.335 -0.0867  0.2822 -0.0638
18605W        W36809  10.408   6.551  16.935 -0.0842 -0.0316  0.1270
18606W        W36810  12.838  10.724  14.642 -0.0909 -0.1323  0.2583
18607W        W36811  14.314   5.362   5.586 -0.2045 -0.1875 -0.0781
18608W        W36812   6.809  14.624   0.632 -0.0069 -0.0272  0.0655
18609W        W36813  14.599   7.162  15.568 -0.1000 -0.0325  0.1022
18610W        W36814   9.756   8.180  16.473 -0.1589  0.1691 -0.3579
18611W        W36815   0.198   1.657  14.412  0.0247  0.0225  0.0911
18612W        W36816  14.473  12.657  17.097  0.2948  0.1594 -0.3238
18613W        W36817   7.066  13.160  12.139 -0.2924  0.3725 -0.1342
18614W        W36818   3.839   7.810   3.138  0.0456  0.0726 -0.2294
18615W        W36819   5.048   2.152  12.379  0.0650 -0.0737  0.0755
18616W        W36820  10.986   1.412  13.614 -0.1259  0.0683  0.3479
18617W        W36821   0.678   7.105  14.081 -0.1264 -0.3840  0.2245
18618W        W36822  10.228   2.240   0.936 -0.1101 -0.2959 -0.0910
18619W        W36823  15.323  14.660  16.992 -0.3375  0.2469 -0.0714
18620W        W36824  15.192  14.234   0.204 -0.5725 -0.1289  0.1061
18621W        W36825  11.735  10.709   2.171  0.0223 -0.1971  0.1981
18622W        W36826   7.902   6.863   4.509 -0.3087 -0.0258  0.6011
18623W        W36827  15.762  16.343   4.778 -0.0992  0.0790  0.1604
18624W        W36828   6.947  15.510  14.280 -0.1478 -0.1457 -0.0651
18625W        W36829   9.919   5.418   0.175  0.1396  0.1685  0.0451
18626W        W36830   4.343   1.736   1.843 -0.2711 -0.4651 -0.1904
18627W        W36831   2.667  13.463  13.442 -0.1251  0.2844 -0.0746
18628W        W36832   8.253   3.068   5.645  0.0825 -0.3043 -0.0992
18629W        W36833  15.036   8.684   3.362 -0.0474  0.0016 -0.0074
18630W        W36834   3.262   4.681  15.755 -0.0175  0.4474  0.0833
18631W        W36835  17.058   4.284  14.426  0.1901 -0.2232 -0.1920
18632W        W36836  13.568  15.457  16.509 -0.0636  0.0104 -0.1872
18633W        W36837  13.905  11.818   3.947 -0.1163  0.2067 -0.1019
18634W        W36838   6.731  12.822   3.494  0.0577  0.1046 -0.1254
18635W        W36839   7.641   9.786   1.279  0.1138  0.0163 -0.0466
18636W        W36840  10.823  17.138   4.446 -0.0647  0.1465 -0.0046
18637W        W36841  14.996   9.245   3.080 -0.0291  0.0472  0.1119
18638W        W36842   8.189   8.654  13.118  0.0778 -0.1809 -0.2930
18639W        W36843  12.414   7.088  16.954  0.0803 -0.3400 -0.0681
18640W        W36844   7.352   6.013  12.978 -0.2494  0.0578 -0.2253
18641W        W36845  16.746   7.349  15.147  0.1082  0.1188  0.2498
18642W        W36846   1.149  13.059  13.203  0.0617 -0.1791 -0.1315
18643W        W36847  12.206  10.819  15.424 -0.2876 -0.0071 -0.2927
18644W        W36848   6.238  15.696   2.779 -0.0609 -0.1300  0.1223
18645W        W36849   5.311  14.060   2.595 -0.1953  0.4170  0.0741
18646W        W36850  14.209  11.261  16.890 -0.0833  0.0174 -0.1105
18647W        W36851  16.123   9.561   3.187  0.2538 -0.1190 -0.0749
18648W        W36852  16.695  12.079   4.725  0.1505 -0.0006  0.1486
18649W        W36853   1.473  15.918  14.511  0.1838 -0.1768  0.0380
18650W        W36854   8.535  12.869  12.346 -0.1277 -0.3393  0.2860
18651W        W36855   2.963  12.142   2.241 -0.2883  0.0686 -0.0659
18652W        W36856  12.752   6.307  17.158  0.2192  0.1440  0.0423
18653W        W36857   9.065   7.369  16.725 -0.2322  0.1320  0.3324
18654W        W36858  17.095  10.580  15.245 -0.5390  0.1174 -0.1485
18655W        W36859  13.035  16.704  14.533  0.2152  0.0104 -0.2630
18656W        W36860  10.799   7.680   2.480 -0.1802  0.0236  0.2496
18657W        W36861   5.512   2.962   4.383  0.2415  0.1709 -0.0428
18658W        W36862   2.034   2.011   3.186 -0.0687  0.3857 -0.0875
18659W        W36863  12.149   5.569   5.291  0.2482  0.3258  0.0177
18660W        W36864   9.921   9.780   3.830  0.1608  0.0718  0.0386
18661W        W36865   8.073   9.502   1.142 -0.1977 -0.1308 -0.0952
18662W        W36866   0.203  16.688   2.816  0.2492 -0.0379 -0.0339
18663W        W36867  16.388  16.628   5.379  0.1689 -0.0161  0.0767
18664W        W36868   6.476   5.437   5.047 -0.0315  0.4310  0.1711
18665W        W36869   3.511   8.068  14.221 -0.2798  0.0617  0.1999
18666W        W36870   3.101   6.363  16.933 -0.1384 -0.3358 -0.2072
18667W        W36871   4.373   2.024  13.015  0.0865  0.0019  0.0526
18668W        W36872   5.260   9.912  16.869 -0.1752  0.2155 -0.1293
18669W        W36873  13.426  16.184  14.040 -0.0821  0.1243  0.1787
18670W        W36874   7.803   0.063  13.310 -0.0363 -0.0047  0.1329
18671W        W36875   6.134   0.684  16.546  0.0245 -0.0740 -0.0334
18672W        W36876  16.828   2.287   3.997 -0.0543  0.2056 -0.3476
18673W        W36877   4.158  13.269   3.484  0.0172  0.2789  0.1947
18674W        W36878  14.601  12.929   1.160  0.1057 -0.0311 -0.0741
18675W        W36879   1.248  12.242   3.394 -0.1595  0.1783 -0.2221
18676W        W36880   0.900  13.778  14.703 -0.2020 -0.1436 -0.1780
18677W        W36881  17.015   4.675  15.359  0.0912  0.1286 -0.4035
18678W        W36882   6.940   1.360   0.153 -0.0458 -0.0307  0.0930
18679W        W36883  11.935  14.341  12.312 -0.1209  0.3717 -0.0960
18680W        W36884   3.416  17.003   4.397 -0.1304 -0.4872 -0.0831
18681W        W36885  14.950   4.524  12.013  0.2494 -0.2184 -0.0594
18682W        W36886   7.657   6.981  16.057 -0.2172 -0.0299 -0.1364
18683W        W36887   8.615   0.270   0.851 -0.1020  0.0401 -0.0311
18684W        W36888   0.878   2.884   5.095 -0.0106  0.0139  0.0488
18685W        W36889   7.034  10.108   0.063 -0.1093  0.0711  0.2089
18686W        W36890   1.763  11.852  14.232  0.0988 -0.1677  0.2009
18687W        W36891   8.305  15.103  14.047  0.1762 -0.0014  0.1574
18688W        W36892   4.523  12.705  15.519  0.1900  0.2873 -0.0954
18689W        W36893   8.375   1.692   0.989 -0.1374 -0.1820 -0.0500
18690W        W36894   1.005   7.946  13.907  0.0390 -0.0638 -0.0601
18691W        W36895   1.745  10.038  12.648 -0.0363  0.0651  0.1708
18692W        W36896  12.197   2.480  13.251 -0.3098 -0.0145 -0.0316
18693W        W36897  11.475  11.180  12.766 -0.1916  0.0499  0.2791
18694W        W36898   9.568  13.156   4.253 -0.1000  0.1736 -0.0797
18695W        W36899   4.729  16.495   0.895  0.0059  0.3179 -0.0315
18696W        W36900  15.828   0.583   1.334  0.0028 -0.1744  0.1315
18697W        W36901  12.407   8.949   0.667  0.0582 -0.1851  0.2039
18698W        W36902  17.283   4.099  13.408 -0.1837 -0.0950  0.0262
18699W        W36903  16.705   5.142  16.060 -0.2172  0.0279 -0.4490
18700W        W36904  14.820  14.913  13.086  0.1287 -0.2270 -0.0515
18701W        W36905   0.769   2.139   1.148  0.0619 -0.3363  0.0814
18702W        W36906   2.489   1.182   6.340  0.0138  0.1931 -0.2874
18703W        W36907   9.084   7.835   1.538 -0.3176  0.1490 -0.2554
18704W        W36908  13.839   6.449   1.683  0.2707 -0.3321  0.1149
18705W        W36909  12.864  15.724  14.724 -0.2639  0.1329 -0.1078
18706W        W36910   3.266  13.573   2.459  0.2887  0.2781 -0.0381
18707W        W36911   4.417   0.125  16.032 -0.0752 -0.1617  0.2423
18708W        W36912  16.848  12.881   0.212 -0.0481  0.1287 -0.0566
18709W        W36913   2.843   4.782  17.493 -0.1134  0.1091 -0.2857
18710W        W36914   2.986  14.458  15.277 -0.0286  0.1350  0.0999
18711W        W36915   0.939   0.074  16.819 -0.0510 -0.3153 -0.0481
18712W        W36916  13.614   1.270  13.182  0.0207 -0.2226  0.0409
18713W        W36917  11.827   4.004  17.516 -0.2231  0.3297  0.0271
18714W        W36918  16.527  12.469   0.200 -0.1701  0.0179 -0.1497
18715W        W36919   9.097   2.097   0.657 -0.2176 -0.2632 -0.1472
18716W        W36920   3.069   6.271  15.982 -0.0545 -0.0831 -0.3491
18717W        W36921   4.956  14.546  14.971  0.0715  0.2283  0.0189
18718W        W36922   2.556  14.873  13.178 -0.1657 -0.0686 -0.2972
18719W        W36923  14.522  13.913   2.115  0.2059  0.0371  0.0192
18720W        W36924  11.154   9.416  17.077  0.2291  0.1798  0.0225
18721W        W36925   0.396  11.725   3.800 -0.2348  0.1239 -0.0516
18722W        W36926   8.452   2.443   4.920 -0.0421  0.1849 -0.1433
18723W        W36927  16.765   7.508   1.731  0.0321 -0.1206 -0.1089
18724W        W36928   9.561   7.400  15.782 -0.0707 -0.1909  0.0155
18725W        W36929   5.237   5.836  16.207  0.0683 -0.0509  0.1957
18726W        W36930   0.178   6.158   1.843  0.1668 -0.1688 -0.0398
18727W        W36931   7.672   2.794   1.483 -0.1237 -0.1569 -0.0125
18728W        W36932   5.811   0.838   5.175  0.2859 -0.0469 -0.0361
18729W        W36933   9.320  12.388  15.370 -0.1400  0.0218 -0.2740
18730W        W36934  14.239  12.820  13.250 -0.1153 -0.3521  0.2301
18731W        W36935  16.844  13.315  13.393  0.2059 -0.0533  0.0854
18732W        W36936  16.820   7.457   2.796  0.1986 -0.2272 -0.0765
18733W        W36937   1.814   9.229  15.856  0.0718 -0.0363 -0.1030
18734W        W36938   9.041  16.466  15.614 -0.1709 -0.2137  0.1166
18735W        W36939  11.347  16.422  13.222  0.3275 -0.1104  0.1945
18736W        W36940   0.373  14.911   3.940 -0.2219 -0.0351 -0.1326
18737W        W36941   6.449   1.504   4.203 -0.2583  0.0770 -0.2184
18738W        W36942  11.808   9.906   1.221 -0.0439 -0.0175  0.2158
18739W        W36943   4.181  17.223  17.456  0.2399  0.1566 -0.0419
18740W        W36944   7.242  12.736  15.260  0.1597 -0.0032  0.1562
18741W        W36945   4.873   8.276  16.956  0.3124  0.7430  0.0625
18742W        W36946  11.953   8.154   2.090 -0.0568 -0.0419 -0.1077
18743W        W36947   9.827   7.445   1.998 -0.2224  0.1455 -0.1241
18744W        W36948   4.411   7.517   0.461 -0.4837 -0.2923  0.2335
18745W        W36949   4.163  11.146   3.625 -0.2266  0.0965  0.1157
18746W        W36950   6.329   6.493  14.669  0.1230 -0.0948  0.0905
18747W        W36951  16.539  15.991   4.795 -0.0954  0.0103  0.1045
18748W        W36952   9.208   1.002  15.527  0.2350 -0.1514 -0.2905
18749W        W36953  11.003   3.235  15.080 -0.0717  0.2012 -0.1531
18750W        W36954   1.363  12.753  14.514  0.0455 -0.0828  0.0886
18751W        W36955   7.678  13.553  13.310  0.0854 -0.3056  0.0727
18752W        W36956  10.129   8.074   5.546  0.1477 -0.1452 -0.0747
18753W        W36957   6.139  12.844   5.119 -0.3568  0.1455 -0.0233
18754W        W36958   0.036   2.003  16.325  0.2640  0.2529 -0.0176
18755W        W36959   2.851  14.731  14.604 -0.0297  0.0028 -0.1891
18756W        W36960   7.463   1.441  13.169  0.3429  0.3962 -0.0193
18757W        W36961   1.775  16.251  15.633 -0.2751 -0.0494 -0.0354
18758W        W36962   3.568   7.199   0.649 -0.1590  0.2428  0.1058
18759W        W36963   3.225  15.976  15.350  0.1057 -0.1739  0.2427
18760W        W36964   6.653   6.502   4.952 -0.0730  0.2786  0.0414
18761W        W36965  13.480   1.838   1.471 -0.0687 -0.2209 -0.0607
18762W        W36966   1.045  11.159   4.323  0.6222 -0.1062 -0.0004
18763W        W36967  15.474  13.143  16.590  0.1929 -0.0304  0.0662
18764W        W36968  15.482  10.977   2.964 -0.1594 -0.4436  0.0893
18765W        W36969   9.798   7.654  12.044  0.0642 -0.1636  0.2820
18766W        W36970   1.109  15.138  15.933 -0.3249  0.1273 -0.0447
18767W        W36971   3.439  11.982   1.514  0.2981 -0.0069 -0.0501
18768W        W36972   8.532   6.539   2.937 -0.0695 -0.0335  0.2919
18769W        W36973  10.963  11.270  16.718 -0.0265 -0.0001  0.3522
18770W        W36974   7.642   0.219  15.437 -0.1596 -0.0674 -0.0988
18771W        W36975  15.968   8.306  16.547  0.3498  0.1196  0.3150
18772W        W36976  11.124  16.221   4.907  0.2639 -0.2038 -0.0510
18773W        W36977   2.608  15.932  16.980 -0.0263 -0.0109  0.5114
18774W        W36978   9.404   9.662  11.720 -0.0149  0.0515 -0.1944
18775W        W36979   7.430  10.253  12.604  0.0666  0.0185  0.1164
18776W        W36980   2.043   6.864   1.986 -0.0725  0.2422  0.0536
18777W        W36981   6.504  11.648  15.128  0.0101  0.0141  0.1165
18778W        W36982  10.784   7.464  16.631 -0.2067  0.1179 -0.4859
18779W        W36983   0.954   9.500  16.834 -0.2311 -0.0681 -0.1499
18780W        W36984   4.443  12.591  12.487  0.2219 -0.1589 -0.1053
18781W        W36985   9.122   9.366   3.208 -0.1793 -0.1018 -0.1257
18782W        W36986   7.059   5.021  15.403  0.1191  0.0114 -0.2074
18783W        W36987   3.696   4.925   3.433  0.0693 -0.1229 -0.0146
18784W        W36988  12.794   0.834  17.394  0.1727  0.0136  0.0805
18785W        W36989  14.954   7.692   1.274  0.2612  0.1277  0.0908
18786W        W36990  16.023   6.074   3.055  0.2470  0.0554  0.2344
18787W        W36991   6.140  15.442  14.765 -0.0072  0.1185  0.0569
18788W        W36992   1.123  14.889  15.147 -0.0892 -0.0982  0.1995
18789W        W36993  13.071  13.138   0.186 -0.0759  0.1813 -0.0612
18790W        W36994   6.257   9.895  11.130 -0.3625  0.0658 -0.0258
18791W        W36995  12.077  15.248   3.326 -0.0418  0.1521  0.1014
18792W        W36996   9.166  13.588  16.726  0.1939 -0.1076 -0.0499
18793W        W36997   9.862   3.020  12.073  0.1882 -0.3826  0.3121
18794W        W36998  13.153  14.777   4.758 -0.2488  0.0564 -0.0558
18795W        W36999   7.377   5.312  14.601 -0.1028  0.0418 -0.3004
18796W        W37000  13.518   4.621  14.375  0.2103 -0.1411 -0.2115
18797W        W37001  13.615  10.308   2.675  0.0046 -0.1407  0.0788
18798W        W37002  12.785  15.717   4.462  0.2220  0.0792  0.0010
18799W        W37003   0.868   2.720  16.812  0.1335  0.1684  0.0942
18800W        W37004  15.140   3.900  15.423  0.0431  0.0784  0.3324
18801W        W37005  10.365  13.738   1.159 -0.0302 -0.1560  0.2326
18802W        W37006   1.594   0.004   3.552  0.0524  0.1259 -0.0622
18803W        W37007   5.989   6.395  14.114  0.0208  0.0198 -0.0227
18804W        W37008   5.967  16.354  16.705  0.0551  0.0721  0.0383
18805W        W37009   5.378   1.257   3.548 -0.2466 -0.0762  0.2409
18806W        W37010   8.749   0.798  12.418 -0.1433  0.0136 -0.2127
18807W        W37011  12.509  16.250   0.452  0.0513  0.1410  0.2206
18808W        W37012  13.722  12.370   0.140  0.1223  0.0699  0.1810
18809W        W37013  14.693   4.779   3.354 -0.1253  0.1687 -0.0778
18810W        W37014   1.528   4.577  14.490  0.3029 -0.1872 -0.0100
18811W        W37015  14.911  14.506  16.211 -0.0464 -0.0398 -0.0263
18812W        W37016   5.258   4.449   2.904  0.2146  0.1486 -0.0372
18813W        W37017   9.818  14.865  16.243  0.1684 -0.1439  0.2676
18814W        W37018  15.278   3.020   0.341  0.0068  0.1521 -0.3291
18815W        W37019   1.369  15.950   4.691 -0.0779  0.3466 -0.0485
18816W        W37020   9.668  15.962  13.552 -0.2877  0.1419 -0.4532
18817W        W37021   2.142   6.141   2.599  0.0437  0.0521  0.2612
18818W        W37022   1.638   8.918   0.805 -0.0267 -0.1752  0.1373
18819W        W37023   2.074   9.534  16.183  0.3119  0.0310 -0.0979
18820W        W37024   3.583   8.294   2.478 -0.0051  0.1245  0.0762
18821W        W37025   9.354  16.244   4.785 -0.0490  0.0899 -0.3260
18822W        W37026   9.503  11.447   2.158 -0.0878  0.3497  0.1479
18823W        W37027   7.894   7.014   4.054  0.2604  0.1437  0.4743
18824W        W37028  16.755  16.390   6.221 -0.1259  0.0727  0.1663
18825W        W37029   5.937  11.489  12.971 -0.0365 -0.1768 -0.1704
18826W        W37030  11.639   3.254   0.428 -0.0776 -0.0001  0.0462
18827W        W37031  12.806  10.687   0.566 -0.1923 -0.1858 -0.0616
18828W        W37032   0.746   1.690   3.229  0.0763 -0.1559 -0.0697
18829W        W37033   0.521   4.530   3.188 -0.1486  0.0536  0.1383
18830W        W37034   2.500   8.460  15.695 -0.0271 -0.1544  0.3610
18831W        W37035  17.212   2.446  16.981 -0.3082 -0.0328 -0.2342
18832W        W37036   4.199   0.121  11.199 -0.0181  0.0355 -0.0891
18833W        W37037   6.504  15.624  16.669 -0.0913  0.1324 -0.2016
18834W        W37038   8.639  15.485  14.025  0.0089 -0.1017 -0.0887
18835W        W37039  10.557   0.087  16.420  0.2184  0.0204 -0.1477
18836W        W37040   5.171   2.230  13.943 -0.2782  0.0027  0.0365
18837W        W37041   1.913  14.310   1.024  0.1818 -0.3619  0.0121
18838W        W37042   3.300   7.615  13.976  0.0890  0.0839 -0.1995
18839W        W37043   3.569   9.762   5.319 -0.0889 -0.0034  0.0587
18840W        W37044  11.211  16.688   5.308  0.2267  0.3376 -0.2639
18841W        W37045   8.230  14.475  12.195  0.2419 -0.0049  0.0749
18842W        W37046   8.088  13.201   2.622  0.0493  0.1465  0.0095
18843W        W37047  12.014  14.407  16.436 -0.0827 -0.0083 -0.2558
18844W        W37048  13.170  15.006  17.485  0.0359 -0.0128 -0.0194
18845W        W37049   5.372  11.475   3.263 -0.1580 -0.3008  0.1808
18846W        W37050   4.431   5.932  17.293 -0.1147 -0.0841 -0.1043
18847W        W37051   4.812   8.897   1.551  0.1022  0.1278 -0.0423
18848W        W37052   2.154  13.802   5.429  0.1328  0.1809 -0.1063
18849W        W37053   9.971  10.229  12.925 -0.0677 -0.2227 -0.1200
18850W        W37054   4.061  12.706  15.150 -0.1603 -0.2674 -0.0456
18851W        W37055   3.015   6.782  13.507  0.0383  0.1199  0.3685
18852W        W37056   0.734   1.491   0.550  0.0562  0.0065 -0.2623
18853W        W37057  10.259   6.498   2.167  0.0904  0.3168  0.0889
18854W        W37058   3.836   6.690   1.484 -0.3936 -0.2886 -0.1895
18855W        W37059   8.808   8.054   1.982 -0.0439  0.0529  0.0492
18856W        W37060   9.287   4.519  14.318  0.3408 -0.1829 -0.1361
18857W        W37061  12.163   4.932  12.324  0.0221  0.2970  0.1765
18858W        W37062   3.791  12.385   1.629 -0.1190 -0.0969  0.0755
18859W        W37063   7.575   2.422   3.983 -0.2923  0.1454 -0.1016
18860W        W37064   3.544   9.500  14.438  0.1779  0.1319 -0.0769
18861W        W37065   6.029  17.244   2.752  0.3613 -0.0423  0.0510
18862W        W37066   5.063   0.166  13.942  0.1544 -0.2500 -0.0975
18863W        W37067   4.870   8.162   2.350  0.0673 -0.1971 -0.1635
18864W        W37068   8.112  10.118  14.227  0.2356 -0.2885 -0.0373
18865W        W37069   6.451   7.964   4.498 -0.1037 -0.1493 -0.3034
18866W        W37070   9.949  13.361   4.539 -0.1605 -0.0309  0.0642
18867W        W37071  14.224   0.881  15.513 -0.1968 -0.1729 -0.2877
18868W        W37072  12.716  12.083  11.125 -0.0684 -0.1982 -0.2479
18869W        W37073  11.062  14.059  12.324 -0.2840 -0.1684  0.2546
18870W        W37074   1.391   2.569  14.312 -0.0797  0.1498 -0.3030
18871W        W37075  14.877   3.861  12.703 -0.1204  0.0915  0.1582
18872W        W37076   5.037   3.789  14.953 -0.2666  0.1416 -0.0607
18873W        W37077  12.759   7.800  14.436 -0.0623 -0.1504  0.1471
18874W        W37078   4.610   1.007   5.285 -0.2733 -0.3355  0.0244
18875W        W37079   1.716  13.563   2.487 -0.0152 -0.1721  0.0781
18876W        W37080  13.076   7.052  13.127 -0.0467 -0.1737  0.0710
18877W        W37081  13.217  12.542  16.936  0.1840 -0.1460  0.0938
18878W        W37082   2.857   6.139   5.281  0.2530 -0.2237  0.2021
18879W        W37083   3.093   1.814  16.511  0.1949  0.1062  0.0572
18880W        W37084   9.065  11.438   4.530  0.1984 -0.3032 -0.2501
18881W        W37085  13.235  13.468   4.029  0.1891  0.1246  0.1026
18882W        W37086  14.400  17.333   3.431  0.1075  0.2240 -0.0810
18883W        W37087  12.736   9.847   3.750 -0.0750  0.3137  0.0264
18884W        W37088   0.205   3.545   4.351 -0.4358  0.0327 -0.1628
18885W        W37089   2.126  10.670   0.073 -0.0312  0.0283 -0.1081
18886W        W37090   3.797  15.395   5.331  0.3015  0.0412  0.1164
18887W        W37091   1.039   3.246  13.584  0.1233  0.1315  0.1082
18888W        W37092   6.319  12.716   1.530  0.0930  0.2428  0.0788
18889W        W37093   3.582  12.712  15.196  0.0420  0.3443 -0.1623
18890W        W37094  12.378  13.936  13.543 -0.2368  0.0866  0.3792
18891W        W37095  11.094  16.741  13.530 -0.1640 -0.5792 -0.0017
18892W        W37096  10.327  16.501  16.693 -0.0347 -0.1689 -0.1550
18893W        W37097   9.638  16.135  12.899  0.0270  0.0365 -0.3567
18894W        W37098   5.672  16.044   3.954 -0.0475  0.2801 -0.0377
18895W        W37099   4.568   8.346   2.670  0.2399  0.2241 -0.0793
18896W        W37100   9.457  14.868   4.349 -0.2092 -0.0205  0.1656
18897W        W37101   7.797  12.954   2.352 -0.0138 -0.2088  0.0178
18898W        W37102   1.471   1.633  17.516  0.1562 -0.0419 -0.0416
18899W        W37103   6.340   8.239   3.129 -0.1862 -0.2496  0.0627
18900W        W37104   4.432  12.102   2.657  0.2000 -0.0118  0.2524
18901W        W37105  13.054   0.884  13.185  0.0886 -0.0836 -0.2222
18902W        W37106   4.992  15.789  15.736 -0.1245 -0.2839  0.0580
18903W        W37107   2.365   0.950  16.988  0.1625  0.2710 -0.1455
18904W        W37108   5.656   5.120  12.826  0.2327 -0.0453 -0.1989
18905W        W37109  12.016   6.862   1.326 -0.3179 -0.0259  0.0186
18906W        W37110  15.046  13.401  16.669 -0.0020 -0.0286 -0.2486
18907W        W37111  16.842   7.490  12.287  0.0478  0.3348  0.0356
18908W        W37112   4.884   8.759  12.601 -0.2350 -0.1558 -0.4536
18909W        W37113  17.232   1.639   4.388  0.0735 -0.2297  0.2271
18910W        W37114   0.080   0.297  13.935  0.0162 -0.0143 -0.0032
18911W        W37115   0.470   7.070  13.044  0.1345  0.0799  0.1286
18912W        W37116   0.053  11.671  12.303 -0.2312 -0.3789  0.2440
18913W        W37117  14.641  10.630   1.045 -0.0673 -0.3387 -0.1810
18914W        W37118   8.111  11.239  15.161 -0.0037 -0.0928 -0.1160
18915W        W37119   3.846   6.003   1.875 -0.3106  0.1253 -0.1338
18916W        W37120  11.902   2.352   4.148  0.0754 -0.1304 -0.1091
18917W        W37121   9.533  16.244   3.936  0.2328 -0.0388 -0.1543
18918W        W37122   6.716   9.691   0.261 -0.0938 -0.2232  0.1176
18919W        W37123   0.373  15.892   2.359 -0.2702 -0.0551 -0.0183
18920W        W37124  16.962  15.726   0.634  0.0740 -0.1466  0.4832
18921W        W37125  14.129  10.103   1.090 -0.0716 -0.1422  0.0899
18922W        W37126  11.012  15.497   4.346 -0.1619 -0.1150  0.0561
18923W        W37127   6.624   4.110   3.053  0.2083 -0.0315 -0.1381
18924W        W37128  12.667   2.073  12.590  0.1310 -0.4776  0.0539
18925W        W37129   0.069  16.223  14.831  0.1349  0.0327 -0.2573
18926W        W37130  16.749   1.533  14.729  0.0266 -0.0677  0.5151
18927W        W37131  16.399  16.836  15.920 -0.0720 -0.1646  0.2050
18928W        W37132   1.685   5.295  16.956 -0.0255  0.2143  0.1514
18929W        W37133   4.756  17.273   5.195  0.1773 -0.2594  0.0087
18930W        W37134   9.153  17.205  13.943 -0.0945  0.1917  0.0892
18931W        W37135  13.649   6.143   2.117 -0.0900 -0.2218  0.3229
18932W        W37136   6.146   6.206   3.281  0.0218  0.2599  0.1102
18933W        W37137  15.443   2.883   5.322 -0.3166 -0.1189  0.0482
18934W        W37138   8.375   5.934   1.389  0.0270  0.2498 -0.0618
18935W        W37139  15.017  11.930   3.638 -0.0844 -0.1077  0.0252
18936W        W37140   3.328  10.639  15.249  0.0492  0.0078  0.0408
18937W        W37141   8.953  14.891  16.404  0.0981 -0.3895  0.1639
18938W        W37142  15.863   1.813  17.268  0.4091  0.0494  0.0133
18939W        W37143   7.672  12.824  16.267  0.0548  0.0007 -0.0623
18940W        W37144  15.724  11.445  17.314 -0.0288 -0.0331  0.0373
18941W        W37145  16.311   3.377   0.621  0.0934  0.3282 -0.0565
18942W        W37146   2.325  14.074   3.998  0.1472 -0.0295  0.1020
18943W        W37147   3.781   3.320   1.339 -0.1122  0.2257  0.1672
18944W        W37148   1.387  15.864   4.119  0.1782 -0.0602 -0.2052
18945W        W37149  12.290   1.907   1.294  0.1579  0.1291  0.3743
18946W        W37150  15.978   3.461   0.236  0.0166  0.2474 -0.2234
18947W        W37151  16.221   6.533  13.053 -0.3392 -0.2073  0.1542
18948W        W37152  14.267  16.258   4.339  0.1525  0.0430  0.1121
18949W        W37153   2.143  11.765   2.304  0.3829 -0.1100  0.0681
18950W        W37154   6.665  11.388   0.834 -0.2139  0.0234 -0.1398
18951W        W37155   8.823   4.177  13.081  0.1201  0.0999 -0.2905
18952W        W37156   5.782  15.830  12.515 -0.0890  0.0152  0.1357
18953W        W37157  17.308   7.598   4.743  0.1719  0.1078  0.0817
18954W        W37158   8.970  12.187  15.092 -0.2805 -0.1407  0.0033
18955W        W37159   9.158   5.949   3.087  0.1181  0.0100 -0.1054
18956W        W37160   0.693  14.195   5.418 -0.0358  0.1155 -0.1286
18957W        W37161   9.269   9.229  13.656  0.2259 -0.2694 -0.0668
18958W        W37162   6.016   8.450   1.362 -0.0542 -0.0067  0.0203
18959W        W37163   7.157  13.719  15.121 -0.0608  0.0877  0.0709
18960W        W37164   8.096  10.562   1.085  0.0493 -0.1538  0.1244
18961W        W37165   9.669   6.022  16.781  0.1196  0.0656 -0.1354
18962W        W37166   9.807   0.315   0.311  0.1879 -0.2172 -0.0629
18963W        W37167  17.165   8.768  12.741  0.0398  0.0177 -0.0727
18964W        W37168   7.176   8.052   2.747 -0.0289 -0.0680 -0.0388
18965W        W37169   5.381   7.954  13.360 -0.3027 -0.0378 -0.0755
18966W        W37170   5.721   9.664  13.690  0.2530 -0.1851 -0.0226
18967W        W37171  16.490   5.863  17.468 -0.1589  0.0179  0.0099
18968W        W37172   2.796   2.875   1.865  0.0229  0.2994 -0.0050
18969W        W37173   7.211   2.406  12.972  0.1506  0.2226  0.0667
18970W        W37174  13.915  15.401  11.357 -0.2130 -0.2255  0.3689
18971W        W37175   3.491   6.933   1.948 -0.3842  0.0535 -0.1809
18972W        W37176   4.807   5.801   2.163  0.2888 -0.0213 -0.0152
18973W        W37177   7.436   1.557   1.286 -0.0732  0.1727 -0.2704
18974W        W37178  12.915   0.987   2.957  0.1873 -0.0750 -0.1041
18975W        W37179   2.589  17.288  13.533 -0.0126 -0.0877 -0.0065
18976W        W37180   0.899   6.133   2.395  0.2720  0.3020 -0.1083
18977W        W37181   4.978  13.895   2.240 -0.0860 -0.1855 -0.1598
18978W        W37182  15.731   4.341   3.094  0.1224  0.2422  0.2903
18979W        W37183   2.537   2.052   1.426  0.1901  0.2223 -0.0173
18980W        W37184   1.208   5.900   4.888 -0.1862  0.1935 -0.2092
18981W        W37185  14.385  13.950   2.637  0.2920 -0.1974 -0.2227
18982W        W37186  10.483   7.572   3.980 -0.3660  0.2132  0.1835
18983W        W37187   4.121  10.630  13.360  0.0209  0.1650 -0.1532
18984W        W37188  14.485   1.127  16.775  0.1279  0.0050 -0.1077
18985W        W37189   7.545   3.370  17.169 -0.0486  0.1268  0.2508
18986W        W37190   8.646   1.519   3.258  0.4598 -0.1291  0.2122
18987W        W37191  12.030   4.706   7.018 -0.2247  0.0584  0.0615
18988W        W37192   1.371  12.870   1.807  0.2386 -0.1527 -0.1932
18989W        W37193  10.542  15.575   4.519  0.0903  0.1083 -0.0671
18990W        W37194   1.629  13.683   1.524 -0.0520  0.2142  0.0361
18991W        W37195   7.422  14.947   3.375 -0.1389 -0.1391  0.0167
18992W        W37196  11.175   0.437   4.526 -0.2222  0.0190  0.0019
18993W        W37197   7.119  15.968   4.261 -0.0228 -0.2061  0.0154
18994W        W37198  15.183   5.532   1.307 -0.2007  0.0616 -0.0184
18995W        W37199   8.025   7.835  14.994 -0.2058 -0.0728 -0.2445
18996W        W37200  12.085   8.597  15.684  0.0646  0.1854  0.0946
18997W        W37201   8.584   0.512   1.654 -0.0625 -0.1295  0.2100
18998W        W37202  17.207  15.566   4.372  0.0996  0.1501 -0.0415
18999W        W37203  13.001   4.521  17.407 -0.0648  0.0259  0.0342
19000W        W37204   0.398   8.929   1.335  0.1319 -0.0817 -0.2844
19001W        W37205  15.134  14.732   4.811 -0.1228  0.1084 -0.0685
19002W        W37206   1.235   5.357  16.464 -0.0438 -0.1607  0.0724
19003W        W37207  15.270  13.369   0.061 -0.0676  0.0307 -0.0457
19004W        W37208  14.739  14.052   4.441 -0.0360  0.1574  0.0806
19005W        W37209   4.000   3.899   2.581  0.0101 -0.2125 -0.1349
19006W        W37210  11.002   3.996   0.357  0.1244 -0.0453 -0.1793
19007W        W37211   7.896   5.669   4.779  0.1388 -0.0122 -0.0533
19008W        W37212   1.781   5.819   0.111 -0.0323  0.1240 -0.0473
19009W        W37213  14.581   3.806   3.805 -0.1511 -0.0462 -0.2096
19010W        W37214   8.032   0.076   2.263 -0.2852  0.1896 -0.0910
19011W        W37215   0.575  16.126   0.838 -0.2177  0.0848 -0.0607
19012W        W37216   4.152   8.588   3.178  0.2205 -0.2638 -0.0666
19013W        W37217   8.525  11.879   1.576  0.3151  0.2038  0.0896
19014W        W37218   2.643  13.756  13.986  0.0767  0.0401 -0.1428
19015W        W37219   1.553  10.966   0.505  0.0873  0.1021  0.0500
19016W        W37220   0.323  15.108   2.117 -0.1906 -0.0961 -0.3127
19017W        W37221  12.938  13.540   5.459  0.0179 -0.3790 -0.1086
19018W        W37222  12.578  11.308  16.395 -0.0017 -0.0245 -0.2859
19019W        W37223   5.097   5.868  17.494  0.0301 -0.0488 -0.0042
19020W        W37224   5.757  13.829   2.641  0.2229  0.1935  0.1244
19021W        W37225   5.192   9.952  14.791 -0.0827 -0.1042  0.0696
19022W        W37226  12.827   5.146   3.684 -0.1912  0.0268 -0.0972
19023W        W37227   4.917   6.839   0.814  0.3524 -0.0898 -0.0569
19024W        W37228  13.415  12.333   2.185  0.3020  0.1419  0.3069
19025W        W37229  14.981  14.554  15.059  0.1821 -0.1981  0.4181
19026W        W37230   5.261   3.658  15.838  0.3531 -0.0231 -0.1099
19027W        W37231   5.594   4.312  12.135  0.1241  0.1368  0.0120
19028W        W37232  12.884   9.004   1.144 -0.1180 -0.1401  0.1578
19029W        W37233   7.019   9.514  13.949 -0.3491 -0.3149  0.1958
19030W        W37234   7.719   1.571   4.313  0.2582  0.0237  0.0359
19031W        W37235   0.714   6.272   2.829 -0.0764  0.0364  0.0685
19032W        W37236  11.617  10.102  13.595  0.2217 -0.2297  0.0629
19033W        W37237   5.559  16.989   3.700  0.0186 -0.3172 -0.0130
19034W        W37238  14.774   1.615  12.343  0.0106 -0.1220  0.3335
19035W        W37239   4.260   5.964   1.458 -0.0744  0.1875  0.1535
19036W        W37240   8.587  17.204  14.173 -0.1087  0.1555  0.0732
19037W        W37241  16.091  17.300  16.004  0.0013 -0.1520  0.0310
19038W        W37242  14.759  12.432  13.937  0.2209  0.1218 -0.1393
19039W        W37243   7.174   8.520   2.931  0.4058 -0.0336 -0.1622
19040W        W37244  15.520   2.909   4.306  0.2116 -0.2703  0.0247
19041W        W37245  14.949   4.785   2.051  0.2169 -0.2339  0.2649
19042W        W37246  16.160   1.423  15.336  0.1723  0.3129 -0.0127
19043W        W37247   9.119  15.593  12.370 -0.0660  0.1341  0.1040
19044W        W37248   8.581   5.105   2.529  0.2088 -0.3657  0.1452
19045W        W37249   0.497  11.406  14.336 -0.0396  0.1060  0.2997
19046W        W37250   0.568   1.379  13.789 -0.1042  0.3922 -0.2262
19047W        W37251   4.168   7.270   3.378  0.0811  0.0024  0.0494
19048W        W37252  10.515  16.990  14.010  0.0749  0.1766 -0.0168
19049W        W37253   3.623   5.290  12.200  0.2371  0.0550 -0.0039
19050W        W37254  11.258   3.199   0.139  0.2095 -0.0079  0.0496
19051W        W37255  11.817  14.319   3.387 -0.2191 -0.0370 -0.1026
19052W        W37256   8.194   2.417  13.450  0.2125 -0.1136 -0.2587
19053W        W37257  12.811   5.018   0.995 -0.1217 -0.0384 -0.0281
19054W        W37258  11.491  13.108  12.656 -0.0280 -0.0995 -0.3608
19055W        W37259   7.313   9.967  13.107 -0.2427 -0.0144  0.2406
19056W        W37260  14.012   5.586  16.682  0.1901 -0.2653 -0.2227
19057W        W37261  13.557   8.679   1.335  0.1166  0.0153 -0.0116
19058W        W37262  12.399   7.645   4.127 -0.0807 -0.0630 -0.2451
19059W        W37263   6.485  16.817  13.454  0.2698  0.2579  0.2807
19060W        W37264   8.070   2.964   5.102  0.2940 -0.1629  0.1701
19061W        W37265   7.224  15.019  15.546 -0.1790 -0.0540 -0.0629
19062W        W37266  14.174   6.306   4.884 -0.2714 -0.0048 -0.0241
19063W        W37267   5.221   6.452  16.879 -0.1530 -0.0266 -0.2509
19064W        W37268   6.451   7.732   3.145 -0.1125  0.1981 -0.0980
19065W        W37269  11.513  14.310  17.282 -0.0533  0.1643 -0.1809
19066W        W37270  12.670   0.670  14.169  0.3766  0.3756 -0.0620
19067W        W37271  10.551   9.813   5.146  0.3160  0.1385 -0.0423
19068W        W37272   1.757   8.444  13.674  0.0553  0.1061 -0.1275
19069W        W37273   1.682  17.017   2.730 -0.3148  0.1898  0.0811
19070W        W37274   5.374   6.629  16.047 -0.0594 -0.2044  0.3349
19071W        W37275   6.732   1.113  12.835 -0.1353  0.2824  0.0806
19072W        W37276  17.074   7.892  15.075  0.0004  0.0803  0.0247
19073W        W37277  10.914  11.838  12.529 -0.2752  0.1693  0.0385
19074W        W37278   6.448  11.296   3.311 -0.0466  0.2422 -0.1044
19075W        W37279   0.043   5.223   0.726 -0.3463 -0.0366  0.0728
19076W        W37280   0.259   6.322  12.018  0.1800  0.3163 -0.0830
19077W        W37281  10.000   5.237  13.519 -0.0959  0.2985  0.1073
19078W        W37282   5.430  14.975   0.468  0.0172 -0.1279 -0.1588
19079W        W37283  10.534   3.713   0.296 -0.2183 -0.0620  0.2953
19080W        W37284  12.727   5.922   1.961 -0.0711  0.1578  0.0351
19081W        W37285  12.111  16.055  16.214  0.1179  0.1521  0.3719
19082W        W37286   1.469   7.688  14.552 -0.1966  0.2350  0.2765
19083W        W37287   0.229  12.598   4.317  0.0508  0.2397  0.0771
19084W        W37288   6.478  15.894  13.551 -0.3937 -0.0649  0.1893
19085W        W37289  12.335  12.162  15.112  0.2734 -0.3975  0.0835
19086W        W37290  14.374   8.564   2.120 -0.0359  0.1514  0.1649
19087W        W37291   4.953   6.817   5.145 -0.1237 -0.0176 -0.0280
19088W        W37292   0.661   2.735  17.277 -0.1322 -0.1709 -0.2925
19089W        W37293  12.477   5.949  14.301 -0.3596  0.0673 -0.1402
19090W        W37294   7.454   5.728  12.360  0.2851 -0.0736  0.0099
19091W        W37295   2.684   5.241   1.539  0.0191 -0.1580 -0.0504
19092W        W37296   9.932   1.317   0.043 -0.0069  0.3180  0.2926
19093W        W37297   2.047   9.134   1.077 -0.2088 -0.3452 -0.0952
19094W        W37298   8.384   8.247  11.054 -0.0899  0.1101  0.3417
19095W        W37299  11.359  12.405   4.783 -0.2066  0.1515  0.0922
19096W        W37300   5.369  11.684   1.347 -0.4070 -0.0187 -0.0504
19097W        W37301   1.692  16.683  17.359  0.0838 -0.1009 -0.2308
19098W        W37302   0.914   4.096  12.947 -0.3676 -0.0589  0.1761
19099W        W37303   6.985   7.966  13.855  0.0617 -0.1312  0.0924
19100W        W37304   1.316  10.444  13.523  0.0634 -0.2278  0.1214
19101W        W37305   4.270   0.175   5.680  0.1780 -0.1538  0.0530
19102W        W37306  11.098   8.640  14.379  0.2252 -0.0969  0.0102
19103W        W37307   5.603   5.956  16.615  0.1930  0.0576  0.3138
19104W        W37308   9.873   9.313  16.544  0.1056  0.0778  0.0446
19105W        W37309  10.003   5.193  14.045  0.0876  0.1597  0.0664
19106W        W37310  15.488   8.970  16.829  0.0422 -0.0417  0.0800
19107W        W37311  15.173   9.421  14.506  0.3326  0.1510  0.1227
19108W        W37312   8.300   6.063   3.128 -0.2238  0.2376  0.0553
19109W        W37313  11.696   1.739  14.064  0.0551 -0.2031  0.1966
19110W        W37314   7.875   5.099   1.255  0.0485  0.4374 -0.0686
19111W        W37315  11.938   1.484  16.669 -0.0005 -0.1573 -0.0064
19112W        W37316   7.463   6.059  14.136  0.3964  0.1374 -0.0684
19113W        W37317  13.202  14.906   3.862 -0.3244  0.0862  0.2207
19114W        W37318   7.001  14.378   1.028 -0.3290 -0.3221 -0.1731
19115W        W37319  14.958  10.610  16.261  0.1664 -0.0009 -0.0132
19116W        W37320   3.724  11.107  14.592  0.1298  0.0276  0.0409
19117W        W37321  14.052  17.272  14.343 -0.1569 -0.1666  0.2674
19118W        W37322  12.528   8.827  15.573  0.0597  0.0975  0.1780
19119W        W37323   3.832   1.674   3.610  0.4461  0.3079 -0.0301
19120W        W37324   3.685   0.422   5.161 -0.0376  0.3094 -0.1548
19121W        W37325   3.502   2.045   0.882 -0.0017  0.0712 -0.0895
19122W        W37326   1.758   6.022  14.868 -0.0839 -0.2655 -0.1631
19123W        W37327   0.362   0.305   1.813  0.0614 -0.1348  0.0736
19124W        W37328   7.452   5.167  14.144 -0.1298 -0.1756 -0.6463
19125W        W37329   7.006   3.314  14.043 -0.2278  0.1338  0.2050
19126W        W37330   9.491  16.321  15.394  0.5052  0.1593 -0.0281
19127W        W37331  13.784  15.220  12.545  0.1314  0.0551  0.0449
19128W        W37332   7.877   8.952   1.791  0.1393  0.0670  0.0186
19129W        W37333  11.870   5.630   1.852  0.2146  0.0051 -0.0939
19130W        W37334   3.061   5.281  14.439  0.1785 -0.2570  0.1806
19131W        W37335   5.247  11.319   0.799  0.1714 -0.2592 -0.1377
19132W        W37336   1.346  12.994   2.888  0.0048  0.3394 -0.0358
19133W        W37337   8.356  16.096   5.049 -0.2198  0.2040 -0.0488
19134W        W37338   9.618   4.678  17.224  0.1250  0.1659 -0.0775
19135W        W37339   1.048  13.900  15.566 -0.0864  0.1117  0.1443
19136W        W37340   7.818   7.970  13.719  0.0163  0.0548 -0.1107
19137W        W37341   7.450  17.075   4.732  0.3083 -0.1274 -0.1893
19138W        W37342   5.999   0.642   0.036  0.1282 -0.3175  0.2334
19139W        W37343   7.330   4.758  14.953  0.3146  0.4347 -0.1201
19140W        W37344  13.514   2.674   2.488 -0.1235  0.0115  0.3629
19141W        W37345   0.674   5.931  13.991 -0.1297  0.1354  0.0228
19142W        W37346   8.823  14.719   3.619 -0.0905  0.1000 -0.1685
19143W        W37347   5.121  12.747   4.270 -0.0932 -0.1031 -0.0700
19144W        W37348  11.071   6.741  14.342  0.0176  0.0742 -0.0598
19145W        W37349  13.051   6.757   6.069 -0.1358 -0.5501  0.2865
19146W        W37350   8.223  16.010   2.843  0.1335  0.0603  0.2395
19147W        W37351  15.257  10.027   5.365  0.0998 -0.0706 -0.0247
19148W        W37352  15.403   3.909   1.879  0.1527  0.1010 -0.2385
19149W        W37353   2.199   5.157   4.941  0.4324  0.5250  0.3814
19150W        W37354   7.305   7.234  13.479 -0.1027 -0.1583  0.0863
19151W        W37355   7.724  11.912  16.160 -0.1276 -0.0513  0.1205
19152W        W37356  14.451  11.219   2.929  0.0813  0.4124  0.1347
19153W        W37357  15.253   9.590   2.728 -0.0916  0.1948 -0.0607
19154W        W37358  14.092  14.062  15.680 -0.0224  0.0257  0.2152
19155W        W37359   6.870   9.429   3.337 -0.0494 -0.1011 -0.1261
19156W        W37360  13.293  13.703  16.493  0.0185  0.2323  0.0153
19157W        W37361   9.397   7.830  15.522  0.5046 -0.1810  0.1469
19158W        W37362  12.809   5.325   3.180 -0.0562  0.1334 -0.1651
19159W        W37363  11.494   2.417  14.751  0.1170 -0.2815 -0.2894
19160W        W37364  13.672  11.850   0.711 -0.0099 -0.0126 -0.0560
19161W        W37365   8.851  13.671   3.965 -0.0395 -0.2043  0.1778
19162W        W37366   3.246   8.981  13.270 -0.1560  0.0804 -0.2830
19163W        W37367  11.276  10.190   3.331  0.1927 -0.2509 -0.1080
19164W        W37368  13.147   6.032   4.358  0.1234 -0.0726  0.2428
19165W        W37369  16.946   9.037  14.540  0.0351 -0.4403  0.0355
19166W        W37370  10.128  14.485  12.130 -0.0659  0.3413  0.0228
19167W        W37371  13.202  13.877   5.166  0.0442 -0.1574  0.0732
19168W        W37372  15.858  12.755   3.856 -0.2982  0.1329  0.0369
19169W        W37373  12.664   4.470   5.643 -0.1093 -0.3720  0.0183
19170W        W37374   0.763   1.205   4.281 -0.0713  0.0553  0.0088
19171W        W37375  12.442  15.827   0.765  0.1307 -0.0972  0.0039
19172W        W37376  14.264   6.101   0.521  0.0008  0.2019 -0.0933
19173W        W37377  15.381  10.440   3.046  0.1708  0.0149 -0.4286
19174W        W37378   1.295   7.105   4.571  0.0531  0.2193 -0.0252
19175W        W37379   7.030   4.508  13.749 -0.0320 -0.4966  0.2207
19176W        W37380  10.240   1.658   0.168  0.0052 -0.1813  0.0034
19177W        W37381  12.602   0.862   1.649 -0.0525 -0.0447 -0.1159
19178W        W37382  14.390   5.817   4.897 -0.4058 -0.0101  0.0508
19179W        W37383  14.929  10.327  13.936  0.0982 -0.0510  0.1471
19180W        W37384  15.786  14.472  12.984 -0.0570 -0.0261  0.3756
19181W        W37385   5.204   8.793  14.044 -0.0505 -0.1388 -0.3605
19182W        W37386  12.007  10.439  13.702 -0.2108  0.0230  0.2023
19183W        W37387  13.221  11.588  13.221  0.2972 -0.0474 -0.0730
19184W        W37388   7.408  16.341  12.601  0.0454 -0.0092 -0.0904
19185W        W37389   6.641   5.142   0.697  0.0807  0.2725 -0.1387
19186W        W37390  12.257   7.279   4.531 -0.3151 -0.0454  0.3210
19187W        W37391   2.047  15.578   1.758  0.1938 -0.0620 -0.1765
19188W        W37392  12.858  13.354  12.686 -0.1127 -0.2703 -0.3328
19189W        W37393   3.817  14.811   4.566  0.0278  0.2453 -0.1314
19190W        W37394  16.581   5.820  15.080 -0.1611  0.0943  0.1727
19191W        W37395   6.719   4.946  17.068  0.0008 -0.0186  0.0365
19192W        W37396   2.755   0.217   1.039 -0.2199  0.0296  0.1692
19193W        W37397   2.317   0.075   2.820 -0.4233 -0.1307  0.0042
19194W        W37398   9.176   7.272   4.115 -0.2387  0.0237 -0.0506
19195W        W37399  14.805   0.574  12.736 -0.1833  0.0979  0.1620
19196W        W37400  11.862  14.623   0.834 -0.0579 -0.0529  0.2961
19197W        W37401  13.260  10.973  12.186  0.1335 -0.1352  0.2056
19198W        W37402  12.057  16.639  14.432  0.0297 -0.1597 -0.2948
19199W        W37403   4.519   9.512  17.103  0.0795 -0.0508 -0.0042
19200W        W37404  16.766  11.494  15.209 -0.1697  0.1283 -0.0712
19201W        W37405   5.940   8.066  12.920  0.4164 -0.1310 -0.0952
19202W        W37406   1.077   8.869   3.081  0.0007 -0.0625 -0.2132
19203W        W37407  14.992   6.840   0.702 -0.1990  0.0698  0.3077
19204W        W37408   2.622   9.746   1.252 -0.1605 -0.1589 -0.2046
19205W        W37409  12.428   5.974   5.503 -0.0648  0.1084  0.0223
19206W        W37410  15.056   5.822  15.452  0.0761  0.1868 -0.0385
19207W        W37411  15.155  13.445   3.508 -0.0603  0.2913  0.0654
19208W        W37412  15.182   9.613   4.823 -0.0277  0.1251 -0.0522
19209W        W37413   4.273   9.742  15.765  0.0311 -0.2679  0.1095
19210W        W37414   2.223   6.590  17.227  0.1470 -0.2439  0.0830
19211W        W37415   6.190  14.520  15.810  0.1444  0.2323 -0.3256
19212W        W37416   6.468   4.959  15.240  0.4273  0.0902 -0.0533
19213W        W37417  16.526   7.963   4.133 -0.2411 -0.1166  0.0753
19214W        W37418  15.589  16.565   0.939 -0.1407 -0.0796  0.1098
19215W        W37419   8.127   3.994  13.612 -0.2782  0.2584  0.0187
19216W        W37420  11.971   8.836  13.001  0.0463  0.1800 -0.0133
19217W        W37421   6.765  10.330   3.455 -0.1229  0.0670  0.0662
19218W        W37422  13.155   4.918  13.618 -0.0538 -0.0226  0.0742
19219W        W37423  10.454  14.813  16.757 -0.0620 -0.0631 -0.0101
19220W        W37424   7.037   9.980   1.833 -0.5146  0.0802  0.0381
19221W        W37425  15.373   5.549   3.870  0.0655 -0.1979  0.1192
19222W        W37426   8.948  10.774   4.236  0.0280 -0.0655  0.2572
19223W        W37427   7.930  16.119   1.889  0.1097  0.2028  0.0546
19224W        W37428  10.282  14.300   3.853 -0.0615 -0.0388 -0.0851
19225W        W37429   5.977  12.921  13.320  0.0076  0.0827  0.3699
19226W        W37430   9.996  12.769   1.540 -0.1308 -0.1102 -0.1423
19227W        W37431   9.342   3.473   1.952 -0.2424  0.1882  0.2659
19228W        W37432   4.416  16.241  16.564 -0.1924 -0.0214  0.2231
19229W        W37433   8.108   7.150  15.932  0.0532  0.0794 -0.0207
19230W        W37434   1.975  14.682   2.530 -0.0703  0.0561 -0.0428
19231W        W37435  10.695   6.436   4.484  0.1256 -0.0880 -0.1205
19232W        W37436  13.196  16.347  14.899  0.0606  0.0651 -0.2103
19233W        W37437  14.610  10.110  16.175  0.2165 -0.0745 -0.0908
19234W        W37438   0.278  14.768   3.422 -0.0161  0.0345  0.1372
19235W        W37439   1.244   7.995   0.932 -0.1979 -0.0972  0.1150
19236W        W37440   9.147   5.840  14.285 -0.1093  0.2077  0.1722
19237W        W37441  14.692   3.312   2.761  0.0744 -0.1646 -0.1239
19238W        W37442   6.604  16.634   6.460  0.1214 -0.1168  0.2636
19239W        W37443  13.709  10.464  14.421 -0.1804  0.2720  0.0314
19240W        W37444   8.059   3.751   4.597 -0.1151  0.4411  0.2774
19241W        W37445   7.579   1.511   0.717  0.0756  0.3444 -0.0812
19242W        W37446   6.861   9.154  16.999  0.0630  0.1273  0.1712
19243W        W37447   3.419   5.906   1.614  0.4462  0.0880  0.0267
19244W        W37448   7.459   3.834   2.822  0.1277  0.4995  0.0307
19245W        W37449  16.306   5.541   4.441  0.0016 -0.0784 -0.1477
19246W        W37450   4.966   6.337  15.195  0.0971 -0.0696 -0.3410
19247W        W37451  11.099  15.009   2.397 -0.0918  0.3115  0.1545
19248W        W37452   6.330   0.912  15.634 -0.0922  0.3302  0.1808
19249W        W37453  11.807   1.436   1.289 -0.0535 -0.2345 -0.0166
19250W        W37454   7.600   0.235  12.449 -0.0027 -0.0672 -0.1893
19251W        W37455   9.970  11.149   4.577 -0.4316 -0.0818  0.2508
19252W        W37456   1.207  14.260   5.141  0.1035 -0.2232  0.1822
19253W        W37457   2.063   2.507   0.551  0.1245 -0.1197  0.1255
19254W        W37458  14.945  10.332  14.461  0.0614 -0.2137  0.2568
19255W        W37459  12.934   9.387  12.970  0.2687 -0.0087 -0.0069
19256W        W37460  11.398   0.969  16.246  0.0787 -0.2944  0.0602
19257W        W37461   6.581  10.296  13.329 -0.2406  0.1483  0.2243
19258W        W37462   4.029   9.654  14.484  0.0481  0.2076 -0.0977
19259W        W37463   4.199  14.509   3.724 -0.1682  0.1822 -0.1777
19260W        W37464   9.950  10.382   1.837 -0.1371 -0.0318  0.1495
19261W        W37465  10.149   8.885   1.571 -0.4529  0.1806  0.2745
19262W        W37466  11.850   8.496  14.699 -0.1912 -0.1412  0.1602
19263W        W37467  17.300   5.853   4.220  0.0330  0.0945  0.1311
19264W        W37468  12.744   1.572  16.262 -0.2212 -0.0591  0.3450
19265W        W37469  17.051   9.362   3.775  0.3068  0.0565 -0.2721
19266W        W37470  16.807  15.720  13.384 -0.0818  0.1241  0.1464
19267W        W37471  15.569   3.847   0.447 -0.4657  0.0009  0.0647
19268W        W37472  17.214  15.306   0.757 -0.2087 -0.0899  0.0803
19269W        W37473  17.000   1.435   0.845  0.0572 -0.1489  0.2702
19270W        W37474  10.250  15.154   4.654 -0.0616  0.2211 -0.3697
19271W        W37475   5.318  12.961   4.701 -0.2023  0.1685 -0.0771
19272W        W37476  15.965   5.672   1.817 -0.0522 -0.1590  0.2123
19273W        W37477   6.636   0.497   1.826  0.0483  0.0373 -0.1833
19274W        W37478   9.870   9.231  15.703 -0.0870 -0.1317  0.0095
19275W        W37479   6.785   5.399   1.432 -0.0903 -0.0283 -0.5056
19276W        W37480   3.730  12.925   3.476 -0.1722 -0.1578  0.1173
19277W        W37481  11.518  14.177   0.781  0.0445 -0.0601 -0.2746
19278W        W37482  12.031   5.078   4.237  0.5582 -0.1239 -0.1934
19279W        W37483  14.581  15.821   1.751 -0.2594  0.0995  0.0278
19280W        W37484   4.702  14.458   4.794 -0.2209  0.2064  0.1283
19281W        W37485  10.696  11.616   0.209 -0.1965 -0.1727 -0.1605
19282W        W37486  11.231   3.539  12.123 -0.3110  0.0703  0.0576
19283W        W37487  16.734   7.882  13.093  0.0017  0.2794  0.1097
19284W        W37488   5.012  10.742  15.113  0.0988 -0.1526 -0.0739
19285W        W37489  14.483   5.504  16.498  0.0006  0.2533 -0.2923
19286W        W37490  16.501  16.750  14.551 -0.2441  0.0005  0.1951
19287W        W37491  13.704   3.324   2.770 -0.0839  0.1011 -0.2257
19288W        W37492   2.731  10.620  14.829  0.0226 -0.1530 -0.1295
19289W        W37493   0.578   2.488   5.188  0.0680 -0.0673 -0.2580
19290W        W37494  11.536   6.125   5.782  0.1974 -0.0151  0.2945
19291W        W37495   1.774   5.529  14.868 -0.1096  0.0371 -0.2432
19292W        W37496   7.308   4.042  16.583  0.1538  0.0919  0.0147
19293W        W37497   9.615   8.679   0.124  0.1110  0.1017  0.0008
19294W        W37498   4.190   1.172  11.964 -0.1258  0.0243 -0.0414
19295W        W37499   6.288   1.691  15.031  0.2631 -0.2340 -0.0816
19296W        W37500   7.383  10.585  14.934 -0.0102 -0.0660  0.0993
19297W        W37501  15.224   0.223  16.181 -0.1581 -0.1238 -0.1134
19298W        W37502   0.603   2.390   0.753 -0.2076  0.3821 -0.0101
19299W        W37503  11.368  11.050  16.552  0.0059  0.0733  0.1877
19300W        W37504   1.555   5.682   5.249 -0.3425 -0.2318  0.1830
19301W        W37505   6.193  10.348   0.174 -0.4228 -0.2216 -0.0422
19302W        W37506   6.281  11.009   2.342 -0.3336  0.2825  0.1757
19303W        W37507  14.142   4.103   3.871  0.0923  0.1189 -0.3229
19304W        W37508  13.455  17.049  16.114 -0.0012  0.3993 -0.2074
19305W        W37509  12.872   6.146  15.108  0.0134  0.4747  0.1519
19306W        W37510   6.355   6.837   0.868  0.0117 -0.1217 -0.1560
19307W        W37511   2.900  13.208  14.149 -0.0707 -0.0788 -0.1495
19308W        W37512   2.685  14.258  16.881  0.2282  0.1945 -0.0267
19309W        W37513  14.883   5.834   5.015  0.1200 -0.1335 -0.0304
19310W        W37514   5.418   6.957   3.789  0.0404 -0.3995 -0.1833
19311W        W37515  13.803  10.300  13.935 -0.2669  0.2547  0.2295
19312W        W37516  16.411   4.947  14.885  0.0243  0.1499 -0.3637
19313W        W37517  11.801  15.678  16.152  0.1434 -0.0359 -0.1817
19314W        W37518   7.213   7.998   3.507  0.0038  0.1275 -0.0284
19315W        W37519  10.997   3.929  16.091  0.1181 -0.3325  0.0946
19316W        W37520   6.660  11.869   5.188 -0.2485  0.0186 -0.1640
19317W        W37521  13.656  15.444   1.161 -0.0997 -0.0183  0.1040
19318W        W37522   4.507   9.335   2.492  0.0744 -0.1606  0.1061
19319W        W37523   9.036  13.895   1.071 -0.0898  0.0202 -0.0184
19320W        W37524   5.130  16.974  17.081  0.1833 -0.0799 -0.1269
19321W        W37525   7.987   5.859  16.727  0.0893  0.3309  0.1906
19322W        W37526   5.482   9.957   0.881  0.2163  0.1151  0.1139
19323W        W37527  15.578   1.747  16.260  0.0976 -0.1622 -0.0539
19324W        W37528   6.461  12.966   0.726 -0.0446 -0.1081 -0.4335
19325W        W37529  14.686  13.640  13.614 -0.0703  0.2495 -0.1264
19326W        W37530   5.733  16.711   6.228 -0.1627  0.0928  0.0118
19327W        W37531  16.784  13.319   2.790  0.1425  0.1500  0.0492
19328W        W37532   9.732  14.906   2.695 -0.2323  0.0519 -0.0358
19329W        W37533  14.257  14.981   3.011 -0.2046 -0.0364 -0.1367
19330W        W37534   0.194  15.640   4.778  0.0361 -0.1028  0.1247
19331W        W37535  15.774   6.327  15.470  0.1397  0.3424 -0.1853
19332W        W37536   7.017   0.584   3.354 -0.1029 -0.2650  0.2548
19333W        W37537  15.251   6.052  13.956  0.1281 -0.3506  0.0256
19334W        W37538   7.838   2.715  13.573 -0.1751 -0.0891  0.2843
19335W        W37539   6.643  14.563   5.132  0.0028  0.0195 -0.1124
19336W        W37540   1.633   8.907   3.327 -0.0823  0.0009  0.2662
19337W        W37541   9.424  10.872  12.558 -0.1088  0.2300  0.1371
19338W        W37542   6.724   1.632  16.343 -0.2545 -0.0298 -0.2268
19339W        W37543   9.850  11.431  13.719 -0.3918 -0.0491 -0.0638
19340W        W37544   6.110  12.387  13.412 -0.2050  0.2757 -0.1516
19341W        W37545   7.955   6.075   1.154  0.2293 -0.1993 -0.0496
19342W        W37546   6.867   7.163   1.557 -0.1721  0.2778 -0.1871
19343W        W37547  11.020  12.877  12.839 -0.2559 -0.1147 -0.1875
19344W        W37548  11.855  10.318   0.930  0.0582 -0.0830  0.1434
19345W        W37549   0.604  14.978  15.264 -0.3297  0.1435  0.1240
19346W        W37550   7.575  14.934   5.117  0.1016  0.0879  0.3447
19347W        W37551  16.753   6.444  12.933  0.1156 -0.1001 -0.2454
19348W        W37552   4.300  14.478  14.482  0.1981 -0.3452 -0.0341
19349W        W37553   0.351  14.805  12.655 -0.1940 -0.3890 -0.2888
19350W        W37554  15.690   5.987   0.838 -0.0195 -0.1390  0.2527
19351W        W37555  16.760  12.238  14.357  0.0738  0.0974  0.0316
19352W        W37556   3.681   9.433   1.809 -0.0555  0.3082  0.2660
19353W        W37557  16.517  16.906   4.951 -0.0806  0.3472  0.2408
19354W        W37558  17.202  15.596   5.165 -0.2338 -0.3657  0.0906
19355W        W37559  13.696  10.126   3.219 -0.0082  0.0751  0.0550
19356W        W37560   0.804   5.378   3.324  0.2727  0.1036 -0.0701
19357W        W37561  14.769  13.374   0.119  0.2081 -0.0892 -0.1380
19358W        W37562  13.854  13.230  17.085  0.0716 -0.0927  0.2153
19359W        W37563  13.032   3.876   0.935  0.0435 -0.0749  0.0868
19360W        W37564  14.710  11.110   0.114 -0.5022 -0.0316 -0.2898
19361W        W37565  11.592   7.848   4.635  0.1070  0.1416 -0.2984
19362W        W37566  16.963   6.225   2.546  0.2206 -0.3290  0.1348
19363W        W37567   2.256  11.730  13.297  0.1496 -0.4191 -0.1458
19364W        W37568  15.192  11.217   0.399  0.0899  0.1292 -0.0951
19365W        W37569   8.050   3.588  15.883 -0.3395 -0.1013  0.2454
19366W        W37570  11.345   7.422  16.779  0.0597 -0.1177  0.0276
19367W        W37571  13.082   0.240   2.061  0.2521  0.0030  0.2119
19368W        W37572  17.333   0.251  12.932 -0.0841 -0.1869 -0.1619
19369W        W37573  14.269  16.566   0.546 -0.0714 -0.0805  0.0399
19370W        W37574   8.362   5.198  14.923  0.2927  0.0897  0.0639
19371W        W37575  11.336  15.540   0.887 -0.1453 -0.2219  0.1607
19372W        W37576   1.748  17.055   3.952 -0.2442 -0.0855 -0.0036
19373W        W37577  13.266  10.424   3.477  0.0435 -0.0156 -0.0291
19374W        W37578   6.063   4.835  15.779  0.0833  0.0612 -0.2736
19375W        W37579  14.236   5.171   0.974 -0.2666 -0.4219  0.2127
19376W        W37580  16.529   7.004  15.514  0.1076 -0.1514  0.2840
19377W        W37581   3.871  13.370  13.723  0.4146 -0.2279 -0.0502
19378W        W37582  11.622   3.935  15.178  0.4164 -0.2949  0.2149
19379W        W37583   7.991   5.747   2.837 -0.0808  0.2483  0.1743
19380W        W37584   2.515  15.443  16.916  0.0841  0.2617  0.0839
19381W        W37585  14.703  13.333   5.997  0.1952 -0.0917  0.2712
19382W        W37586   3.833  16.343   0.430  0.2220  0.2466 -0.1644
19383W        W37587   2.305  17.136   1.742  0.0816 -0.1584 -0.1157
19384W        W37588   8.359  15.070  12.750 -0.2559 -0.1396  0.0804
19385W        W37589  16.606   3.690  15.208  0.1210 -0.2176  0.3341
19386W        W37590  13.066  11.208  14.550  0.0781 -0.2528 -0.0468
19387W        W37591   5.811   4.504  13.864 -0.0622 -0.0212 -0.0417
19388W        W37592  13.428  17.153   1.280 -0.0999  0.1817 -0.2633
19389W        W37593   7.829   6.323   5.451 -0.3773 -0.0669 -0.2503
19390W        W37594  16.826  10.832  17.004 -0.0649  0.1634  0.0479
19391W        W37595   2.058  13.616  16.872  0.2382  0.1838 -0.1924
19392W        W37596   7.651  17.248   0.839  0.0472 -0.1145 -0.3288
19393W        W37597  10.522  12.184  13.869 -0.1457  0.0236  0.1728
19394W        W37598   3.262  17.265   3.373 -0.0490 -0.2398 -0.0905
19395W        W37599  16.182   7.557   0.864  0.2526  0.1168 -0.0131
19396W        W37600   7.566  16.549  13.058  0.1878  0.0310  0.0830
19397W        W37601   9.788   4.578   4.873 -0.3996  0.0924  0.2550
19398W        W37602   3.876   3.131   4.541 -0.0333  0.1751  0.0476
19399W        W37603  13.065   0.448  16.505  0.1985 -0.3027  0.0703
19400W        W37604  16.666  16.918   1.018 -0.1154  0.0315  0.0334
19401W        W37605   0.311  10.541  15.464  0.1744 -0.1928 -0.1807
19402W        W37606   6.156  16.211  14.427  0.0671  0.2356 -0.0839
19403W        W37607  12.451   2.886   5.105  0.0450 -0.0104 -0.5668
19404W        W37608  12.795   5.172  13.893 -0.1880 -0.0759 -0.0952
19405W        W37609  14.415  10.558   4.203  0.2792 -0.2416 -0.2741
19406W        W37610   7.858  10.845  13.183  0.1150 -0.1538 -0.0483
19407W        W37611   4.798   4.744  13.800 -0.1121  0.0208 -0.0087
19408W        W37612  10.379  14.182  14.097 -0.0272 -0.4427  0.1545
19409W        W37613   0.188   2.138  14.400  0.1478 -0.0931 -0.1050
19410W        W37614   9.544  15.928   2.470 -0.2440  0.0537 -0.5876
19411W        W37615  13.895   5.887   5.026  0.1530 -0.4045 -0.0312
19412W        W37616  11.484  14.220  14.537 -0.3020 -0.3627 -0.1450
19413W        W37617  13.057   3.614  17.098  0.3367  0.3213 -0.0128
19414W        W37618  15.706   1.254  12.653  0.1693 -0.0123  0.2081
19415W        W37619  14.998   2.145  17.523  0.0622 -0.0699 -0.2534
19416W        W37620   6.889  10.875   0.736  0.2267  0.0148 -0.2623
19417W        W37621  11.784  10.963   4.147 -0.1533  0.2709  0.1237
19418W        W37622  15.894   2.976   3.927 -0.2440 -0.1716  0.1404
19419W        W37623  15.996  11.778   0.543 -0.1494  0.0964 -0.2071
19420W        W37624   0.255  13.026  12.822 -0.0688  0.0571 -0.1922
19421W        W37625   7.497  14.422  17.348 -0.2397  0.0050  0.0149
19422W        W37626  14.003  16.476   1.953  0.0518 -0.1719  0.0680
19423W        W37627   0.691   7.569   4.073  0.1859 -0.0011 -0.0176
19424W        W37628   3.505   1.429   4.838  0.1755 -0.3391 -0.2813
19425W        W37629   9.858   9.034  14.381 -0.1267 -0.3730  0.2925
19426W        W37630   6.811   4.670   3.617  0.1761  0.0896  0.4503
19427W        W37631  13.756   9.464   1.214  0.1976  0.3613 -0.1640
19428W        W37632  11.663   7.575  16.437 -0.3435  0.2072 -0.3342
19429W        W37633   4.578  12.724   4.324 -0.1332  0.1517  0.0237
19430W        W37634   6.018  14.452  12.080  0.1211  0.0158  0.0749
19431W        W37635  11.081   2.497   0.753  0.0547 -0.1131  0.2610
19432W        W37636   5.481   2.369   2.042 -0.0043 -0.2477  0.3857
19433W        W37637   1.186  11.691   1.195 -0.1402  0.0810 -0.1916
19434W        W37638   4.555   9.703   5.305  0.2736  0.1507  0.2986
19435W        W37639   0.508   1.071   1.141  0.3217  0.2559 -0.1063
19436W        W37640   9.820   4.006   4.051 -0.1225 -0.0325 -0.0101
19437W        W37641  11.887   5.979   4.059 -0.0904  0.0156  0.3810
19438W        W37642   6.860   9.120  13.540 -0.4033 -0.1738  0.4213
19439W        W37643   6.511  15.052   4.351 -0.0437  0.1506 -0.0956
19440W        W37644   5.333   1.382  16.989 -0.1186  0.4837 -0.3885
19441W        W37645   8.290  16.076   0.443 -0.1409 -0.1483  0.1617
19442W        W37646   0.575  14.791  16.589 -0.1305  0.0955  0.1259
19443W        W37647   3.044   3.782  15.913  0.0682 -0.1284  0.0040
19444W        W37648  11.853  13.406   2.017  0.0969  0.2584  0.0466
19445W        W37649   7.981   9.179   0.717 -0.0143  0.0790  0.1468
19446W        W37650   9.592  17.284  14.586 -0.1082  0.1356  0.2956
19447W        W37651   5.752  14.966  13.176 -0.0559  0.0198  0.1595
19448W        W37652   9.811   2.618  14.514 -0.1023 -0.2241 -0.3467
19449W        W37653   6.756   7.460  11.017 -0.3046  0.0844  0.1192
19450W        W37654   1.056  14.753  15.594 -0.0008 -0.0032 -0.1241
19451W        W37655   5.161  14.189  12.132  0.0992  0.0469  0.1352
19452W        W37656  12.551   1.917  17.025  0.1208  0.2210 -0.2867
19453W        W37657  13.573  13.876   1.925 -0.0219 -0.1234  0.1461
19454W        W37658   4.547   6.066   2.946  0.1811  0.4395  0.0648
19455W        W37659  12.598   3.906  15.732  0.1216 -0.0484 -0.2255
19456W        W37660  14.226   2.080  15.102 -0.2839  0.1873  0.0008
19457W        W37661   9.433   8.566  12.768  0.0218  0.0397  0.1507
19458W        W37662  11.639  14.138   4.203 -0.1475 -0.0516 -0.2130
19459W        W37663  15.382   3.612   0.980  0.2636  0.0432  0.1803
19460W        W37664  16.832   7.911  13.671  0.2707 -0.0636 -0.3404
19461W        W37665   3.759  13.206   3.099  0.0594  0.1627 -0.2139
19462W        W37666  15.898   6.531   4.068  0.0117  0.0306  0.2638
19463W        W37667  13.864  11.446  16.527  0.0871  0.0993 -0.0955
19464W        W37668   2.566   1.721   4.877 -0.0287  0.1093 -0.1979
19465W        W37669  16.058   7.753   3.028 -0.1091  0.1071  0.4861
19466W        W37670  14.514   3.539   2.345 -0.0910 -0.1705 -0.0164
19467W        W37671   1.127   0.977   1.873 -0.0924 -0.0278  0.1018
19468W        W37672  16.809   6.842   4.049 -0.0414  0.2895 -0.0835
19469W        W37673  16.973  15.209  15.312  0.1727  0.0317 -0.1649
19470W        W37674   2.585  13.577   5.863  0.0910 -0.0291 -0.1119
19471W        W37675   5.165   2.421  13.428 -0.0888 -0.1380 -0.2315
19472W        W37676  16.859   7.549  14.677 -0.0602 -0.1116  0.3380
19473W        W37677   2.568  11.027   0.222 -0.0431 -0.1857  0.1696
19474W        W37678   9.084  11.728  13.137 -0.0034 -0.3112 -0.1690
19475W        W37679   5.683  14.454  14.352 -0.3971 -0.2681 -0.0271
19476W        W37680  12.795   2.482   0.393 -0.0902 -0.0623 -0.4696
19477W        W37681   6.523  12.781  16.298 -0.1186 -0.0641 -0.0346
19478W        W37682   3.897  11.665   1.364 -0.0624 -0.0392 -0.1464
19479W        W37683  11.614   1.763  15.810  0.0121  0.0706  0.0868
19480W        W37684   4.058  10.097   2.946 -0.4374 -0.0826 -0.0591
19481W        W37685  13.616   3.626  15.953  0.0457 -0.4332  0.0785
19482W        W37686  13.694  16.953   3.762  0.0217 -0.1619 -0.0580
19483W        W37687   4.330   5.363   0.668  0.1357  0.1462 -0.2280
19484W        W37688   6.168  12.271  12.759  0.1131 -0.0660  0.1725
19485W        W37689   3.511   9.771   3.790  0.0632 -0.1471 -0.2048
19486W        W37690   5.558   1.601  15.645  0.2021  0.0461  0.0153
19487W        W37691   1.339   6.765  14.243 -0.4705  0.2370 -0.1018
19488W        W37692   6.237  10.724  14.146 -0.1398  0.0330  0.1244
19489W        W37693   9.967   4.818  12.804  0.1173 -0.0623 -0.0806
19490W        W37694  17.047   2.997   3.678 -0.0722 -0.0086 -0.1460
19491W        W37695   1.916   1.441  12.250 -0.0836  0.1046 -0.2475
19492W        W37696  10.933  11.347   1.968 -0.1181  0.1110 -0.2238
19493W        W37697  11.585  16.175   3.055  0.1589  0.1732  0.0151
19494W        W37698  11.343   3.617  13.393 -0.3064 -0.3597 -0.0373
19495W        W37699   0.099  12.950   1.138  0.2306  0.2429 -0.1098
19496W        W37700  15.458  11.651   3.792 -0.1041 -0.0566  0.0655
19497W        W37701  16.064   2.711  14.285  0.0595  0.2333  0.3994
19498W        W37702   7.547  16.902  14.355 -0.1139 -0.2877 -0.5568
19499W        W37703   0.703  12.451   3.216  0.0671 -0.3920  0.1562
19500W        W37704   7.694  14.705   2.869 -0.1847  0.1848  0.0774
19501W        W37705  12.365   3.963  12.562  0.1394 -0.3091 -0.2145
19502W        W37706   0.126   1.503   1.704 -0.0673 -0.1695 -0.0160
19503W        W37707   0.404  16.807  12.413 -0.1323 -0.1088 -0.0182
19504W        W37708  10.395  15.819   1.332 -0.1308  0.0982 -0.1530
19505W        W37709   8.743   3.543  17.193  0.1297  0.4604  0.1912
19506W        W37710  15.315   1.970  13.263 -0.0033  0.1316 -0.2132
19507W        W37711   6.967  15.038   5.486  0.0162  0.1752  0.1332
19508W        W37712  13.319  17.242  17.194  0.1863  0.0212  0.1833
19509W        W37713   4.403  13.099   0.747 -0.0106  0.2047 -0.2882
19510W        W37714  15.985   8.604  13.516  0.1743 -0.0005  0.0895
19511W        W37715  14.538  11.284  15.739  0.1717 -0.0500  0.1979
19512W        W37716  15.085  15.142   2.927 -0.1106 -0.1706 -0.1195
19513W        W37717  13.728   9.711   3.460 -0.1116  0.0679  0.0849
19514W        W37718   7.010  16.598  14.384 -0.1162  0.0491  0.1866
19515W        W37719   0.065   9.710   3.602  0.0222 -0.2228  0.0098
19516W        W37720   7.422   0.648   5.130 -0.1268 -0.2512 -0.3322
19517W        W37721   3.088  11.479  15.838  0.0732 -0.1949 -0.0842
19518W        W37722  13.557   0.112  15.081  0.1899 -0.1818 -0.0231
19519W        W37723   5.273  16.474  16.765 -0.1126 -0.1096 -0.1562
19520W        W37724   0.314  16.573  15.060  0.0959  0.2064  0.1267
19521W        W37725   6.105   1.834  13.575 -0.0961 -0.3187 -0.0235
19522W        W37726  16.830  13.592   2.396  0.2104 -0.2259 -0.2046
19523W        W37727   7.449   8.239  13.554  0.1561  0.1083  0.2180
19524W        W37728  15.232  15.690   2.845 -0.1266  0.3505  0.0477
19525W        W37729   3.540   0.108   6.350  0.2202 -0.4025  0.3786
19526W        W37730  13.795   0.501   6.595  0.1257 -0.2521 -0.2130
19527W        W37731  10.343  11.927  15.078 -0.1350 -0.0767  0.1925
19528W        W37732  14.161  12.415  17.395  0.1965  0.0544  0.0735
19529W        W37733   1.932  12.982   0.133  0.2717 -0.0179 -0.0882
19530W        W37734  11.872   1.788   1.645 -0.1979 -0.1039 -0.0361
19531W        W37735   5.007  11.215   1.402 -0.1198 -0.1108  0.2540
19532W        W37736   2.975   2.782  16.307  0.0696  0.0950  0.2658
19533W        W37737  16.632   1.172   3.061  0.0512  0.0725 -0.1574
19534W        W37738  12.871   2.676  17.269 -0.2876  0.1703  0.1331
19535W        W37739  15.293   4.999  13.385 -0.0448  0.2409 -0.0041
19536W        W37740  11.455  16.582   4.876 -0.2015 -0.0450  0.3754
19537W        W37741  11.044   3.135  14.533  0.1410 -0.0935 -0.2542
19538W        W37742  16.866  14.138   3.700  0.2353 -0.2710 -0.0908
19539W        W37743   4.035   4.064  14.369 -0.1990  0.0959  0.4785
19540W        W37744   3.261   9.974   2.583 -0.0110  0.0120 -0.0233
19541W        W37745   3.574  13.213   4.246  0.2941  0.1388  0.1389
19542W        W37746   8.218   9.490  15.035 -0.2223 -0.0590  0.1998
19543W        W37747  15.779  12.000   0.069  0.1449  0.0418  0.0679
19544W        W37748   7.300   5.690  17.358  0.2010  0.3332  0.0384
19545W        W37749   6.657   8.862  13.891  0.1166  0.1635 -0.1067
19546W        W37750  14.084   0.599  13.568  0.0446  0.5507  0.0662
19547W        W37751   1.520   9.661  17.403 -0.0180 -0.1600  0.1035
19548W        W37752   8.187  12.231  15.741 -0.5388 -0.1094 -0.1945
19549W        W37753   3.908   2.328   0.655 -0.0007  0.1565 -0.2067
19550W        W37754   3.284   1.346  12.429 -0.1825 -0.0113  0.3459
19551W        W37755  11.155   7.899   4.832 -0.0121  0.2695  0.2823
19552W        W37756  11.244  15.341   1.855 -0.0113  0.1766 -0.1684
19553W        W37757   8.456   0.814  14.439 -0.5483 -0.1556  0.0736
19554W        W37758   9.255  16.859  14.643  0.1941  0.0829 -0.1696
19555W        W37759  16.795   3.363  16.480  0.0631  0.0998  0.2561
19556W        W37760  10.268   1.657   1.228 -0.0410  0.0678  0.0116
19557W        W37761  16.973   3.631   4.676  0.0001  0.1981  0.1305
19558W        W37762  16.368   2.715   3.965  0.0769  0.1597  0.0407
19559W        W37763   1.865   7.529  14.198 -0.0519  0.2942 -0.0417
19560W        W37764   9.776   9.963  16.996  0.0454 -0.0201 -0.1625
19561W        W37765  13.066   6.508   3.321  0.2480 -0.2840  0.2628
19562W        W37766  12.022  15.856  13.572 -0.2335 -0.1276  0.2791
19563W        W37767  11.577  11.720   3.132  0.1528 -0.0408  0.1578
19564W        W37768   4.684   8.538   3.141 -0.2729  0.1047  0.2188
19565W        W37769  13.258  10.147  16.434  0.1571  0.2731  0.1703
19566W        W37770   3.615   9.794   1.338 -0.3300  0.2416 -0.2059
19567W        W37771  15.810  10.615  16.755 -0.2774 -0.0235 -0.1561
19568W        W37772   6.517   6.479  14.209 -0.0200  0.0813 -0.0868
19569W        W37773   0.342   4.327   6.342  0.1201 -0.3018  0.2740
19570W        W37774  12.174   6.408  15.538  0.0037  0.1101 -0.1577
19571W        W37775  15.426   7.981  16.775 -0.0802 -0.0084  0.0623
19572W        W37776  15.359   1.578  15.345  0.0175 -0.3133  0.0345
19573W        W37777  11.537   8.213   4.989 -0.2327  0.0423 -0.1431
19574W        W37778  13.640  16.447   2.475 -0.1641  0.0160 -0.0181
19575W        W37779  16.379   3.266  13.662 -0.2414 -0.0605 -0.0518
19576W        W37780  10.027  16.969  12.822  0.0081  0.1685 -0.2630
19577W        W37781  10.291   9.445   4.873  0.1627  0.1534  0.1054
19578W        W37782   4.240   9.526   0.529  0.4130  0.0293 -0.1183
19579W        W37783   8.253   6.586   3.436 -0.1742  0.0303  0.0504
19580W        W37784  11.490   0.071   4.328  0.2380  0.0745  0.2073
19581W        W37785   6.798   3.867  14.109  0.2202  0.1368 -0.0045
19582W        W37786  14.225  14.890  15.001  0.0165 -0.2070  0.1783
19583W        W37787  14.900   3.517  13.143 -0.1238 -0.1035  0.0971
19584W        W37788  12.405  10.261   4.792 -0.2581  0.0492  0.0796
19585W        W37789  16.862   8.684  16.383  0.3712  0.1287 -0.0392
19586W        W37790  11.775  13.163  14.529 -0.0944  0.0179  0.0237
19587W        W37791  16.013  16.389   4.318  0.3484  0.0109 -0.0568
19588W        W37792  13.013  13.177  14.573  0.0984 -0.0356  0.0103
19589W        W37793  15.323   7.096  14.490  0.0311  0.0081 -0.1571
19590W        W37794  11.083   5.414   1.638 -0.2157  0.2427 -0.0912
19591W        W37795  17.167   8.382   2.749 -0.0804 -0.0333 -0.2518
19592W        W37796   2.786  16.542   1.116  0.0174 -0.1820 -0.0013
19593W        W37797   1.763  10.004  17.152  0.0605 -0.0790  0.2181
19594W        W37798  11.210   2.821  16.535  0.2071  0.1666 -0.2416
19595W        W37799   0.038   6.010  15.370 -0.2891  0.2247 -0.0230
19596W        W37800   0.021  12.125  15.322  0.1467 -0.0768 -0.2253
19597W        W37801   5.482   0.335  14.357  0.0925 -0.0069  0.2274
19598W        W37802  15.039   7.031   1.844 -0.1290 -0.0258  0.2916
19599W        W37803   7.511  14.808  14.689 -0.0402  0.3209  0.4138
19600W        W37804   8.422  15.242   4.456 -0.1227  0.3264  0.0082
19601W        W37805   3.356  13.816   1.302  0.1530 -0.1394  0.1963
19602W        W37806  16.195   9.464   0.429  0.0564 -0.1616  0.2083
19603W        W37807  16.309   9.984   1.129 -0.0730  0.2048 -0.2102
19604W        W37808   2.742   8.517   2.565 -0.1812  0.1862  0.1778
19605W        W37809   3.972   8.500  12.356  0.1513  0.1049 -0.0886
19606W        W37810   9.922  10.207  14.807  0.1361  0.1518 -0.3539
19607W        W37811   6.406   7.504  15.974  0.1486  0.2084 -0.3631
19608W        W37812   7.590   2.009   4.932  0.1093  0.0062  0.0223
19609W        W37813   6.436   7.799  15.548 -0.1725  0.1398 -0.1401
19610W        W37814   5.744  11.028  17.448  0.2822 -0.0566 -0.0581
19611W        W37815   6.424   7.085  16.486  0.0195  0.1529  0.0679
19612W        W37816  15.814   2.053  13.085 -0.1157  0.0879  0.1042
19613W        W37817   3.550  13.899  13.121  0.1690  0.1072  0.1422
19614W        W37818  16.328  10.810  13.560  0.0009  0.0622  0.1464
19615W        W37819   4.946   6.888  15.956  0.2348  0.0507  0.1844
19616W        W37820  16.755   8.501   0.864  0.2080  0.2700 -0.0033
19617W        W37821  14.887  15.650   5.180 -0.1399 -0.4383  0.1393
19618W        W37822  15.268  13.093   4.763 -0.0399 -0.0766 -0.2076
19619W        W37823  14.956  10.990  15.046  0.0078  0.2682  0.3143
19620W        W37824   2.196   1.052   5.929  0.1187 -0.1103  0.2688
19621W        W37825   8.890   4.942   0.087 -0.0835 -0.1252 -0.0469
19622W        W37826   2.991   7.671   2.258  0.0171 -0.1347  0.1803
19623W        W37827   0.280  15.452   2.563 -0.0872 -0.0611 -0.0948
19624W        W37828  10.125  10.030   4.237  0.0402  0.2219  0.2229
19625W        W37829   9.237   0.377  13.956  0.3367  0.2877 -0.2712
19626W        W37830  15.654   2.581   1.158 -0.1613  0.2548 -0.4489
19627W        W37831   8.543   2.800   5.303 -0.0001 -0.1159 -0.2153
19628W        W37832  12.328   0.979  12.727 -0.2203  0.0552 -0.0793
19629W        W37833   4.296  12.139  12.680 -0.0024 -0.0770  0.1523
19630W        W37834   1.284   7.387  16.920  0.1503  0.0076  0.0633
19631W        W37835   4.763   5.131   2.505  0.0906  0.0823 -0.0934
19632W        W37836  17.126   3.578   5.220  0.2772 -0.1304 -0.0427
19633W        W37837   8.087  14.346  17.229 -0.3184 -0.1420  0.1839
19634W        W37838  10.531   3.719  13.859  0.1482 -0.0531  0.0443
19635W        W37839  13.079  11.146  16.304  0.0313 -0.1216  0.0420
19636W        W37840  11.533  10.680   2.727  0.1129  0.0887 -0.0182
19637W        W37841   2.809   4.821   0.936  0.1045  0.0949  0.0607
19638W        W37842  14.069   4.203  11.981 -0.1057 -0.3595 -0.1498
19639W        W37843  12.700   6.295   3.023 -0.0561 -0.0953  0.1166
19640W        W37844  15.547   1.833  14.659 -0.0894 -0.0567  0.0358
19641W        W37845   9.872  11.598  17.432 -0.1642  0.0271  0.2662
19642W        W37846  12.525  15.071  11.285  0.2039 -0.2422 -0.1066
19643W        W37847   9.196  12.738   2.169 -0.2597 -0.1378 -0.3815
19644W        W37848   1.156   1.537  13.641  0.1157  0.0788  0.0267
19645W        W37849  10.091   6.376  16.619  0.0099  0.0184  0.0657
19646W        W37850  11.381  13.864   4.508 -0.0675 -0.0725 -0.0476
19647W        W37851   1.565   2.299  15.669  0.0014  0.1254 -0.3347
19648W        W37852   0.489   9.201   2.284 -0.2665  0.1089 -0.0290
19649W        W37853  12.070   2.510   4.699  0.1319 -0.1758  0.2617
19650W        W37854   3.446  14.280  13.457 -0.0982 -0.2406  0.1093
19651W        W37855   5.130   3.176  13.529  0.0025  0.1107  0.1225
19652W        W37856   8.887   5.838  16.730 -0.2204  0.3327  0.0910
19653W        W37857   7.522   5.374   1.026  0.0775 -0.2909  0.1862
19654W        W37858   8.030  15.632  17.475  0.1484 -0.3593 -0.1664
19655W        W37859  16.614  12.987   0.837 -0.2136  0.1239 -0.3768
19656W        W37860  12.724  15.455   2.534 -0.0430  0.1517 -0.1900
19657W        W37861  12.176   3.453  14.171 -0.0906  0.0847 -0.0206
19658W        W37862   6.852   9.847  16.456 -0.4186 -0.0080 -0.0517
19659W        W37863   0.053   4.292  15.350 -0.0427  0.0320  0.0489
19660W        W37864   8.194   2.383  12.840  0.0750 -0.1041  0.0154
19661W        W37865   1.144   3.301   1.923 -0.2258 -0.0186 -0.0737
19662W        W37866  13.298   5.259   3.458  0.2234 -0.3000  0.1321
19663W        W37867   9.276  16.450  12.768  0.0869 -0.1601 -0.2411
19664W        W37868  12.456  11.815   1.196 -0.0299  0.0333  0.1383
19665W        W37869   0.123  12.042   0.162  0.3080 -0.0985  0.1370
19666W        W37870  10.458  10.083  15.407  0.1128  0.2042  0.0567
19667W        W37871   6.870   9.769  15.539  0.1401 -0.0192  0.0289
19668W        W37872  12.428  15.365   2.958  0.1468 -0.3241  0.2347
19669W        W37873  12.245   6.965  14.072  0.1330  0.1320 -0.1443
19670W        W37874  12.973  13.630  13.235  0.1223 -0.0273 -0.0161
19671W        W37875   7.731   0.768  15.820 -0.0852 -0.0968 -0.1371
19672W        W37876  11.502   4.907  13.692  0.0673 -0.1201 -0.0880
19673W        W37877   9.162   6.475  14.996  0.2092  0.2113 -0.1925
19674W        W37878   4.656  12.303   2.258 -0.0527 -0.1215 -0.1340
19675W        W37879   9.018  16.212  15.146 -0.0729  0.0591 -0.0290
19676W        W37880   8.721   7.957  14.265 -0.1495  0.0775 -0.3287
19677W        W37881   5.699   6.651   1.634 -0.0714  0.2767 -0.2918
19678W        W37882  16.489   1.192   3.974 -0.0783 -0.0026  0.0908
19679W        W37883   3.508   7.610   4.644  0.0403  0.0362  0.3457
19680W        W37884  15.719   9.242   4.933  0.0758 -0.0572  0.1000
19681W        W37885   2.591   6.549   3.765  0.0053 -0.1523 -0.3275
19682W        W37886  11.053  16.016   0.800  0.0809  0.2696  0.0123
19683W        W37887  16.370   0.425  12.787 -0.1522  0.1806 -0.0766
19684W        W37888  12.381  17.096   4.811 -0.1348 -0.1551  0.0944
19685W        W37889   6.157   2.527  17.337 -0.0884  0.1255 -0.2946
19686W        W37890   5.088  16.197  15.035 -0.1714  0.1222  0.0297
19687W        W37891   5.710  14.166   3.387  0.3045  0.0264 -0.0023
19688W        W37892   3.331   6.054   3.091 -0.2257  0.2423 -0.1174
19689W        W37893   6.522   5.930   5.227 -0.1201 -0.0979  0.0728
19690W        W37894  13.749  13.998  14.674 -0.0205 -0.1305 -0.0645
19691W        W37895   9.340   5.937   5.642  0.1363  0.3264 -0.2868
19692W        W37896   8.492   8.205  14.648  0.0394 -0.1367  0.0674
19693W        W37897  14.477  15.031   1.246  0.0087 -0.0697 -0.0647
19694W        W37898  13.550  14.600  14.000 -0.3931 -0.1510 -0.2118
19695W        W37899   0.729   3.784   2.517 -0.3476  0.0918 -0.0482
19696W        W37900   1.517   1.563   5.533  0.1513  0.2328 -0.1451
19697W        W37901   3.411   8.929  17.375 -0.1773 -0.0059  0.1831
19698W        W37902   4.524  11.232  17.285  0.1207  0.0039 -0.2654
19699W        W37903  11.282   5.444  14.575 -0.1474 -0.0040  0.0260
19700W        W37904   0.351  11.196   0.510  0.2892 -0.1756  0.2744
19701W        W37905  11.554   3.698  15.953 -0.1086 -0.1289 -0.1927
19702W        W37906  13.672   0.662   1.330 -0.1027  0.3469 -0.0457
19703W        W37907   4.802  12.081  12.600  0.1163 -0.1670 -0.4112
19704W        W37908   3.769   2.102  17.224 -0.0117  0.1391  0.1889
19705W        W37909  12.904  11.147   2.854 -0.1581  0.0212  0.1420
19706W        W37910  10.517  15.201  14.029 -0.0224 -0.0646  0.1262
19707W        W37911   5.344   2.251   0.852  0.0132 -0.1258  0.0577
19708W        W37912  10.211  11.064   3.280 -0.0844  0.3454  0.2344
19709W        W37913  16.909   4.685  12.937  0.0274  0.2185 -0.1046
19710W        W37914   5.566   7.824   1.772 -0.2935 -0.1470 -0.0149
19711W        W37915  15.537   6.608  14.709  0.0801 -0.0547  0.1272
19712W        W37916   3.899   8.671  14.615  0.0408 -0.0493  0.2811
19713W        W37917   6.399   0.405   1.100  0.4125  0.1298  0.1778
19714W        W37918   1.430   7.538  13.133  0.0899  0.1305  0.0224
19715W        W37919   1.866   0.037  17.176  0.0326 -0.0172  0.0192
19716W        W37920   0.905  16.312  16.260  0.0478 -0.0027 -0.0195
19717W        W37921   4.771   1.532   2.727 -0.1074 -0.1063  0.0545
19718W        W37922   9.601  10.227  15.636  0.1521  0.0607 -0.1860
19719W        W37923  15.572   3.174  13.802  0.0026 -0.0398 -0.3305
19720W        W37924   5.189   3.631   0.977  0.0674 -0.0710  0.1568
19721W        W37925   6.831  15.524   1.254 -0.0125 -0.0568 -0.0977
19722W        W37926   6.770  14.019  16.375 -0.1144 -0.1140  0.1941
19723W        W37927   0.197   3.424   0.472 -0.1398  0.0959  0.0260
19724W        W37928   0.882  12.164  16.548 -0.1949 -0.2482 -0.2559
19725W        W37929   9.154   4.335   4.911  0.0244  0.2204 -0.0895
19726W        W37930  13.774   8.405  12.894  0.3417  0.1433 -0.2528
19727W        W37931   0.937   2.684  14.517 -0.1096 -0.1264 -0.0494
19728W        W37932   0.684  15.988  13.022  0.1454 -0.4545  0.0945
19729W        W37933   7.604   6.495   1.033 -0.0769  0.2625 -0.0546
19730W        W37934  10.628   9.438  16.872  0.2378 -0.0814 -0.1458
19731W        W37935   5.338   2.990   3.798 -0.0112 -0.1995  0.1832
19732W        W37936  11.943   9.932   5.130  0.2412 -0.2089 -0.3420
19733W        W37937  10.775   7.274   3.236  0.1134  0.0138 -0.0629
19734W        W37938  11.246   9.391   3.984 -0.0832 -0.0790 -0.3141
19735W        W37939   8.487   9.084  15.238 -0.3972 -0.0077 -0.0474
19736W        W37940   4.380   1.162  16.205  0.0534  0.0576 -0.0175
19737W        W37941  16.089   5.964  13.994  0.2030  0.2163  0.0046
19738W        W37942   5.279   1.455  13.572  0.0840 -0.0116  0.2760
19739W        W37943  17.117  14.825   3.270 -0.0500 -0.1147  0.0049
19740W        W37944   2.751   4.262   2.542 -0.0253 -0.1325 -0.0090
19741W        W37945   5.570   7.227   4.211 -0.1993  0.0017  0.0562
19742W        W37946   4.303   8.625   0.777  0.1786  0.1862 -0.0907
19743W        W37947   1.690   7.890   0.589  0.3911  0.2305  0.1201
19744W        W37948  13.560  10.695   5.325 -0.2595 -0.2954  0.1667
19745W        W37949   7.328  16.122   1.969  0.1274 -0.0057 -0.3386
19746W        W37950  16.129   6.176  12.632 -0.0910 -0.0445  0.0606
19747W        W37951   6.403  13.455   4.158 -0.1147 -0.0789 -0.0218
19748W        W37952  13.659  10.005   1.200 -0.0340 -0.1600  0.1144
19749W        W37953   1.806   4.381  14.093  0.0217 -0.0437  0.4131
19750W        W37954  12.723   9.145   1.634 -0.1340  0.3442  0.3579
19751W        W37955  11.942   3.747  14.756  0.0656 -0.0574  0.3516
19752W        W37956   6.069  14.402  11.571  0.1558  0.1799  0.1791
19753W        W37957  16.705   1.899  13.740 -0.1604  0.2353  0.0678
19754W        W37958   6.277   3.876   5.050 -0.0880  0.0389  0.0171
19755W        W37959  16.800   1.043  14.442  0.0087 -0.3470  0.0961
19756W        W37960   6.491   1.806   0.412 -0.3113  0.2447 -0.1214
19757W        W37961   9.266  10.519   5.038 -0.0705  0.0688 -0.2560
19758W        W37962  11.316   7.614   2.445 -0.0445  0.0924 -0.1274
19759W        W37963  12.118   2.135  16.691 -0.0616  0.0752 -0.0830
19760W        W37964   4.729   7.038   0.001 -0.1627 -0.1525 -0.1712
19761W        W37965   2.036  13.377   0.414  0.2948  0.1761  0.0941
19762W        W37966   2.942   0.856   4.936 -0.2490 -0.1676  0.0821
19763W        W37967   0.245   0.404   0.728 -0.1012  0.3180 -0.1479
19764W        W37968  14.701   1.432   4.302 -0.4350  0.0894 -0.3944
19765W        W37969   7.761  16.166  16.792  0.3523  0.2859  0.0217
19766W        W37970   6.336  14.987   1.658 -0.0277 -0.1468 -0.0722
19767W        W37971   2.827   4.982  12.050  0.5510 -0.0271  0.0199
19768W        W37972   0.835  11.885   3.041 -0.0881 -0.0115  0.0066
19769W        W37973  14.034  11.969   0.408  0.0803  0.1121 -0.0263
19770W        W37974   4.529   1.843  15.063 -0.1722  0.1149 -0.0955
19771W        W37975   4.102   5.322   1.138 -0.2060 -0.2730  0.2830
19772W        W37976  16.198   9.472   0.969 -0.0095  0.0425 -0.0940
19773W        W37977   4.641   7.525  13.562 -0.1738  0.5286 -0.0149
19774W        W37978   0.532   5.222  14.423 -0.1244  0.1854  0.1494
19775W        W37979   4.438   6.531  15.192 -0.0365 -0.0209  0.1086
19776W        W37980  14.593   6.387  12.515 -0.0342  0.1800  0.2943
19777W        W37981   6.019  14.845  16.228  0.0219 -0.0546 -0.0019
19778W        W37982   7.974  12.074   3.010 -0.1751 -0.0197  0.0037
19779W        W37983  14.132  14.426   3.852 -0.0292  0.3018  0.1274
19780W        W37984  13.386  15.051   1.321  0.0373  0.1211  0.2657
19781W        W37985   5.427  13.690  16.628  0.3694 -0.0905 -0.1133
19782W        W37986   4.857   4.238   1.534  0.1250 -0.0402  0.3141
19783W        W37987   4.480   0.472  16.639 -0.1066 -0.0493  0.1032
19784W        W37988  13.288  12.139  16.317 -0.1154 -0.1616  0.1048
19785W        W37989   6.168   1.698  14.583 -0.0817  0.0331 -0.1763
19786W        W37990  11.532  10.628   0.508 -0.1884  0.0420 -0.1619
19787W        W37991  16.444  10.477   0.923  0.0677  0.0686 -0.1296
19788W        W37992  11.741   6.399   0.706 -0.0132 -0.0520  0.0541
19789W        W37993   6.390  14.787  13.131 -0.0874  0.1037  0.2073
19790W        W37994  10.498   6.168   1.857 -0.1752 -0.0403  0.3645
19791W        W37995  10.959   3.021   0.537 -0.0235 -0.0198  0.0405
19792W        W37996  17.179   0.740   3.322  0.0965 -0.1510  0.0090
19793W        W37997  12.821   8.974   2.648  0.0283  0.0346 -0.0485
19794W        W37998  17.042   9.306   5.341 -0.0512 -0.4565  0.0250
19795W        W37999  14.519   2.249  16.018  0.1275  0.0357 -0.2516
19796W        W38000   1.129   1.009  13.852  0.0709  0.0253 -0.3302
19797W        W38001  13.878   5.172  15.395 -0.1737 -0.0029 -0.0692
19798W        W38002  14.183   3.633   4.093  0.0252 -0.0697 -0.2618
19799W        W38003   0.917   6.528  15.708 -0.4848  0.0820  0.0694
19800W        W38004  11.841  10.391   5.423  0.1574 -0.0216 -0.1458
19801W        W38005   9.128  10.218  13.582 -0.0664 -0.2143 -0.1365
19802W        W38006   5.228  12.981   2.859  0.0473  0.1563 -0.0963
19803W        W38007  11.500   4.728  16.133  0.2180  0.0621 -0.2295
19804W        W38008  10.672   3.667  16.961  0.0578  0.2780  0.0798
19805W        W38009  15.946   4.348  14.376  0.1002 -0.2059  0.1034
19806W        W38010   4.796   9.075   6.097 -0.2513 -0.2041 -0.1371
19807W        W38011  13.090  14.139  13.918  0.0975 -0.2307  0.0309
19808W        W38012   5.767   0.275  15.274 -0.0876 -0.0872  0.0471
19809W        W38013   8.642  13.361   0.624  0.0503  0.0220  0.1013
19810W        W38014   4.825   8.239  14.701  0.0367  0.1949  0.0501
19811W        W38015   2.706   4.135   3.569  0.0140  0.0446  0.3352
19812W        W38016   0.549  14.633   5.380 -0.0406  0.3029 -0.0511
19813W        W38017  16.235  13.029   3.994  0.0451 -0.2573 -0.3917
19814W        W38018   0.043  10.200   1.879 -0.0203  0.1504 -0.0608
19815W        W38019   4.972   4.245  16.339  0.1654  0.2214  0.0148
19816W        W38020   9.457  12.779  12.104  0.2243 -0.1084 -0.0204
19817W        W38021   1.480   9.951   3.661  0.1132 -0.0046 -0.0365
19818W        W38022   4.740  13.458   4.947  0.2417 -0.2848 -0.1344
19819W        W38023   1.240   5.795   3.643 -0.2245  0.0150 -0.0664
19820W        W38024   8.729  10.043  15.462 -0.0164  0.0234 -0.0647
19821W        W38025  13.972   3.167  13.484 -0.0334 -0.2436 -0.0913
19822W        W38026  11.594   3.532   5.655 -0.1203  0.3727 -0.0072
19823W        W38027  12.321  14.102   4.533  0.2374 -0.0302 -0.0218
19824W        W38028   9.215   1.800   1.891 -0.1504  0.0405 -0.2798
19825W        W38029  16.716  13.609   3.761  0.0470  0.1834  0.2635
19826W        W38030  11.044   0.064   2.926 -0.0930 -0.0603 -0.0366
19827W        W38031   7.269  17.141   0.448  0.1682 -0.1398 -0.0375
19828W        W38032  16.837   0.018   4.949 -0.1285 -0.0157 -0.2298
19829W        W38033  13.555   7.505  15.594  0.2350  0.0131 -0.0465
19830W        W38034   0.304   6.659   3.774 -0.1508 -0.1426  0.0855
19831W        W38035   8.428   3.035  13.956  0.0514 -0.2360 -0.1998
19832W        W38036   8.619  10.564   3.451 -0.0424  0.1914 -0.1527
19833W        W38037   8.645   8.251  16.591  0.2265  0.0261  0.4182
19834W        W38038  11.110   2.373  15.141 -0.0210  0.1206  0.0524
19835W        W38039   7.734   2.618   1.980  0.1406  0.2355 -0.6598
19836W        W38040   7.723   2.396   3.486 -0.0878  0.2311  0.1820
19837W        W38041  13.405  10.551   4.885 -0.0724 -0.0695 -0.3034
19838W        W38042   3.559   1.628  16.499 -0.0818 -0.0773 -0.0262
19839W        W38043  14.480  15.746  17.458 -0.0792 -0.0028 -0.3043
19840W        W38044   7.396   3.830  12.427 -0.2283  0.1832  0.1635
19841W        W38045  12.623  14.572   4.603  0.1009  0.2818 -0.1990
19842W        W38046  14.091   5.928  15.722 -0.0777 -0.1836  0.0647
19843W        W38047  16.642   7.842  17.108  0.0436 -0.0473 -0.2225
19844W        W38048   0.868  15.582   4.799  0.0381  0.2978 -0.3955
19845W        W38049   8.977   8.999  14.769  0.0560 -0.0231  0.0808
19846W        W38050  11.437  11.536  14.368  0.1353  0.1736  0.0070
19847W        W38051  13.263  13.900  14.832  0.1993 -0.2918 -0.2482
19848W        W38052  10.272   6.215  12.678  0.0609 -0.1643 -0.1675
19849W        W38053   3.483  14.442   4.522  0.0976  0.0521 -0.0561
19850W        W38054   0.950  14.783  12.456  0.0047 -0.2519  0.0486
19851W        W38055   0.475   6.354  15.451 -0.0356  0.1139 -0.1955
19852W        W38056   2.921  10.242  15.113 -0.1746 -0.1207 -0.1490
19853W        W38057  15.564  15.917   4.564  0.3040  0.1219  0.3531
19854W        W38058   7.239   3.279  13.025  0.0420  0.1549  0.1888
19855W        W38059  13.825   7.804   2.325  0.0617 -0.2532 -0.0078
19856W        W38060   3.675   1.341  15.644 -0.0050 -0.1314  0.3987
19857W        W38061   2.101  15.981  15.155 -0.1869  0.1897  0.1415
19858W        W38062  13.944   3.737   2.586 -0.2100 -0.2410 -0.2908
19859W        W38063  10.041   4.403   4.504 -0.0465 -0.1918 -0.2177
19860W        W38064  13.435  13.398   5.380 -0.0020  0.4345  0.1185
19861W        W38065   6.878   0.254   0.988  0.0445 -0.1145 -0.0795
19862W        W38066  13.492  16.296  13.521 -0.0766  0.2864 -0.3019
19863W        W38067  13.656   8.514  17.091 -0.2417  0.0233 -0.1145
19864W        W38068  13.116   1.267  15.982 -0.2554 -0.1150 -0.2494
19865W        W38069  10.271   8.273   3.564 -0.0482  0.1192  0.2434
19866W        W38070   5.875   6.829  16.361 -0.1791  0.0705  0.1339
19867W        W38071  15.174   5.816  14.710 -0.1806 -0.2708  0.5297
19868W        W38072   3.012  14.083  16.159 -0.1012 -0.1453 -0.0098
19869W        W38073   4.856   9.134  12.299 -0.0089 -0.1873  0.2879
19870W        W38074   8.247  15.140   2.027 -0.1011  0.2158 -0.1383
19871W        W38075   4.666  15.645  14.306  0.0613  0.2391 -0.0265
19872W        W38076   8.975   9.386   5.413  0.0220  0.1408 -0.0988
19873W        W38077  14.877  15.347  17.505  0.4450 -0.3574 -0.1168
19874W        W38078   8.007   7.909  16.913 -0.0810  0.3172  0.2908
19875W        W38079   0.837   5.112  12.018 -0.1539  0.0493 -0.2161
19876W        W38080   8.522  11.821  12.455 -0.2186  0.4018 -0.3347
19877W        W38081  14.394   2.951   0.341  0.2648 -0.0054 -0.1258
19878W        W38082   8.801   7.716   0.461 -0.3005  0.1220 -0.4360
19879W        W38083  13.358   8.268   5.106  0.4097 -0.1490  0.0351
19880W        W38084   8.571   4.364  15.976  0.1833  0.1682  0.3232
19881W        W38085  13.452   0.173  16.666  0.1004 -0.0393  0.1965
19882W        W38086   7.515   4.785  14.463 -0.0065 -0.1267 -0.2470
19883W        W38087   8.593   3.962  14.730 -0.0032  0.2420 -0.2002
19884W        W38088   7.361   9.635   2.285 -0.1938  0.0378 -0.0372
19885W        W38089   9.280  14.163   1.466  0.0899  0.1745  0.2872
19886W        W38090   9.610   5.755   4.135 -0.1836  0.1444 -0.0625
19887W        W38091   0.012   1.161  14.425  0.1618 -0.0674 -0.0609
19888W        W38092  12.813  14.137  13.472  0.2952  0.3482  0.0190
19889W        W38093  14.210  10.983  15.498 -0.1542  0.1873 -0.0098
19890W        W38094  11.628  15.902  13.822  0.4363  0.0360  0.1330
19891W        W38095  14.707   1.266   1.641  0.1108  0.1656 -0.1137
19892W        W38096   9.484   6.345  14.416 -0.3515  0.1423  0.0887
19893W        W38097   8.793  12.265   1.443  0.0264  0.1826  0.1705
19894W        W38098   2.711  15.191  14.219 -0.0599 -0.2074  0.3207
19895W        W38099   6.307   2.619   0.604  0.0542 -0.3030 -0.0492
19896W        W38100  16.730  16.393  13.458 -0.0655  0.3261  0.1811
19897W        W38101  10.060   7.759  13.765  0.0332  0.1684 -0.0256
19898W        W38102   0.895  11.790  17.405  0.1520 -0.2228 -0.5193
19899W        W38103  13.897  15.876  16.415 -0.0341 -0.1185  0.0349
19900W        W38104   4.905   7.302   5.028 -0.0432 -0.4237  0.0024
19901W        W38105   6.026   9.472  13.379  0.1550  0.0199 -0.0135
19902W        W38106  12.177   0.226  13.166 -0.2878 -0.1945  0.0296
19903W        W38107  11.073   2.299  15.672 -0.3849 -0.2819 -0.1147
19904W        W38108  10.525   3.110  15.107  0.2754  0.0476 -0.1309
19905W        W38109   4.592   5.558  15.617  0.1335  0.1529  0.4424
19906W        W38110   2.427  10.174   3.215  0.2952  0.0176 -0.0224
19907W        W38111   1.260  10.297   3.969 -0.0608 -0.1633  0.2681
19908W        W38112  13.010   7.184   1.527 -0.0591  0.1855  0.0780
19909W        W38113  10.469  16.241   4.836  0.1249 -0.1295  0.2064
19910W        W38114  12.571   5.722   0.402  0.1816  0.1540 -0.2320
19911W        W38115   6.941  13.701   3.108  0.0900 -0.3724  0.1689
19912W        W38116  12.984   9.780   4.216  0.1165  0.1040  0.1450
19913W        W38117   0.127   4.770  15.015  0.0181  0.0482  0.2697
19914W        W38118   8.211   7.387  16.785  0.1459 -0.3338 -0.0338
19915W        W38119  13.612  12.884  12.303  0.0623  0.2782  0.0224
19916W        W38120   9.884   4.901  15.182  0.0961  0.2499  0.1428
19917W        W38121   2.027   3.967  14.801 -0.1298  0.1417 -0.3144
19918W        W38122   5.318   2.862  16.811 -0.2620 -0.1266  0.0060
19919W        W38123   9.990  16.694  15.614 -0.0720 -0.0801  0.1187
19920W        W38124  13.562   2.982   4.166  0.0034  0.0113  0.0654
19921W        W38125  10.438  15.591  16.109  0.2515  0.0383  0.0267
19922W        W38126   8.956  10.011  16.451 -0.2511  0.0299  0.3121
19923W        W38127  11.201   9.126  14.210  0.0758  0.3409  0.2534
19924W        W38128   7.192  11.605   1.330 -0.2834  0.0595  0.0757
19925W        W38129   5.992   8.805  16.391 -0.4469 -0.3182  0.2528
19926W        W38130   0.448   3.002   0.169  0.0488 -0.0236  0.2319
19927W        W38131  10.436  11.340  14.179  0.1828 -0.2217 -0.0341
19928W        W38132   1.147  13.219   5.409  0.0985  0.3626  0.5253
19929W        W38133   9.323   2.272  16.721  0.1464 -0.1059  0.1429
19930W        W38134   7.867   3.667  17.361 -0.0103  0.0717 -0.4114
19931W        W38135   5.623  12.025   2.015  0.1032  0.1138  0.1939
19932W        W38136  10.337  14.896   0.714  0.1523  0.2047  0.4666
19933W        W38137   2.256   9.338  12.541  0.2201  0.1233  0.1415
19934W        W38138   4.791  10.159   4.281  0.0025 -0.1168  0.0309
19935W        W38139   4.639   9.184  11.013  0.2758 -0.1131 -0.3479
19936W        W38140   3.893  15.189  16.607  0.1018  0.1743  0.0885
19937W        W38141   5.654  12.100   2.537  0.1061 -0.0330 -0.0966
19938W        W38142   6.830   5.384   3.149  0.1374 -0.1519  0.1784
19939W        W38143  13.161  14.060  12.475 -0.0529 -0.0621  0.0269
19940W        W38144  15.533  10.529   4.855  0.1523  0.1480 -0.3222
19941W        W38145   0.609   3.568  15.135 -0.0160 -0.3179 -0.0641
19942W        W38146   2.258   9.388   4.771 -0.1548  0.0209  0.0775
19943W        W38147  13.481  10.573  16.116 -0.0575  0.1919  0.0032
19944W        W38148  12.311   0.602   1.262  0.3545 -0.0327  0.0086
19945W        W38149   5.425  10.774   0.239 -0.0763  0.0010 -0.1204
19946W        W38150  14.722   2.696  15.853 -0.0389  0.0140 -0.2795
19947W        W38151   6.231   8.466  12.191  0.1579 -0.2253 -0.0061
19948W        W38152   1.975  14.481  14.170  0.1060 -0.1084  0.1401
19949W        W38153  16.409   3.637   4.000 -0.0531 -0.1016 -0.0493
19950W        W38154   6.419   6.711   2.126 -0.1907  0.1819  0.1185
19951W        W38155   8.318   8.652  16.456 -0.0319  0.0168  0.2242
19952W        W38156  16.877  16.414  14.421  0.0475  0.2784  0.1099
19953W        W38157   5.028   0.068   0.867 -0.1334 -0.0995  0.0671
19954W        W38158  14.842  14.483  12.807 -0.2751  0.0658 -0.0353
19955W        W38159  16.406   2.323  14.327  0.1774 -0.0667 -0.1968
19956W        W38160   6.067   3.840   5.605  0.0303 -0.1110 -0.0819
19957W        W38161  17.124   5.644   3.253 -0.1003  0.1112  0.0511
19958W        W38162  11.201  17.009  17.017  0.0334 -0.3248  0.0662
19959W        W38163   2.322   4.250  12.550  0.2159  0.0346  0.0323
19960W        W38164   9.640   6.473  11.291 -0.1763 -0.1736  0.0432
19961W        W38165  10.337  10.401  14.620  0.1908 -0.0370 -0.0228
19962W        W38166   0.560  14.425   1.251 -0.0349  0.3292 -0.0049
19963W        W38167   4.815   5.675   3.792 -0.1630  0.0405 -0.0193
19964W        W38168  11.374  15.287   2.696  0.3495  0.1821  0.2685
19965W        W38169   1.366  14.118   1.168 -0.1285  0.0405 -0.1233
19966W        W38170  11.872   9.133   3.107  0.1199 -0.2765  0.0153
19967W        W38171   2.204   1.060  12.808 -0.0797 -0.0461  0.0580
19968W        W38172   7.466   6.458  16.935  0.1931 -0.0293 -0.1260
19969W        W38173   2.056  13.739   3.099 -0.0849 -0.2167 -0.1426
19970W        W38174  17.058   3.021  15.780  0.0974  0.1370 -0.1993
19971W        W38175   3.960  12.794   4.899  0.0027 -0.0375 -0.1439
19972W        W38176   1.862  13.649  14.172  0.1921  0.2446  0.1412
19973W        W38177  14.109  11.696   1.325 -0.0487  0.0595 -0.3067
19974W        W38178   0.146   9.346  17.418  0.2029  0.1782 -0.0979
19975W        W38179  11.686   0.205  13.141 -0.1168 -0.2604 -0.0004
19976W        W38180  10.827   6.869   2.857 -0.0744 -0.0646  0.0952
19977W        W38181  12.445   6.108  13.782  0.1481 -0.0476 -0.1601
19978W        W38182  15.017   3.089  15.683  0.0895 -0.0057  0.1662
19979W        W38183   1.500   6.986   1.022 -0.1728 -0.1981  0.1100
19980W        W38184  16.862   7.683  17.514 -0.1976 -0.0474 -0.1337
19981W        W38185  13.113   2.442   0.777  0.4341  0.2557  0.3111
19982W        W38186  13.805   7.436   2.707  0.2745 -0.0353  0.1849
19983W        W38187   5.976  12.739   1.890 -0.0239 -0.1508 -0.1178
19984W        W38188   6.933   6.507   2.912  0.1301  0.1865 -0.1741
19985W        W38189   6.286   9.688   1.976  0.0580  0.3022 -0.0473
19986W        W38190  12.342   3.492  12.063 -0.1996 -0.0436  0.1406
19987W        W38191   6.905   6.070   2.613 -0.3496 -0.0269  0.2173
19988W        W38192  16.242   9.874  12.467 -0.2651 -0.1702  0.0226
19989W        W38193   8.452   2.195   3.839 -0.2538  0.0708 -0.0130
19990W        W38194   8.889  13.809   4.432 -0.1545 -0.0667 -0.1391
19991W        W38195   0.532   0.423  16.075  0.1169 -0.0087  0.1819
19992W        W38196   8.194   3.926  14.437  0.0269 -0.3922  0.0415
19993W        W38197   7.431   4.108   3.621 -0.0434 -0.2505  0.2558
19994W        W38198  10.463   5.366  14.271 -0.0904  0.2150 -0.3176
19995W        W38199   2.176   1.660   5.155  0.1288 -0.0274  0.0344
19996W        W38200   3.705  13.421  12.368  0.0738 -0.3755 -0.1413
19997W        W38201   6.144   4.027   2.788  0.0359  0.3033 -0.3233
19998W        W38202  11.045  11.442  15.162 -0.0880  0.0585 -0.2572
19999W        W38203   3.711   2.894   3.964  0.0366 -0.0549 -0.0353
20000W        W38204   0.368   3.120  15.351 -0.1577 -0.0306 -0.1516
20001W        W38205  10.750   2.178   2.966  0.2426 -0.2661 -0.0318
20002W        W38206  11.678  14.700   1.294  0.1148  0.1430  0.1166
20003W        W38207  15.335   2.834  14.917 -0.0175 -0.1765  0.2038
20004W        W38208   5.101  16.165   0.702  0.2009  0.2789  0.3223
20005W        W38209   6.395  17.078   4.334  0.0691 -0.2860 -0.0591
20006W        W38210  14.794  16.967  16.329 -0.1521 -0.0218  0.0429
20007W        W38211   7.276  10.253   4.169 -0.0951  0.0278  0.2800
20008W        W38212  14.141   5.168   0.355  0.1858  0.1860 -0.1509
20009W        W38213  17.299   2.502  14.107 -0.1200 -0.0262 -0.1097
20010W        W38214  15.777   5.429   2.822 -0.0337  0.2296  0.0771
20011W        W38215   2.581   2.446   1.981  0.0834  0.2827  0.0470
20012W        W38216   4.482  16.988   2.669 -0.1118 -0.0014  0.1072
20013W        W38217  11.149   7.992  14.975 -0.0504 -0.0597  0.0543
20014W        W38218  16.501   1.714   3.974  0.1640 -0.0900  0.1003
20015W        W38219  12.488   6.477  14.123  0.0356  0.0796 -0.0970
20016W        W38220  12.438  13.008  17.153 -0.2170  0.2445 -0.3832
20017W        W38221  14.153   4.397  13.717  0.1635 -0.2406  0.0482
20018W        W38222  10.943   9.680  13.870  0.1324  0.0051 -0.1947
20019W        W38223  15.238   1.452   5.136  0.1097 -0.0087  0.1709
20020W        W38224   3.672   6.531  17.474 -0.0544 -0.2220  0.0449
20021W        W38225   9.415   1.531   1.491 -0.1441  0.0034  0.0235
20022W        W38226   2.082  15.218   4.321 -0.1976  0.1210  0.0398
20023W        W38227  16.466   7.940   0.121 -0.0525 -0.1607  0.1882
20024W        W38228  11.494   0.893   3.561  0.1456  0.0854  0.0297
20025W        W38229   9.529  14.077  12.317 -0.1070 -0.1671 -0.0861
20026W        W38230  16.335   9.519  14.962 -0.1328 -0.2009  0.0744
20027W        W38231  10.904   0.783   4.211 -0.0190 -0.1515 -0.2507
20028W        W38232   7.371  15.741  15.765 -0.2614  0.1973  0.1038
20029W        W38233  13.402   1.155   3.875 -0.1976  0.1857 -0.0453
20030W        W38234  11.369  10.225  13.117  0.4277 -0.0335  0.1133
20031W        W38235   2.510  11.913   0.493 -0.1459 -0.0315  0.2776
20032W        W38236  14.767   0.884   0.406 -0.2430 -0.0807 -0.0810
20033W        W38237  15.568  17.264   3.088  0.3492  0.0509 -0.0365
20034W        W38238   1.239  11.734  15.320  0.1376  0.1904  0.1102
20035W        W38239   6.849  13.491  17.476  0.0336  0.2453 -0.1291
20036W        W38240   5.353  10.460   3.550  0.0797 -0.0089  0.3078
20037W        W38241  17.053   2.025  16.728 -0.0692 -0.2609  0.3354
20038W        W38242  16.096  16.166   2.933 -0.1505  0.2569 -0.2351
20039W        W38243   4.054   6.475  14.232  0.1726  0.1057  0.1687
20040W        W38244   8.887  13.973  16.772  0.0849  0.1300  0.1014
20041W        W38245   6.578  10.889  14.480 -0.0400 -0.0146  0.0061
20042W        W38246   0.755   7.358   3.390  0.0117  0.2231  0.0991
20043W        W38247  13.151  11.226  17.226  0.1647 -0.2258  0.1562
20044W        W38248  13.678   5.218  16.440  0.1103  0.0648 -0.0392
20045W        W38249  12.259   3.123   2.872 -0.0500  0.2344  0.2991
20046W        W38250  12.031   0.784  15.462 -0.0599 -0.0820  0.0148
20047W        W38251  14.249  13.322  11.955  0.1544  0.2098 -0.0925
20048W        W38252  13.373  14.322  15.127  0.2601 -0.1913  0.3064
20049W        W38253   9.532   0.156  15.505  0.1298 -0.1908  0.3282
20050W        W38254  10.469  10.891   4.324  0.1954 -0.2303  0.2595
20051W        W38255   4.951  15.256  14.114 -0.1339 -0.0539 -0.0702
20052W        W38256  10.417  10.052   3.000 -0.0023  0.1235 -0.0263
20053W        W38257   3.221   8.227  12.754  0.0600 -0.1507  0.1985
20054W        W38258   1.925   0.785  13.195 -0.1674  0.0701 -0.4578
20055W        W38259   5.006   1.683  15.798  0.3257 -0.1205  0.2099
20056W        W38260  14.700   7.689  12.289  0.0313  0.2357  0.0393
20057W        W38261   9.337   2.400   5.343  0.3428  0.3175  0.2794
20058W        W38262  16.855  10.095   1.774 -0.1071  0.2363  0.1293
20059W        W38263   7.809   4.446  15.187  0.2732 -0.0845  0.0040
20060W        W38264   4.386  10.547   1.424  0.0851  0.1862  0.0034
20061W        W38265   9.098   5.387   1.206  0.6719 -0.1733  0.0615
20062W        W38266   2.259   6.953  16.899 -0.1535 -0.0483 -0.0605
20063W        W38267   0.374  14.345  16.629 -0.1166 -0.0101 -0.1949
20064W        W38268   5.326   0.240  16.071  0.0688 -0.0367 -0.0137
20065W        W38269  15.020  14.728   5.688 -0.2295  0.0787  0.0038
20066W        W38270   6.153   1.224   4.862 -0.0547  0.0534 -0.0477
20067W        W38271  13.382   4.547  14.861 -0.3193  0.0719 -0.0821
20068W        W38272   0.724  13.918  16.516  0.0753  0.2015  0.0782
20069W        W38273   9.614   4.547  12.983  0.0211 -0.2606  0.2281
20070W        W38274   8.135   0.082   0.716 -0.1962  0.1109  0.1523
20071W        W38275  14.290  17.029  12.670  0.0493  0.2116 -0.1293
20072W        W38276   5.206   4.427   0.267 -0.2939  0.1386 -0.0679
20073W        W38277  16.439   7.305  17.010 -0.0178  0.1323  0.2491
20074W        W38278  14.512  13.160  12.928  0.0466  0.0932 -0.0390
20075W        W38279  13.013   3.424   3.684  0.1118 -0.0615 -0.1256
20076W        W38280   8.931  15.975   2.959 -0.3376  0.1417  0.1153
20077W        W38281  16.976  16.079   5.264  0.0693 -0.0577  0.2696
20078W        W38282  17.342  16.757  12.686  0.1417  0.2620  0.3935
20079W        W38283  10.607   2.960  13.317 -0.0686  0.1449  0.0688
20080W        W38284   9.237  16.356   2.284 -0.1319  0.0711  0.2063
20081W        W38285   6.784  14.505   3.532 -0.1799 -0.0462  0.1591
20082W        W38286  10.909   7.759   3.206 -0.0796 -0.1221 -0.3361
20083W        W38287   1.145   1.823   1.309 -0.0730 -0.0553  0.0104
20084W        W38288   9.768  15.056   0.525 -0.1033  0.2466  0.0934
20085W        W38289   8.261   1.489  15.769  0.1042  0.1995 -0.1056
20086W        W38290   7.238  16.416  15.140  0.2399 -0.1445 -0.1918
20087W        W38291   6.328  10.235   5.288  0.2032  0.2687 -0.3728
20088W        W38292  12.667  16.784   0.940  0.1860  0.1497  0.0946
20089W        W38293  12.021   3.300   5.417  0.0779  0.0594 -0.0850
20090W        W38294  16.857   5.428   1.408  0.0814  0.0122  0.1470
20091W        W38295  15.804   3.173   3.442  0.2317 -0.0720 -0.0544
20092W        W38296   6.595   6.949  16.980 -0.0972 -0.1612 -0.2015
20093W        W38297   8.174   6.662  16.082  0.3071 -0.0101 -0.0357
20094W        W38298  13.722  11.667  14.582  0.1785  0.3061 -0.0115
20095W        W38299  10.525   4.073  14.809 -0.0181 -0.4413  0.0906
20096W        W38300   1.650   2.958   4.770  0.0209 -0.2612 -0.1339
20097W        W38301  16.644   0.900   2.592 -0.2043  0.2395 -0.1828
20098W        W38302  13.963   9.147   0.806  0.2955  0.1436 -0.2102
20099W        W38303   7.094   4.165   5.276  0.3687 -0.1702 -0.6250
20100W        W38304   0.219  12.403   5.502  0.1861 -0.1028 -0.1504
20101W        W38305  10.588   1.545   3.994 -0.0541 -0.3156  0.0884
20102W        W38306   2.296   3.368  16.359  0.1849 -0.2520 -0.1077
20103W        W38307   4.493  14.647  13.656 -0.1318  0.0300  0.0873
20104W        W38308  12.930  15.985  17.047  0.1001 -0.2293  0.2740
20105W        W38309   7.948   1.136  15.455  0.3601  0.1345  0.0328
20106W        W38310   2.567   6.505   4.331 -0.0173 -0.1110 -0.1222
20107W        W38311  14.601  14.401  15.788 -0.0083 -0.1291  0.1462
20108W        W38312  16.614   8.504  16.025 -0.1739  0.2283 -0.0286
20109W        W38313  13.607  16.189  16.015  0.1319  0.1827 -0.3033
20110W        W38314   0.020   2.644  17.491 -0.0285 -0.2917  0.2385
20111W        W38315   8.740  15.992   1.351 -0.0200  0.5108 -0.1946
20112W        W38316  11.869  13.833   0.310  0.0998  0.0787 -0.1042
20113W        W38317   2.353  11.533   3.787 -0.0728 -0.1089 -0.0197
20114W        W38318  16.243   3.679   1.830 -0.1119 -0.1968 -0.1077
20115W        W38319   6.697  17.204  16.684 -0.0273  0.0674  0.1325
20116W        W38320  14.739   5.169   1.295 -0.2686  0.0507 -0.1442
20117W        W38321  14.797  12.020   4.578  0.0301  0.1433  0.2122
20118W        W38322  11.941  10.466  14.802  0.1546  0.0053  0.1137
20119W        W38323  10.670   8.189  15.142 -0.2612 -0.0650 -0.2365
20120W        W38324  10.521  16.836   4.828 -0.0252 -0.1454  0.1094
20121W        W38325   6.095  11.087  15.836  0.1279  0.0119  0.0028
20122W        W38326  14.877   0.865   2.428 -0.3557 -0.0042  0.1122
20123W        W38327   0.347  12.495  17.490 -0.1129 -0.0974 -0.0649
20124W        W38328   9.514  15.323  17.160 -0.1729 -0.1167 -0.0452
20125W        W38329   2.640  15.934   3.606 -0.0049  0.0383  0.1702
20126W        W38330  15.329  12.081   0.313 -0.0804 -0.3920 -0.0915
20127W        W38331  11.722  15.588   1.155 -0.2289  0.0291 -0.2416
20128W        W38332   1.085  10.868   2.832 -0.0362  0.2600 -0.3322
20129W        W38333  16.936  14.063  15.851  0.0411  0.1268 -0.2611
20130W        W38334   3.681   7.250  13.028  0.0468 -0.0594  0.3326
20131W        W38335  10.708   0.074  12.875 -0.1056  0.2127 -0.0416
20132W        W38336  13.761   5.300   3.308  0.5973 -0.2065 -0.1957
20133W        W38337  17.317  17.120  16.918  0.0967 -0.1014  0.0677
20134W        W38338  10.756  11.241   4.048 -0.0250 -0.0177  0.0987
20135W        W38339  12.090   9.428  16.536  0.2369 -0.1374 -0.0165
20136W        W38340   4.217  14.911  13.378 -0.1793  0.0022  0.1328
20137W        W38341   5.815   7.285  14.529 -0.0843  0.1954  0.1706
20138W        W38342   7.123   4.514  15.467  0.2637 -0.0700 -0.0612
20139W        W38343  15.183  12.619   3.026  0.2419 -0.3026 -0.0265
20140W        W38344  17.226  13.294   0.307 -0.2308  0.1613 -0.0026
20141W        W38345   9.389  16.447   0.500 -0.3082 -0.0330 -0.0067
20142W        W38346   5.866  10.492   2.362 -0.0847  0.0384  0.0156
20143W        W38347   7.283   8.273   0.916  0.2274 -0.4044 -0.2181
20144W        W38348   6.463   1.990  17.459 -0.1063  0.2317 -0.1036
20145W        W38349   7.176   6.379  15.933  0.1852  0.2142  0.2497
20146W        W38350  12.020  14.758  13.344 -0.1615 -0.1895  0.1794
20147W        W38351  11.277   1.259   4.792  0.2515 -0.1734  0.2602
20148W        W38352  15.047   0.115   1.739 -0.0403  0.0211 -0.3130
20149W        W38353   0.928  10.559  15.901 -0.0856  0.1699 -0.3606
20150W        W38354   0.803   2.236  14.556 -0.1332  0.2393 -0.1492
20151W        W38355  11.009  15.487   2.347  0.1832 -0.1700  0.1488
20152W        W38356  10.204   2.543  17.267  0.3387  0.3533  0.1805
20153W        W38357  12.829  16.891   3.964  0.0301 -0.2536 -0.0510
20154W        W38358   0.911  14.363  13.242  0.1325 -0.4168  0.1748
20155W        W38359  16.664  14.702  14.111  0.1691 -0.2231  0.0024
20156W        W38360  11.825   2.146  15.548  0.0870  0.3123 -0.3136
20157W        W38361   8.728  13.727  14.152 -0.4878 -0.3848 -0.0035
20158W        W38362   9.814   1.070  15.364  0.0524 -0.0793 -0.1123
20159W        W38363   1.669  14.384   5.132 -0.2400 -0.0844  0.1781
20160W        W38364  10.912   8.227  16.334  0.1137 -0.1719  0.0226
20161W        W38365   8.085   1.107  16.526 -0.1701  0.2413  0.1724
20162W        W38366   0.452   4.523  15.325 -0.1096 -0.0697  0.0760
20163W        W38367   0.822   4.126  13.461  0.0476  0.0155  0.0318
20164W        W38368  14.912   5.388  12.063 -0.2519  0.1609  0.0876
20165W        W38369   4.617   2.890  11.957  0.1702  0.1792 -0.1321
20166W        W38370   6.159   7.413  14.225  0.0220 -0.1261  0.1675
20167W        W38371   5.636   2.210   3.415 -0.0400  0.0194  0.0478
20168W        W38372   5.338   8.967   2.469 -0.2010 -0.2144  0.2076
20169W        W38373  10.644   2.293  15.327  0.0403 -0.0329  0.2274
20170W        W38374   2.465  14.943   3.537  0.1366  0.3240  0.2708
20171W        W38375   2.706  16.173   5.026 -0.0177 -0.0952  0.0085
20172W        W38376  11.818   6.001   5.327  0.0400  0.1004  0.0229
20173W        W38377   7.615  10.544   3.219 -0.0454  0.1654  0.0852
20174W        W38378   2.668   3.907   4.885  0.0376 -0.3893 -0.2638
20175W        W38379   6.444   2.764   1.956 -0.1164 -0.0615 -0.3921
20176W        W38380   4.504   8.231  14.318  0.0257 -0.2400 -0.2027
20177W        W38381   0.246  14.927   2.573  0.0776 -0.1679  0.0139
20178W        W38382  10.600   4.435  16.273  0.1993  0.0774  0.1173
20179W        W38383   8.868   6.348  14.200  0.1057  0.0045 -0.3362
20180W        W38384  12.408  10.895  17.388 -0.2216 -0.1154  0.0047
20181W        W38385  13.126   5.530   4.394 -0.0203  0.2757 -0.0635
20182W        W38386   3.898   6.282  13.805  0.0985  0.0668  0.1420
20183W        W38387  16.274  12.192  17.418 -0.0129  0.0903 -0.3047
20184W        W38388   3.751  13.514  17.387  0.1197  0.0206 -0.0074
20185W        W38389   1.951   1.809   2.127 -0.1673  0.1077  0.2902
20186W        W38390  12.310   9.257  15.362 -0.0384 -0.1595  0.2495
20187W        W38391   6.829  13.997  12.476  0.0623  0.0745 -0.2802
20188W        W38392   6.132  17.152  17.006 -0.0095  0.0544 -0.1154
20189W        W38393   6.546   8.100  15.932  0.3314 -0.4554  0.2525
20190W        W38394   6.245   5.447   3.700 -0.2278 -0.1054  0.3123
20191W        W38395   9.591  16.748  13.149  0.1342 -0.0975  0.1015
20192W        W38396   7.518  14.216  16.874  0.0862 -0.0060 -0.1662
20193W        W38397  16.339   0.211   3.796 -0.0535  0.1011  0.1746
20194W        W38398   2.958  13.182   1.189  0.1004 -0.0119  0.2795
20195W        W38399  16.007  15.963  16.488  0.0002  0.1761  0.1392
20196W        W38400  10.539  14.864   1.590 -0.0181  0.0960 -0.2222
20197W        W38401   7.767   4.270   0.545  0.1997 -0.0167 -0.0668
20198W        W38402   4.370   3.131   2.492 -0.0002 -0.1218  0.1229
20199W        W38403  12.681   0.395   6.647  0.1566 -0.2000  0.1176
20200W        W38404   7.386   2.553   0.275 -0.2868  0.3045  0.0434
20201W        W38405   4.599   6.163   1.173 -0.3459  0.1157 -0.0757
20202W        W38406  10.706  12.035   2.563 -0.0031 -0.0910  0.0096
20203W        W38407   2.502   4.105   1.417 -0.0476  0.3344 -0.3554
20204W        W38408   1.325   8.503  17.463 -0.2795  0.1310  0.0811
20205W        W38409  12.100   9.994  14.750 -0.2525  0.2427  0.0319
20206W        W38410   2.429   6.266  13.827 -0.0533  0.0527  0.1679
20207W        W38411   3.649  10.583  16.339 -0.4750 -0.2696  0.0764
20208W        W38412   0.491   5.216  11.402  0.3593  0.2861  0.2774
20209W        W38413  12.119   7.408  16.707 -0.1568  0.1264  0.1515
20210W        W38414  16.504  12.440   3.313 -0.2680  0.1393 -0.1641
20211W        W38415  11.121  17.043   2.562  0.0748 -0.0096  0.2481
20212W        W38416   1.676  10.361  15.084  0.1011  0.1508 -0.1076
20213W        W38417   0.628  13.884   3.370 -0.0310 -0.3315  0.1301
20214W        W38418  10.757   9.095  12.841  0.1104  0.2984  0.1810
20215W        W38419   2.947  14.868   4.701  0.0920 -0.0326 -0.0682
20216W        W38420  16.073   6.920  16.946  0.0799 -0.2027 -0.0257
20217W        W38421  10.438   4.613   2.858  0.0426  0.2159 -0.0983
20218W        W38422  15.153   6.236  16.910 -0.0436  0.0106  0.3109
20219W        W38423   6.164  16.591  17.117  0.0135 -0.0848 -0.0352
20220W        W38424   5.553  12.205   0.222  0.2909 -0.2160  0.4177
20221W        W38425   8.756   5.180  14.578 -0.2555 -0.1365  0.1504
20222W        W38426  14.080   7.302   3.417 -0.0837 -0.1680 -0.0928
20223W        W38427   8.388   9.338  16.706  0.1790  0.0572  0.0673
20224W        W38428  15.341   1.921   3.600  0.2350  0.0749 -0.3739
20225W        W38429   1.931   7.898   4.421  0.2998 -0.1666 -0.1530
20226W        W38430  13.135  12.658  17.531 -0.0662  0.0486  0.2323
20227W        W38431  15.658   5.493   0.984  0.2444  0.1015 -0.0340
20228W        W38432  16.168   0.909   2.904  0.0697  0.1533  0.0168
20229W        W38433  13.165   1.857   5.519 -0.1474  0.0044  0.0540
20230W        W38434   5.081   8.250   0.241  0.1961  0.0915 -0.0272
20231W        W38435   3.066   8.048  13.736  0.0441 -0.0239 -0.2409
20232W        W38436   1.725  12.893   3.931 -0.1409 -0.4411 -0.1534
20233W        W38437  16.888   7.069  17.506 -0.2507 -0.0938  0.0362
20234W        W38438  10.175  16.187  14.344 -0.0291  0.0124 -0.0296
20235W        W38439  14.861   7.113  16.517  0.4738 -0.1691  0.0183
20236W        W38440   6.811   7.662  17.496  0.0515  0.2615 -0.2093
20237W        W38441   3.238  14.163   4.161 -0.0611  0.1507 -0.2068
20238W        W38442  12.006  16.365   5.307  0.0194  0.1541  0.0328
20239W        W38443   1.764  16.481  12.462  0.1000  0.0380  0.1660
20240W        W38444  10.143  12.017  17.441  0.2653  0.0006  0.1165
20241W        W38445   7.584   9.552  17.201 -0.0193 -0.1257 -0.1283
20242W        W38446   4.658   9.007   0.916 -0.2449  0.2665  0.3856
20243W        W38447  12.748   4.092  16.175  0.3060  0.3614  0.0629
20244W        W38448   0.098   4.819  12.659 -0.1988 -0.2577 -0.1671
20245W        W38449   8.416  16.734   4.063 -0.0832  0.2020  0.1790
20246W        W38450   4.970  13.181   2.452 -0.4123  0.1909  0.1965
20247W        W38451   0.635   7.923  12.385  0.0309 -0.0685  0.1207
20248W        W38452   8.652   2.132  17.219 -0.1123  0.0102 -0.0629
20249W        W38453   8.382   0.890   3.988  0.0304 -0.3989 -0.0931
20250W        W38454   9.828  15.661  17.065 -0.1511  0.1438  0.0731
20251W        W38455   5.233   8.658   3.889  0.1341  0.0990 -0.3100
20252W        W38456  10.447  10.517   3.939 -0.0380 -0.1366  0.1350
20253W        W38457   9.897   2.052  12.283 -0.1090 -0.3499  0.0773
20254W        W38458   1.425   0.261   1.646  0.0606 -0.4748  0.0002
20255W        W38459   5.331  14.758   4.701  0.1508 -0.0866 -0.1702
20256W        W38460   6.819   8.466  17.065  0.0183  0.0161  0.0394
20257W        W38461   0.823  15.644   2.532  0.0805  0.0560  0.0872
20258W        W38462   1.622  12.026  16.087  0.1713  0.1514 -0.1355
20259W        W38463   0.053  14.369  12.710  0.0115 -0.0746  0.0357
20260W        W38464  16.657  13.573   3.241  0.1115  0.2969  0.1006
20261W        W38465  13.071  13.633   3.238  0.1154  0.1234  0.1111
20262W        W38466  14.390   2.529   1.132 -0.1067  0.3815  0.1637
20263W        W38467  15.974  10.074  12.964  0.1048  0.1856  0.1306
20264W        W38468   0.641   8.713   4.356  0.1323 -0.0640  0.1129
20265W        W38469  14.960   7.639  17.195 -0.2058 -0.0351 -0.0389
20266W        W38470  14.440   7.672   3.465  0.0676 -0.0667  0.2535
20267W        W38471   2.973  17.065   0.980 -0.1721  0.1092 -0.2015
20268W        W38472   1.092   9.202  17.262 -0.2235  0.0292 -0.0080
20269W        W38473   7.843   8.763  12.737  0.0434  0.1655 -0.2815
20270W        W38474   5.765   3.209   2.562  0.2930 -0.3144  0.0982
20271W        W38475   8.270  14.607  14.013  0.0532  0.3054 -0.3034
20272W        W38476  10.227  15.843   4.919 -0.1679  0.0303  0.0470
20273W        W38477   7.804   4.190   5.996  0.0739  0.2113  0.0059
20274W        W38478  11.861   1.018   4.285 -0.0521 -0.0270 -0.0562
20275W        W38479   0.976  16.285   4.880  0.2102  0.1185  0.3843
20276W        W38480  10.894  13.140  14.665 -0.0548 -0.0307  0.1960
20277W        W38481   0.760  12.508   4.323 -0.0166 -0.0617 -0.2704
20278W        W38482  15.856   7.230  15.022 -0.3940 -0.2187 -0.4731
20279W        W38483  10.182   9.179   4.417  0.2433  0.1196 -0.1245
20280W        W38484   1.267  13.445   2.731  0.2741 -0.0756  0.1540
20281W        W38485   0.242   1.835  13.938 -0.1524 -0.5600  0.2074
20282W        W38486   6.485   0.908   1.549  0.1101 -0.1655  0.0251
20283W        W38487   0.905   1.070  17.069  0.2006  0.3218 -0.1368
20284W        W38488   8.108  16.428  17.144 -0.0519  0.0170 -0.4659
20285W        W38489   1.018   3.180  12.552 -0.1075 -0.0579  0.0965
20286W        W38490   9.975   1.714  14.970 -0.2441  0.0922 -0.2831
20287W        W38491   6.728  12.988  12.971 -0.4114  0.2655  0.0373
20288W        W38492   0.572   7.459  16.891 -0.6536 -0.2918  0.0589
20289W        W38493  13.807  12.232  15.819 -0.1121  0.0078 -0.1460
20290W        W38494  11.657   4.409   2.889 -0.1294 -0.1489 -0.2612
20291W        W38495  10.293  13.409   1.961  0.1840 -0.1882 -0.1068
20292W        W38496   9.171  15.933  15.514 -0.0629 -0.0715  0.0531
20293W        W38497  16.980   6.378  16.270 -0.2146  0.2943  0.1412
20294W        W38498   2.275   4.667   0.585 -0.0630 -0.0814 -0.5470
20295W        W38499  12.007   2.851  13.532 -0.1653  0.4981 -0.2803
20296W        W38500  17.028   3.516  12.629 -0.2888 -0.1622 -0.0496
20297W        W38501   6.972  10.077  12.669 -0.2922  0.1196 -0.2117
20298W        W38502  16.199   2.200   2.748 -0.3052 -0.1459 -0.0455
20299W        W38503  12.839   3.192  14.731 -0.0804 -0.3048  0.0689
20300W        W38504  15.764   3.940  12.204 -0.1022  0.0045  0.2572
20301W        W38505  14.327   0.764  13.962 -0.2562  0.1003 -0.1605
20302W        W38506   4.757   9.288  16.280 -0.2584  0.2307 -0.0315
20303W        W38507   5.698  16.975  13.172 -0.2424  0.2270 -0.0127
20304W        W38508  11.196   0.024   1.274  0.1507  0.1367  0.0418
20305W        W38509  11.499   0.786  13.251  0.2615  0.1828  0.0600
20306W        W38510  16.771  16.522  15.368  0.2940  0.2399  0.0055
20307W        W38511  15.314   7.442   2.095  0.1523 -0.0579 -0.1537
20308W        W38512   2.745   6.021  14.854  0.0415  0.1233  0.0318
20309W        W38513   0.735  11.047  14.046  0.1300  0.0004  0.1526
20310W        W38514   7.056   8.858   4.438  0.1615 -0.1607  0.1575
20311W        W38515   9.737   0.113   4.692  0.1021 -0.2099 -0.1623
20312W        W38516  14.878   5.426  13.389  0.0519 -0.2026  0.0539
20313W        W38517   2.206  11.989  14.330  0.0533 -0.0330 -0.1468
20314W        W38518   8.993  15.914  13.219 -0.1261  0.0000  0.1342
20315W        W38519  13.525  15.490   2.183 -0.1746  0.4135  0.0172
20316W        W38520   1.222  16.833   0.661  0.3327  0.0599 -0.1685
20317W        W38521  13.616   5.419  14.873 -0.2501 -0.0229 -0.1214
20318W        W38522   8.499   4.992   2.014  0.1013 -0.1015 -0.1007
20319W        W38523   1.524  11.012   1.434 -0.2345 -0.1115  0.0450
20320W        W38524   3.437  10.610   0.980  0.3192  0.0753  0.2025
20321W        W38525  17.286  11.408  15.070  0.0952 -0.1989 -0.0756
20322W        W38526   2.433   0.172  16.170  0.0179 -0.0464  0.1111
20323W        W38527   1.445   3.914  13.030  0.1173  0.2324 -0.0724
20324W        W38528   7.994  12.329  15.229  0.1265 -0.1357 -0.1493
20325W        W38529  14.811  11.347   0.767 -0.3259  0.3058 -0.0021
20326W        W38530  10.711  16.164  14.247  0.2670  0.1546  0.0905
20327W        W38531   3.179  14.663  16.042  0.1349 -0.1649 -0.3239
20328W        W38532   8.559   6.745  14.153 -0.0090 -0.0711  0.1316
20329W        W38533   7.812   0.446   1.543 -0.1790  0.2349 -0.1698
20330W        W38534  11.148  11.015  17.293  0.2433  0.0294  0.1548
20331W        W38535  17.114   3.320  12.175 -0.3692 -0.2959  0.1971
20332W        W38536  14.988   7.300   4.997 -0.2699 -0.0213  0.0527
20333W        W38537   6.895   5.989   1.052  0.3082 -0.1616 -0.1461
20334W        W38538   5.165  14.522   0.306 -0.0464 -0.0606 -0.1728
20335W        W38539   9.901  13.719   0.567  0.2276 -0.2092  0.0898
20336W        W38540   7.907  16.781  16.837 -0.2813 -0.0941 -0.2850
20337W        W38541   4.327  12.936  13.832  0.1094 -0.2833 -0.1868
20338W        W38542  16.728   1.765  12.975 -0.1471 -0.0466 -0.0137
20339W        W38543   2.195   8.017  15.804  0.2030  0.1197  0.1075
20340W        W38544   5.806   1.624  14.999  0.1220 -0.0327  0.1352
20341W        W38545  11.113   5.727  12.794  0.2848 -0.0568  0.3873
20342W        W38546  13.085   4.121  17.136  0.1591 -0.0662  0.2376
20343W        W38547   2.560   0.162  16.622 -0.0368 -0.1614 -0.0166
20344W        W38548  13.343   8.007  13.779 -0.1795 -0.2622 -0.0550
20345W        W38549  13.984   7.783   1.841 -0.1880  0.0418 -0.0588
20346W        W38550   2.877  16.910   4.402  0.0267 -0.1152 -0.0261
20347W        W38551  13.347   4.125   6.703  0.1065 -0.0925  0.2550
20348W        W38552   2.906   1.186  16.039  0.2685  0.0676 -0.0439
20349W        W38553  16.624   7.243   5.884 -0.2202 -0.3512  0.0362
20350W        W38554   8.349  15.602   4.866 -0.3367 -0.0556  0.1020
20351W        W38555   0.312  13.045   3.866  0.1494  0.0667 -0.1482
20352W        W38556  15.647  12.196   2.544 -0.1887  0.3958 -0.0577
20353W        W38557  14.280   4.334   0.835 -0.3752  0.1114 -0.0444
20354W        W38558  16.569  14.277   5.764 -0.0375 -0.1193 -0.1066
20355W        W38559  14.859  17.074  13.382  0.0012  0.0400  0.0563
20356W        W38560  11.861  11.420   4.360 -0.4609 -0.0420  0.2545
20357W        W38561   2.928  11.433  14.685 -0.2491 -0.4102  0.0777
20358W        W38562   9.388  11.216   3.436 -0.2918 -0.0909 -0.1936
20359W        W38563   7.838  14.921  12.602  0.0437 -0.3469 -0.2466
20360W        W38564   9.569  10.071   1.935 -0.2031  0.0852  0.0258
20361W        W38565   1.673   1.324  14.928  0.1378 -0.1407  0.0022
20362W        W38566  12.383   9.504  13.148  0.0122 -0.1297  0.1196
20363W        W38567   0.088   8.453   5.812  0.3189  0.0250  0.1255
20364W        W38568   0.956  15.599  13.100  0.2045  0.1365 -0.0196
20365W        W38569  14.767   9.393  15.758  0.1739 -0.3450 -0.1081
20366W        W38570  12.628  16.480  16.723 -0.3079  0.2298  0.0238
20367W        W38571  10.185  11.531  15.986  0.3097 -0.0368 -0.2213
20368W        W38572   5.637   2.595  16.577 -0.1008  0.2593 -0.0160
20369W        W38573   5.308  12.315  14.504  0.0954  0.0325 -0.1743
20370W        W38574   4.597   9.238   5.494  0.0548  0.2458  0.1355
20371W        W38575   9.933  13.228  14.621  0.0669 -0.3063  0.2087
20372W        W38576   0.781   2.119  16.960  0.0466 -0.2214 -0.2410
20373W        W38577   3.671   7.997   1.650 -0.0913  0.1798  0.0457
20374W        W38578  11.033  14.976   3.718  0.1050 -0.1755  0.1368
20375W        W38579  10.672   2.393   2.393 -0.2828 -0.1607 -0.4068
20376W        W38580   0.912  16.372   1.806 -0.0709  0.0971  0.0097
20377W        W38581  15.203  13.211  15.293  0.2092  0.0682  0.0849
20378W        W38582  16.900   9.609   3.336  0.1123 -0.3082 -0.0548
20379W        W38583   7.620  16.164  17.256  0.3366  0.0803  0.0246
20380W        W38584  16.367  12.180   3.751 -0.0847  0.3817  0.3375
20381W        W38585  13.142  14.880  15.144  0.1564  0.0029 -0.0242
20382W        W38586  13.133   6.985   3.559 -0.3068 -0.1680  0.2193
20383W        W38587  12.035   3.182  13.059  0.0223  0.0477  0.1017
20384W        W38588  11.975  13.412  13.313 -0.0436  0.0582 -0.3376
20385W        W38589   7.297   4.933   4.837 -0.2143  0.1901  0.1391
20386W        W38590   3.838  10.105   4.316 -0.1314 -0.1677 -0.2752
20387W        W38591   8.828  15.746  15.193 -0.3866 -0.1799 -0.1144
20388W        W38592   3.195   2.766   3.905  0.0032 -0.3471 -0.0037
20389W        W38593  10.091  11.824  16.491  0.0248  0.3120 -0.2102
20390W        W38594   9.699  15.260   1.886  0.1103  0.2147 -0.1378
20391W        W38595   3.552   1.160   3.357  0.1521 -0.0625  0.0288
20392W        W38596  14.474   0.353   1.597 -0.0388 -0.0260 -0.0834
20393W        W38597  12.382   2.377   1.157  0.0623 -0.1562 -0.0775
20394W        W38598   8.328  15.423  13.621 -0.1284 -0.1539 -0.0249
20395W        W38599  10.001  15.980  13.193 -0.1188 -0.0801  0.1197
20396W        W38600  11.862   9.371   1.298 -0.1120  0.1571 -0.0644
20397W        W38601   7.626  13.331  14.694 -0.1184 -0.2566 -0.1481
20398W        W38602  14.400   5.828  12.803 -0.1977  0.0617 -0.0813
20399W        W38603   2.573  16.858  17.501  0.0464  0.4249 -0.2604
20400W        W38604  14.890  12.985  17.374  0.3686 -0.1175  0.0397
20401W        W38605  14.420  11.778  16.949  0.1732 -0.0691  0.2414
20402W        W38606   9.971   8.120  14.594  0.4273  0.3297  0.1479
20403W        W38607   8.083  13.081  16.492 -0.2243  0.0906 -0.0369
20404W        W38608   2.113   3.824  16.274 -0.0219 -0.0877  0.1255
20405W        W38609   5.270  12.833   1.455 -0.0449 -0.2327  0.2186
20406W        W38610   3.368  12.565   4.939 -0.1517 -0.0973 -0.1652
20407W        W38611   4.162  11.325  15.920 -0.1811 -0.0823 -0.1172
20408W        W38612  14.350   8.079   5.179  0.1040 -0.1144 -0.5712
20409W        W38613  12.483  12.284  16.400  0.3506 -0.0417  0.4097
20410W        W38614   7.009  15.447   3.838 -0.0795  0.1967 -0.1680
20411W        W38615  13.547   1.321   2.657  0.5239  0.1715 -0.1214
20412W        W38616   6.961  13.799   4.960  0.1392 -0.1445 -0.3288
20413W        W38617  14.506   6.872   0.238  0.1708  0.2772 -0.0236
20414W        W38618   0.201  15.322  13.480  0.1857  0.3902 -0.0993
20415W        W38619  16.261   4.130  16.925 -0.0771  0.2499  0.0386
20416W        W38620   7.507  12.890  14.863 -0.0231 -0.2168  0.1256
20417W        W38621   4.826   4.386  11.228  0.1738  0.0647 -0.3241
20418W        W38622   5.220   6.480   4.903  0.0841 -0.0702  0.1806
20419W        W38623  10.209   4.175  16.551 -0.1515  0.0234  0.1837
20420W        W38624   5.958   6.565   3.604 -0.0944  0.1116 -0.0612
20421W        W38625  11.114  16.454   3.258 -0.1191  0.3368 -0.0576
20422W        W38626   1.577   6.685  13.768  0.0757  0.2450 -0.1939
20423W        W38627   1.791   0.448  13.575  0.3023 -0.0413 -0.0568
20424W        W38628  16.410   0.817  16.779 -0.0328 -0.1013 -0.3175
20425W        W38629   8.684   8.893   4.458  0.1461  0.2186  0.0494
20426W        W38630   6.857  17.184  11.524 -0.0193 -0.1422 -0.3038
20427W        W38631   3.144   3.856   1.384  0.0544  0.0398 -0.0029
20428W        W38632  16.191   3.606  15.866  0.1016  0.0550 -0.2562
20429W        W38633  11.049   6.171   5.768 -0.1603  0.0750 -0.0311
20430W        W38634  16.649   5.420  16.693  0.0627  0.0191  0.0475
20431W        W38635   9.897  16.551  17.171  0.0368  0.1396 -0.1542
20432W        W38636  10.081  10.100  13.617 -0.2691 -0.3454  0.0605
20433W        W38637   2.500   3.975  13.399 -0.2977 -0.0374  0.1566
20434W        W38638   2.159  15.346  16.049  0.2933  0.0772  0.0763
20435W        W38639  17.066   5.644   1.811 -0.2558  0.1105  0.1583
20436W        W38640   3.781   9.625  16.190  0.2251  0.0123  0.0559
20437W        W38641   0.883  10.887   0.936 -0.0702  0.2602 -0.2984
20438W        W38642  14.844  14.608  14.522 -0.0989 -0.0467  0.0172
20439W        W38643  16.977   7.078   1.904  0.2035  0.0351 -0.2162
20440W        W38644   2.166   2.605  15.581  0.0497 -0.0035  0.0702
20441W        W38645   2.618  12.351  14.007 -0.1206 -0.2084 -0.0426
20442W        W38646   4.491  15.709   0.855  0.1131 -0.1174 -0.1740
20443W        W38647   1.421  10.038  13.738 -0.0488  0.0900  0.1642
20444W        W38648  14.749   2.182   3.128  0.0018  0.0183 -0.1405
20445W        W38649   8.595   6.909  15.923  0.3135  0.0666 -0.0287
20446W        W38650  16.074  15.899  14.174 -0.2468 -0.2200  0.0447
20447W        W38651  16.708  16.169   0.333  0.0137 -0.0230 -0.2293
20448W        W38652   7.133   2.458   0.996 -0.1077 -0.0004  0.1332
20449W        W38653   0.344   9.827   4.654  0.0505 -0.1542  0.4047
20450W        W38654  14.863  15.571  15.189 -0.1048 -0.4182 -0.1164
20451W        W38655   3.026   7.232   1.583  0.2560  0.1640 -0.0921
20452W        W38656   3.532  15.076  16.268 -0.2338 -0.0581  0.2525
20453W        W38657  14.041   6.306   2.996  0.0913 -0.1630 -0.1625
20454W        W38658   2.935   7.575  15.900  0.1423 -0.1346 -0.0724
20455W        W38659   8.347   0.099   4.447  0.1470  0.2129 -0.1982
20456W        W38660   4.688   4.747   0.618  0.0666 -0.0989  0.0280
20457W        W38661   5.856  16.145   1.998  0.0237  0.0014 -0.4194
20458W        W38662   3.243  16.161  14.768  0.1049 -0.0640  0.0653
20459W        W38663   0.891  13.869  13.405 -0.2608  0.0035  0.1579
20460W        W38664  10.589   0.477  17.163  0.1773  0.0439 -0.0645
20461W        W38665  16.248  17.085  13.317 -0.3146  0.0894  0.1044
20462W        W38666   8.899   0.880   4.008  0.1370  0.0279 -0.1963
20463W        W38667  13.667   5.845  13.315  0.1369 -0.0418  0.0314
20464W        W38668  12.984   5.750  16.501  0.0943  0.3079  0.0841
20465W        W38669   2.580  12.687  14.910  0.0956  0.2093 -0.0158
20466W        W38670   4.536  10.965   1.683  0.0643 -0.0655  0.3299
20467W        W38671  10.602   2.948   2.399 -0.0087 -0.3565 -0.1393
20468W        W38672   0.968   1.256   2.220  0.0472  0.2536 -0.4183
20469W        W38673   8.644   1.481  13.428 -0.2098  0.0830  0.4547
20470W        W38674   1.481   5.819   4.093  0.0811  0.2067  0.3065
20471W        W38675   6.756   2.496   1.645  0.2573  0.0909  0.1865
20472W        W38676   1.439  13.276  16.104  0.1043 -0.1272  0.2355
20473W        W38677  11.938  16.103   2.551 -0.0657  0.1509 -0.1296
20474W        W38678   3.106   1.320  15.581 -0.0732  0.2873  0.3142
20475W        W38679   3.730   0.986   4.949 -0.2624  0.0631 -0.3600
20476W        W38680  17.205   1.424   5.784 -0.0128  0.1995  0.0551
20477W        W38681   9.192   5.000   1.983  0.0210 -0.0417  0.3007
20478W        W38682   5.981  13.245   1.060 -0.2702  0.0806 -0.1323
20479W        W38683  15.594   7.680   2.777  0.0140 -0.5603  0.0959
20480W        W38684  12.646   3.164  15.216  0.0959 -0.1898  0.1200
20481W        W38685   5.781  15.364   0.360  0.0162 -0.0616  0.1233
20482W        W38686   0.079  11.766  16.874  0.1865  0.0631 -0.2024
20483W        W38687  12.102   9.606  16.992 -0.0448  0.0929  0.0026
20484W        W38688   0.998  15.315   3.453  0.1570 -0.0203  0.4216
20485W        W38689  13.968   2.093  16.761  0.3868  0.0706 -0.2237
20486W        W38690  10.990   1.690   3.670 -0.0150  0.1059 -0.0550
20487W        W38691  16.235   6.909  12.549  0.1238  0.1021 -0.2202
20488W        W38692   3.118   4.574  14.655 -0.1784 -0.0976  0.2083
20489W        W38693  15.048  11.325  17.335 -0.3111  0.1297 -0.0110
20490W        W38694   6.560  14.304  13.319 -0.0658  0.3800 -0.0358
20491W        W38695   7.636   6.539  15.989  0.1601  0.3470  0.0438
20492W        W38696   5.503   3.113   0.387 -0.0681 -0.0495  0.0537
20493W        W38697  10.347   9.398   2.697  0.2170 -0.3287 -0.0869
20494W        W38698  12.104  17.131   1.017  0.0690  0.0135 -0.0141
20495W        W38699  11.280   4.195  13.363  0.1221 -0.2874  0.2073
20496W        W38700   9.404   4.660  13.500  0.2152 -0.0801 -0.2503
20497W        W38701   7.526   4.900   3.181 -0.2583  0.0410  0.2782
20498W        W38702  13.934   1.469  16.995  0.0408 -0.2432  0.0235
20499W        W38703   8.367   1.912  13.271  0.1299 -0.4195 -0.1044
20500W        W38704   8.882  16.259   5.108  0.0079 -0.1955 -0.2403
20501W        W38705  14.850   0.320   4.824  0.0630 -0.1856  0.1224
20502W        W38706  13.232  13.539  17.242 -0.2555  0.0183 -0.0830
20503W        W38707   5.881  16.472   4.263  0.3465  0.2587  0.2820
20504W        W38708   7.653  16.706   1.554 -0.1877 -0.0566 -0.0000
20505W        W38709   4.549   5.550   3.063  0.4371 -0.2469  0.1288
20506W        W38710  13.336   2.343   5.941 -0.0727 -0.4940  0.1508
20507W        W38711   0.542  13.920   2.846  0.0953 -0.0625 -0.1667
20508W        W38712  16.055   8.831  12.534 -0.0471 -0.0295  0.3117
20509W        W38713   0.043   5.389   5.428  0.1249 -0.0191  0.0276
20510W        W38714  12.173   4.772  17.230 -0.0541 -0.1832 -0.0613
20511W        W38715   8.273   5.516   0.018  0.1225 -0.0881 -0.0582
20512W        W38716   1.534  13.369   3.946 -0.1682  0.1066  0.1830
20513W        W38717   6.758  17.221  16.094  0.0348 -0.0899  0.0280
20514W        W38718  16.784   0.185   4.071 -0.1030  0.0206  0.2155
20515W        W38719  14.998   6.817  15.344  0.0297  0.0203 -0.1181
20516W        W38720   4.076   9.216  14.264 -0.2778  0.0006  0.1148
20517W        W38721   2.333   7.018   4.371  0.2664  0.3446  0.0024
20518W        W38722   0.763  15.048   1.175  0.1751  0.0307  0.5565
20519W        W38723  13.798  16.648  13.709  0.1053  0.2319  0.0479
20520W        W38724   4.890  16.593  13.487  0.1755 -0.0167  0.0208
20521W        W38725   7.910  13.527   2.224 -0.0950  0.1219  0.1666
20522W        W38726  15.779  13.221  17.489 -0.5470  0.1307  0.0840
20523W        W38727  13.512   7.756   0.839  0.0432  0.0236  0.0510
20524W        W38728  16.174   3.191  11.109  0.0605  0.0072  0.0655
20525W        W38729   4.178  14.707   3.280  0.0332  0.2151 -0.0592
20526W        W38730   9.060   4.812  13.092 -0.0754  0.0300  0.1051
20527W        W38731  15.017   3.598  15.772 -0.2605  0.0816 -0.1223
20528W        W38732   4.286  13.950  15.355  0.2479 -0.3466  0.0801
20529W        W38733  14.512  15.114   2.208  0.1925  0.0656  0.0829
20530W        W38734   4.663   5.968   5.046  0.0387 -0.1962  0.1605
20531W        W38735   0.924  16.268  16.790 -0.0549 -0.1879 -0.3560
20532W        W38736  12.381  15.763  14.846 -0.1999 -0.0297 -0.0446
20533W        W38737  16.476   2.784  14.510  0.0748  0.0683 -0.0238
20534W        W38738  10.360   2.904  12.175  0.3104  0.4240  0.1518
20535W        W38739  15.968  15.473   5.225  0.1340 -0.1071  0.1013
20536W        W38740  15.486   9.590  14.147 -0.2187  0.4000 -0.1158
20537W        W38741  11.070   9.244  13.744  0.0233  0.2258 -0.0913
20538W        W38742  16.419   9.489  16.497 -0.0970 -0.0372 -0.0087
20539W        W38743   4.902   2.053  16.174 -0.1427  0.1314  0.4966
20540W        W38744   0.946   4.477  16.155 -0.1985 -0.0741  0.0563
20541W        W38745   6.685   3.600   3.931 -0.1267 -0.2371 -0.0846
20542W        W38746   4.405   0.892  15.750 -0.1194  0.1528  0.2840
20543W        W38747   5.395   1.088  15.577 -0.2074  0.1094  0.2476
20544W        W38748   3.018  11.956  16.670  0.0735  0.0413  0.0630
20545W        W38749  15.376  10.967   1.631  0.3764 -0.0644  0.0861
20546W        W38750   3.311  16.794   3.336  0.0474 -0.0457 -0.0302
20547W        W38751  16.516   7.436   2.153 -0.1266 -0.1897 -0.3038
20548W        W38752  15.349   5.597   0.264 -0.0721  0.3291  0.1225
20549W        W38753  14.005  14.181   5.465 -0.3553  0.1064 -0.0613
20550W        W38754  10.901  17.240  13.371 -0.0308  0.2140  0.1086
20551W        W38755   5.051  16.382   2.329  0.1330  0.2063  0.1055
20552W        W38756  10.915   0.327   1.609 -0.0735  0.0072 -0.1575
20553W        W38757   7.694   7.465   0.311  0.0816  0.1132  0.1038
20554W        W38758   9.934  16.649   1.455 -0.0666  0.0441  0.1034
20555W        W38759  10.150  14.514  16.370  0.1128  0.0034  0.0173
20556W        W38760   9.031   4.432   0.782 -0.2560 -0.0409 -0.0087
20557W        W38761   0.610   3.111   1.199 -0.0756 -0.1450 -0.2288
20558W        W38762  10.118   1.171  12.529 -0.1357 -0.0226 -0.1087
20559W        W38763   9.125   2.810   1.245  0.0804  0.1687 -0.1330
20560W        W38764   6.559   5.704  12.514 -0.1402  0.0495 -0.0072
20561W        W38765  12.540  13.223  16.733 -0.2838  0.2182  0.0222
20562W        W38766  16.541   3.670  14.654  0.0212  0.1363  0.6175
20563W        W38767   6.251   6.773   4.060 -0.1611  0.0122 -0.1018
20564W        W38768   2.766   0.666  15.986  0.2314  0.4865  0.0492
20565W        W38769   1.473   7.557   1.982 -0.4312 -0.0859  0.0380
20566W        W38770  16.637  11.625   5.127 -0.2056  0.0785  0.3331
20567W        W38771   6.296  16.333  16.303 -0.0505 -0.1242 -0.0806
20568W        W38772  15.493  12.299  17.322  0.1519  0.1119  0.0904
20569W        W38773   6.863  12.128   2.120  0.1411 -0.1910  0.1356
20570W        W38774  14.857  12.466   0.988 -0.4198  0.1774 -0.0766
20571W        W38775   7.436   3.311   0.695 -0.1786 -0.0357  0.1394
20572W        W38776   1.859   8.582  14.627 -0.0837 -0.0786  0.1696
20573W        W38777   0.143   1.819  15.008 -0.1143  0.4000 -0.1567
20574W        W38778   5.723   8.949   5.771 -0.2142 -0.2269  0.0719
20575W        W38779   5.307   9.808  12.047  0.1284 -0.0507  0.1878
20576W        W38780  11.452   1.555   2.590  0.1110 -0.0257  0.0357
20577W        W38781  12.766   2.279   2.524 -0.0432  0.0409  0.1731
20578W        W38782  10.715  17.309   2.404 -0.1114 -0.1804 -0.1724
20579W        W38783  14.845   8.484  13.591 -0.1124 -0.1503  0.0054
20580W        W38784   8.922   8.176   3.974  0.1259  0.1692 -0.2534
20581W        W38785  13.192   1.539   0.316 -0.0589 -0.1586 -0.1871
20582W        W38786  11.188   4.413  13.896  0.2054 -0.2778 -0.0947
20583W        W38787  11.399   3.514   3.394 -0.1480 -0.4457  0.1728
20584W        W38788   1.833   6.065  16.802  0.1695 -0.1584 -0.0297
20585W        W38789   8.719   1.396   1.968  0.2546  0.0142 -0.4154
20586W        W38790   8.517   0.847   2.070  0.1560 -0.1621 -0.0546
20587W        W38791   7.820   1.224  13.424  0.0490  0.2165 -0.0668
20588W        W38792  12.388   6.021  15.258  0.0097 -0.0273  0.0555
20589W        W38793  12.493   2.676   2.679 -0.1794  0.1384  0.0538
20590W        W38794   8.273  17.154  13.306 -0.4320 -0.0360 -0.0242
20591W        W38795  14.963  10.241  12.818  0.0627 -0.0767 -0.2133
20592W        W38796  10.306  17.050  16.083  0.1146 -0.1246  0.1813
20593W        W38797  16.146   2.449   0.850 -0.1459  0.0432 -0.0058
20594W        W38798   1.848  15.393  14.277  0.4576 -0.1118  0.3591
20595W        W38799   9.658  16.811   0.650 -0.0298 -0.1543 -0.1320
20596W        W38800   0.072  12.547  12.762 -0.1822  0.0479 -0.2850
20597W        W38801   2.632  10.952  17.158  0.2259 -0.1246 -0.1775
20598W        W38802  13.362   9.213   1.446 -0.1477  0.1535  0.0172
20599W        W38803  13.467   4.377   1.705  0.0102 -0.1598 -0.1063
20600W        W38804   4.267  12.546   2.526 -0.0618  0.1640  0.1739
20601W        W38805  12.631  15.914  17.442  0.0303  0.1781  0.1903
20602W        W38806  15.161   4.474   3.297  0.1570 -0.1946  0.2132
20603W        W38807   4.969   6.143   3.537  0.2188 -0.3315 -0.2618
20604W        W38808  13.582  10.478   5.771 -0.1962  0.2133  0.1598
20605W        W38809  10.621   8.841  15.260 -0.2753  0.0544  0.0917
20606W        W38810   9.928   0.770  13.946 -0.0376 -0.2041 -0.1664
20607W        W38811  10.994  15.090   0.981  0.0617 -0.1671  0.2170
20608W        W38812   5.898   2.388  12.349  0.1710  0.0143 -0.1607
20609W        W38813  11.436  13.847  17.420 -0.0257 -0.3030  0.4697
20610W        W38814   8.742  12.420   5.262 -0.3518 -0.0132 -0.1064
20611W        W38815   7.653   3.494   4.814 -0.2529  0.0462 -0.1086
20612W        W38816  17.289   7.692  16.161 -0.0271  0.1418  0.1508
20613W        W38817   1.821   4.093  15.397  0.1503  0.0656 -0.1697
20614W        W38818  16.090   2.872   1.161 -0.2216 -0.0059 -0.0270
20615W        W38819  13.801   5.090   4.975  0.1031 -0.5626  0.1868
20616W        W38820   4.960   9.168   0.364 -0.1030  0.0923  0.2251
20617W        W38821   6.405   6.424   5.387  0.2339  0.1300 -0.1122
20618W        W38822   3.337   9.933   1.745 -0.1746  0.1816 -0.1146
20619W        W38823   3.805  13.274   1.829 -0.1558  0.0337  0.1158
20620W        W38824   6.994  14.534  14.577  0.1975  0.1868 -0.0534
20621W        W38825   4.572   3.295  12.801  0.1896 -0.2152  0.1845
20622W        W38826   3.418   5.899   4.312  0.2729  0.1124 -0.1165
20623W        W38827   3.574   6.780  13.113 -0.1114  0.0127 -0.1515
20624W        W38828   6.039   1.215  12.772 -0.0692  0.1994  0.0692
20625W        W38829   8.110   0.067   1.787  0.0157  0.2853 -0.1302
20626W        W38830   1.187   8.860  13.218  0.3066  0.0075  0.1575
20627W        W38831  14.960   2.446   2.747 -0.1159 -0.1295  0.1545
20628W        W38832   3.119  13.912  16.673  0.1666  0.0090  0.0476
20629W        W38833   3.760   0.665   4.496 -0.2712  0.1073 -0.1181
20630W        W38834   1.236  13.350   1.802  0.0067 -0.0275  0.0688
20631W        W38835   0.563   9.640   2.533  0.0855  0.0967  0.1036
20632W        W38836  12.696  13.964  16.137  0.0669  0.0904 -0.1634
20633W        W38837   3.181  15.442  12.484 -0.0563  0.0285 -0.0259
20634W        W38838   1.353  13.470  16.779  0.1292 -0.0762  0.0821
20635W        W38839   3.879   1.554   4.067  0.0052 -0.0040 -0.1555
20636W        W38840   1.754  12.905  14.169 -0.1690 -0.0420 -0.1271
20637W        W38841   7.203  11.865  16.272 -0.0334  0.1149  0.2242
20638W        W38842  13.568   4.586   1.255  0.3067 -0.1368  0.1806
20639W        W38843  11.693   6.035   1.538  0.2210  0.0628  0.0375
20640W        W38844   8.863  10.412  14.378  0.1729  0.2238 -0.1210
20641W        W38845   3.678   1.256   1.105 -0.2531  0.3117  0.3609
20642W        W38846   7.734  12.048   2.023 -0.0585  0.3366  0.2164
20643W        W38847  15.466   0.178  14.309  0.0957 -0.0956  0.2616
20644W        W38848   7.455   4.766   3.718 -0.1266  0.2570  0.1070
20645W        W38849   3.049  15.644   6.125 -0.3320 -0.3695  0.0028
20646W        W38850   5.206   7.412  13.379  0.3109 -0.1391  0.0770
20647W        W38851  14.546   1.187  14.138  0.1434 -0.0549  0.1237
20648W        W38852   9.450   4.343  13.871  0.2495 -0.0509  0.2222
20649W        W38853   6.545   8.637   3.413  0.1744 -0.0431 -0.1624
20650W        W38854   7.011  11.900   4.640 -0.0848 -0.0498  0.0706
20651W        W38855  16.453  10.848   1.887  0.1579 -0.1199  0.2167
20652W        W38856   0.604   0.608  13.139 -0.2196  0.2239 -0.0298
20653W        W38857   1.404  14.108  12.568 -0.2540  0.1180 -0.1372
20654W        W38858  13.307  12.723   3.009 -0.0312  0.2024 -0.1028
20655W        W38859  13.842  13.525  14.609 -0.0574  0.2106 -0.2674
20656W        W38860  14.519  15.225  17.127  0.2578  0.2716 -0.0121
20657W        W38861   8.694   9.512   2.469  0.1749 -0.0712  0.2079
20658W        W38862  14.295   5.857  15.165 -0.1876  0.1808  0.0803
20659W        W38863  14.436   6.282  14.357 -0.0696  0.0794 -0.0791
20660W        W38864  15.393  16.729  13.816 -0.0239 -0.0870  0.0218
20661W        W38865  15.829   4.489  15.912  0.0323 -0.0726 -0.1099
20662W        W38866   0.196   5.457   4.883 -0.1705  0.2793  0.3618
20663W        W38867   1.826   2.090   0.691 -0.0520 -0.2873 -0.2313
20664W        W38868   9.669   5.850   1.408 -0.2042  0.0457 -0.0397
20665W        W38869  10.451   2.617   1.468  0.0870  0.3215  0.0770
20666W        W38870   9.662   3.239   2.329 -0.0057  0.1301  0.0889
20667W        W38871  14.751   8.586  17.181  0.2083  0.1387 -0.4574
20668W        W38872   6.006   0.260  14.449  0.1155  0.0661 -0.0159
20669W        W38873  12.343  13.357  12.990  0.0258 -0.1546 -0.0848
20670W        W38874   4.307   4.358   0.892  0.0124 -0.2306 -0.2155
20671W        W38875  16.569   7.019   1.694 -0.1482 -0.0216  0.0014
20672W        W38876  10.725  10.623   0.404  0.1662  0.2467 -0.2071
20673W        W38877  13.107  14.316   4.950  0.1662  0.2791  0.3686
20674W        W38878   8.636  14.280   0.432  0.1290  0.2290 -0.0690
20675W        W38879   0.882   3.843  15.947  0.1117  0.0490  0.0831
20676W        W38880   8.898  14.231  14.567 -0.1900 -0.0928 -0.1262
20677W        W38881   8.659  12.252  14.613  0.1494  0.0669 -0.0638
20678W        W38882   7.537  13.905  14.077  0.2048  0.1692 -0.1793
20679W        W38883  15.995  16.248   0.842  0.3299 -0.1863  0.1023
20680W        W38884  11.685  12.561  16.292 -0.1907 -0.1648 -0.2362
20681W        W38885  14.961  10.394   2.834 -0.0550 -0.0166 -0.0138
20682W        W38886   4.797   9.529   5.877  0.0357 -0.0055  0.0070
20683W        W38887  12.758   6.350   1.655 -0.0617  0.2957 -0.1622
20684W        W38888  12.287   7.682  17.106  0.1186 -0.2113 -0.0009
20685W        W38889  12.293   5.573  13.956 -0.1535  0.1069 -0.0202
20686W        W38890   0.142   0.124  16.084  0.0225  0.2790 -0.0012
20687W        W38891   7.355   1.188   1.664  0.0755 -0.0152  0.0492
20688W        W38892   1.131   1.703   3.675 -0.3126  0.2096 -0.0523
20689W        W38893  17.144   3.722   0.330  0.0405 -0.2295  0.0635
20690W        W38894  16.309  11.527  16.829 -0.0403 -0.1140  0.1010
20691W        W38895  16.221   3.315   1.397 -0.0691  0.2767 -0.0110
20692W        W38896   1.552   5.724  13.664  0.0465 -0.0674  0.2225
20693W        W38897  10.670   5.626   1.384  0.0285 -0.0713  0.1033
20694W        W38898   8.070   5.124  17.297  0.0933  0.3032 -0.2969
20695W        W38899  10.571   0.498  12.398  0.3217 -0.1243  0.0232
20696W        W38900   9.092  12.263   1.884 -0.1622  0.0190  0.0283
20697W        W38901  10.127   0.501  13.333 -0.0009 -0.1680  0.2970
20698W        W38902   0.790   0.002  15.379 -0.0472 -0.1351 -0.3143
20699W        W38903   2.418  16.622  12.814 -0.0535  0.0605 -0.1256
20700W        W38904   9.897   4.103   4.994  0.2695  0.2111  0.3276
20701W        W38905   2.336  14.268   1.663  0.1896 -0.0058  0.0406
20702W        W38906   4.316  11.199   2.420 -0.1130  0.3347  0.2443
20703W        W38907   7.087   3.558  17.423 -0.2712 -0.2145  0.0458
20704W        W38908  12.406  11.944  14.657  0.1841 -0.4273 -0.2137
20705W        W38909   5.332   5.564   5.175 -0.1772  0.2988  0.1626
20706W        W38910  12.966   0.723  14.868  0.2209  0.1959  0.1114
20707W        W38911   6.601  12.537   3.853 -0.1882 -0.1994  0.1334
20708W        W38912   0.869  14.824  16.946  0.1015  0.0896  0.1873
20709W        W38913   2.448  11.154   5.244  0.2386  0.0623  0.1750
20710W        W38914   5.517   8.767   2.073 -0.1098  0.0400 -0.0562
20711W        W38915   8.657   3.428   4.684 -0.3320  0.0668  0.0910
20712W        W38916  12.175  15.660  17.373 -0.1827 -0.0891 -0.4947
20713W        W38917   6.912   0.121   0.217  0.4278  0.0375 -0.1065
20714W        W38918  16.341  14.469   3.079  0.1395 -0.1166 -0.1355
20715W        W38919   0.550   7.183  11.829 -0.0415 -0.1653 -0.1994
20716W        W38920   1.510   0.443  17.277 -0.1204 -0.0723  0.1466
20717W        W38921  11.207  12.580   1.867  0.0522 -0.0447 -0.1015
20718W        W38922  13.465  16.292  12.538 -0.0223  0.1964 -0.0959
20719W        W38923   2.671   8.716   0.062 -0.0794 -0.2096  0.1733
20720W        W38924   4.126   2.443  13.255  0.0475 -0.0441  0.2523
20721W        W38925  12.246   1.233   1.068 -0.2987  0.2123 -0.1535
20722W        W38926   2.929  13.585   1.458 -0.2436 -0.2470  0.0985
20723W        W38927   7.608   7.851   5.435 -0.0727 -0.0607  0.3135
20724W        W38928   5.083   2.946   0.760 -0.1952  0.2772 -0.0595
20725W        W38929  15.324   3.349   1.431  0.1331 -0.2324 -0.2174
20726W        W38930   7.832   8.482   1.208  0.1764 -0.1202  0.2137
20727W        W38931  11.255  15.561   3.693  0.0330  0.1401 -0.2222
20728W        W38932   7.752  16.560  15.846 -0.0496  0.0963 -0.0343
20729W        W38933   2.764  12.303  14.604  0.0546  0.1460  0.2740
20730W        W38934   9.977   4.679  13.335 -0.1955 -0.0133 -0.0812
20731W        W38935   8.341   1.645   3.667  0.0183 -0.0567  0.1132
20732W        W38936   6.872   1.354   1.740  0.0543 -0.2777  0.0659
20733W        W38937  15.830  15.612  14.458  0.1372  0.0323 -0.0858
20734W        W38938   9.774   7.792   5.280 -0.1012 -0.2323 -0.1283
20735W        W38939  11.720  10.604  14.294  0.0009  0.2444  0.0428
20736W        W38940   9.946   4.956  17.477  0.0709  0.2343  0.0932
20737W        W38941  15.765  10.629  12.909 -0.0823 -0.2201 -0.1391
20738W        W38942   5.766   7.919   5.552 -0.1538 -0.0221  0.0648
20739W        W38943   0.649   9.935  16.821 -0.1805 -0.2563  0.2632
20740W        W38944  16.525   4.171   3.917 -0.0251  0.2911 -0.1463
20741W        W38945  16.021   6.330   0.698  0.0614 -0.0601 -0.0126
20742W        W38946   3.220   0.365  15.841  0.0453  0.0183  0.0098
20743W        W38947   9.523  11.449   2.666  0.1313 -0.0156  0.1928
20744W        W38948   2.732  13.690  12.438 -0.1939 -0.1007 -0.1313
20745W        W38949   2.697  13.811   3.767  0.2270 -0.1080 -0.2532
20746W        W38950  13.642   2.325   2.856  0.3792  0.0487 -0.3497
20747W        W38951  10.500   7.733   1.651  0.0897 -0.1289 -0.3342
20748W        W38952  11.221   5.707  16.402 -0.1679  0.2484  0.3058
20749W        W38953   9.007   8.839   5.431  0.0599 -0.2677 -0.2556
20750W        W38954   8.002   5.151   0.270  0.1753 -0.0095  0.1178
20751W        W38955  14.490   3.937   1.715  0.0933 -0.3478 -0.2084
20752W        W38956   3.730   0.545  13.022  0.1082  0.1114 -0.1895
20753W        W38957  14.406   9.097  15.411 -0.0682  0.0769 -0.0373
20754W        W38958  16.885   0.203  13.826  0.1530  0.2135 -0.0465
20755W        W38959   2.422   4.409  14.042  0.0897 -0.0550  0.2317
20756W        W38960   1.107  13.069  17.492 -0.0028 -0.0268 -0.1158
20757W        W38961   9.823  15.609   0.726  0.1452  0.0312 -0.1700
20758W        W38962  15.801   7.843  14.164 -0.0974  0.1282 -0.2472
20759W        W38963   8.485   5.942  15.428  0.1271 -0.1435  0.1496
20760W        W38964   6.072   7.589  16.429 -0.0976 -0.1226 -0.1553
20761W        W38965  12.415   2.761   3.231  0.3467 -0.2151  0.0257
20762W        W38966  12.735  11.412  15.484  0.3436  0.0528  0.1407
20763W        W38967  11.303   6.220   6.246  0.3123  0.1321 -0.2133
20764W        W38968   1.279   5.736   2.641  0.2284 -0.0106 -0.1388
20765W        W38969   2.202  17.307  14.843 -0.2162 -0.2477 -0.2678
20766W        W38970  13.840   6.236  13.596  0.1429 -0.1198  0.0297
20767W        W38971   7.057   9.424   4.480  0.1235  0.1009 -0.2240
20768W        W38972   9.076  12.944   2.603  0.5201 -0.0315 -0.0692
20769W        W38973   3.209  13.296   2.947 -0.1435 -0.1147 -0.0336
20770W        W38974  10.969   1.669   4.249  0.0907 -0.0156  0.2414
20771W        W38975  15.033   1.121  16.599  0.1346  0.1905 -0.1195
20772W        W38976  16.561   3.812   3.561 -0.3952  0.2011  0.5962
20773W        W38977   3.288   6.377  13.254  0.0166 -0.0699 -0.1841
20774W        W38978  17.079  11.885  14.493 -0.0638 -0.0390 -0.1262
20775W        W38979   2.459  14.172  12.611  0.0959  0.1803  0.0732
20776W        W38980  12.187  12.078   0.950 -0.0015 -0.1570  0.0218
20777W        W38981  16.086   8.567   2.942  0.1093  0.1389  0.0321
20778W        W38982   3.320  11.742  17.053 -0.0993  0.1102  0.2237
20779W        W38983   7.880   8.844   4.890  0.0357 -0.0544 -0.0953
20780W        W38984   7.021   8.084  15.768 -0.1300  0.1382 -0.3270
20781W        W38985  17.185  15.807   2.454  0.0060 -0.2596  0.2090
20782W        W38986  14.718  13.596  13.053  0.0721 -0.1892 -0.1559
20783W        W38987   6.425  16.141   0.397 -0.0410  0.2926  0.0311
20784W        W38988  14.449  11.041  13.472  0.1259 -0.4376  0.1871
20785W        W38989  11.702   2.096  12.588 -0.1409 -0.2336  0.3560
20786W        W38990   8.257  15.524   4.076  0.2261 -0.0538  0.0779
20787W        W38991  12.606   9.754   4.646 -0.0672  0.1688  0.1921
20788W        W38992   0.884   3.277   5.475 -0.0164 -0.0836 -0.0111
20789W        W38993   1.067  11.942   4.529 -0.3387 -0.1532 -0.2792
20790W        W38994   1.445   3.233   3.897  0.1178  0.1985  0.0969
20791W        W38995   9.663   1.206  12.737  0.2932  0.2690  0.3740
20792W        W38996   8.950   0.993   2.182  0.1429 -0.1752 -0.2420
20793W        W38997   9.011  11.158   2.424  0.3240  0.2055 -0.1410
20794W        W38998  14.690  13.828   4.882  0.0539 -0.3683  0.0954
20795W        W38999  11.602  15.110   0.877 -0.1430 -0.0716  0.0682
20796W        W39000  15.755   3.807   4.029 -0.2143 -0.1086  0.0542
20797W        W39001   8.702   9.029   3.196 -0.4735 -0.1038 -0.1553
20798W        W39002   4.240   5.428  14.780  0.0299  0.2581 -0.1975
20799W        W39003   1.361  14.315  17.209  0.0020  0.0094 -0.0496
20800W        W39004   5.843  12.945   0.611  0.0503  0.3389  0.2124
20801W        W39005   6.198   0.632   2.062  0.3330  0.2746  0.0796
20802W        W39006   6.849  13.246  14.318  0.1392 -0.0426  0.0168
20803W        W39007  15.894   9.992   4.386  0.2105 -0.0358  0.0462
20804W        W39008   8.296  16.949  14.572 -0.1655 -0.0076  0.1758
20805W        W39009  10.367   1.792   3.054 -0.3210  0.0539  0.0140
20806W        W39010   7.777   4.172  13.229  0.1621 -0.0291  0.1029
20807W        W39011  16.801  15.446   2.096  0.1662 -0.0202  0.1833
20808W        W39012  17.236   3.566   2.285  0.1270 -0.1883  0.1168
20809W        W39013   7.808  14.530   6.185 -0.1987  0.2356  0.1745
20810W        W39014   7.753   6.355   3.553  0.1770  0.0225  0.0775
20811W        W39015   4.709   8.862  13.886 -0.4243 -0.2592 -0.0552
20812W        W39016   7.112  10.931  13.650  0.1420  0.0720  0.0605
20813W        W39017   4.918   1.536   3.613 -0.2777  0.0765  0.1085
20814W        W39018   4.425   3.652   2.749  0.2407 -0.2505  0.0104
20815W        W39019  11.282   0.547  16.438  0.0640  0.4345  0.0566
20816W        W39020   6.744  12.342  14.779  0.0293  0.3301  0.0067
20817W        W39021   3.267  15.042  13.478 -0.0395 -0.1383 -0.1181
20818W        W39022  16.230   6.345   3.406 -0.5851  0.0914 -0.2423
20819W        W39023   7.151   4.308  17.372  0.1314 -0.1130 -0.1075
20820W        W39024   6.605  17.085   1.086  0.0500 -0.0034 -0.5980
20821W        W39025  14.185  15.060  12.742  0.2719 -0.0467 -0.0554
20822W        W39026  10.393  13.119  16.806  0.0626  0.1067  0.1758
20823W        W39027   7.259   0.265   0.698 -0.1609  0.0193 -0.0575
20824W        W39028   3.961  12.751   2.937 -0.0651 -0.0754  0.2367
20825W        W39029  13.610   9.352   3.179  0.0808 -0.0019 -0.1574
20826W        W39030  11.144  13.355   4.581  0.1313 -0.3059 -0.0627
20827W        W39031  17.244  11.559  11.869  0.0119  0.2441  0.1311
20828W        W39032   5.724   9.975  17.072 -0.0036 -0.2076 -0.0174
20829W        W39033  12.520   2.327   3.758  0.1113 -0.2060 -0.1805
20830W        W39034   4.467   0.202   2.582 -0.1758 -0.3611  0.2050
20831W        W39035  12.913   2.063   2.117  0.1313  0.2435  0.3928
20832W        W39036   7.462   6.168   4.319 -0.0596  0.0304  0.4497
20833W        W39037   2.919   8.390  15.454  0.0906 -0.1294 -0.1129
20834W        W39038   6.301   9.279  15.449 -0.1182 -0.0651 -0.1601
20835W        W39039   9.669   7.205   4.171  0.0270 -0.3233 -0.0457
20836W        W39040   0.704   1.258   2.999  0.3320  0.2400  0.1470
20837W        W39041  12.211  13.943   4.983 -0.0245  0.0668  0.0904
20838W        W39042  12.396   8.732   1.125 -0.0910 -0.0890  0.1165
20839W        W39043   6.529   9.622  12.747 -0.0170 -0.1432  0.0504
20840W        W39044  14.888  14.301   4.885 -0.0765  0.0517 -0.3803
20841W        W39045   3.156   8.588   3.572 -0.1874  0.4875  0.0683
20842W        W39046  16.199   1.987  16.951  0.1462 -0.1358 -0.0527
20843W        W39047  12.234   8.624   4.789  0.0054  0.0761  0.0725
20844W        W39048   5.387   5.592  15.665  0.3972  0.1618  0.0527
20845W        W39049   5.351   4.726   4.810 -0.1782 -0.1473 -0.0100
20846W        W39050   4.289   5.785  12.559 -0.2278 -0.1205 -0.1503
20847W        W39051   9.641   6.133   0.996 -0.0748 -0.0414 -0.1961
20848W        W39052   9.275   9.733  13.841  0.0565 -0.1865 -0.2761
20849W        W39053   9.820   7.033   1.638 -0.0826  0.0485  0.4186
20850W        W39054  11.807   0.563   1.466 -0.0334 -0.1989  0.1289
20851W        W39055   3.027  16.694  13.080  0.0331 -0.0787 -0.0756
20852W        W39056  15.730   3.879  13.693 -0.0322  0.1548  0.2590
20853W        W39057   7.177  14.922  16.518  0.1564  0.0111  0.0254
20854W        W39058  16.006   3.362   2.625 -0.1947 -0.3987 -0.1965
20855W        W39059   2.153  14.149   5.089 -0.4592 -0.0701  0.0707
20856W        W39060  16.830  16.693   0.290 -0.0617 -0.0088  0.2561
20857W        W39061   0.829  12.264  17.240  0.2803  0.0806  0.2795
20858W        W39062   0.059   9.657   2.592 -0.1892 -0.0631 -0.2267
20859W        W39063  13.569  14.245   2.516  0.0768  0.0115  0.0027
20860W        W39064   7.992  10.466  12.833  0.1508 -0.0580  0.1275
20861W        W39065   3.040   9.660   4.026  0.0041  0.1909  0.0077
20862W        W39066   9.342   9.413  13.014 -0.1998 -0.0370 -0.1202
20863W        W39067   4.496   8.700  12.207 -0.0098 -0.0769  0.1220
20864W        W39068   7.357  10.127  16.872 -0.0546  0.1024  0.2207
20865W        W39069   6.987   9.109   1.167  0.0987  0.1476 -0.0676
20866W        W39070   7.422  13.337   4.039 -0.0472  0.0244  0.1233
20867W        W39071   2.510   4.397  17.364  0.2193 -0.2265  0.0402
20868W        W39072  11.729  11.378   3.874  0.1443  0.0360  0.0567
20869W        W39073   8.620   5.592   1.159 -0.2089  0.1602  0.3929
20870W        W39074   9.076  13.245  13.535 -0.1705 -0.1704 -0.0531
20871W        W39075   8.004   0.067  14.765  0.1716  0.2772 -0.1810
20872W        W39076  11.844  12.855  13.543 -0.0508  0.2770  0.3081
20873W        W39077   7.358   5.052   1.376  0.3531  0.1934 -0.0093
20874W        W39078  11.712  12.752   3.144 -0.0782 -0.1220 -0.0853
20875W        W39079  15.467  10.894   4.434 -0.0785 -0.2267 -0.0395
20876W        W39080   5.367   6.389   4.026  0.0622  0.0721  0.0410
20877W        W39081   0.339   0.845   3.506  0.4051 -0.1399  0.2046
20878W        W39082  11.536   6.729  12.329 -0.1220  0.1026 -0.1652
20879W        W39083   7.232  16.044  16.854  0.2773  0.2016 -0.0427
20880W        W39084   2.229   0.021  15.398  0.0034 -0.1676  0.0628
20881W        W39085  13.300   7.488   2.871 -0.1148  0.0239  0.0812
20882W        W39086  12.151   7.127   0.429  0.0717 -0.0546 -0.1521
20883W        W39087  14.037   3.152   3.840  0.0986  0.1202 -0.0921
20884W        W39088  14.618  17.114  16.760 -0.0419 -0.1687 -0.0267
20885W        W39089  14.744   6.951   4.745 -0.1646 -0.0729 -0.1115
20886W        W39090   2.851   5.223   4.148 -0.0272  0.0879  0.0611
20887W        W39091   5.357  15.337  13.184 -0.0504 -0.1507  0.1622
20888W        W39092   3.918   2.381   2.477  0.1550  0.1805 -0.0163
20889W        W39093   3.826   3.953   0.223  0.0007 -0.1496  0.1056
20890W        W39094   2.470  12.593  15.958  0.0663 -0.0161 -0.2185
20891W        W39095   8.290   9.077  14.259 -0.0773  0.0271  0.0754
20892W        W39096   5.988   2.888   1.727  0.0652  0.0289  0.0199
20893W        W39097  12.571  12.481   1.302 -0.0821  0.1766 -0.0594
20894W        W39098  15.398  15.939  15.711  0.2972 -0.2881  0.2876
20895W        W39099  12.536   0.361  15.074 -0.1282  0.1020 -0.1943
20896W        W39100  15.360   9.694   1.695 -0.0258  0.1188 -0.0171
20897W        W39101  12.629   9.324  15.738  0.2416 -0.1914 -0.1511
20898W        W39102  13.397  16.995  13.711 -0.4393 -0.3294  0.2721
20899W        W39103  15.605  12.003   5.039  0.0039 -0.0326  0.1128
20900W        W39104  11.092  10.233   0.366  0.0698 -0.1828 -0.0021
20901W        W39105   8.101   1.885   4.062 -0.1335  0.2951  0.1839
20902W        W39106   0.568  17.166   3.842  0.1007  0.0937 -0.1220
20903W        W39107  10.310   1.632   1.762  0.1467 -0.0013  0.0932
20904W        W39108   2.060   7.978   0.256 -0.1619 -0.1196  0.0590
20905W        W39109   3.338   5.680  12.451  0.0712 -0.1962 -0.0600
20906W        W39110  14.560   4.531  15.725 -0.0173  0.1820  0.0395
20907W        W39111   3.163   3.146  16.803  0.1257  0.0790  0.2634
20908W        W39112  16.072  15.033  16.515 -0.1729 -0.1253  0.2371
20909W        W39113  15.489   5.100  16.860  0.3586 -0.0811 -0.1651
20910W        W39114  10.312   0.192  15.939  0.0202  0.0311 -0.1925
20911W        W39115   0.530   7.777  14.654 -0.0202 -0.1372  0.0676
20912W        W39116  13.732   6.295  15.652 -0.0062  0.0526  0.1073
20913W        W39117  16.256   6.859  15.095 -0.1075 -0.1451  0.0844
20914W        W39118   3.904   9.694  13.572 -0.2361 -0.2122  0.2477
20915W        W39119  13.482   7.227   5.304  0.1361  0.0999 -0.0022
20916W        W39120  10.879  10.137   4.740 -0.3421 -0.4736  0.0677
20917W        W39121  16.378  14.018  13.487 -0.0549 -0.4143 -0.1535
20918W        W39122   7.044  10.728   3.253  0.2342  0.0432 -0.1708
20919W        W39123   7.979   3.852   5.179  0.1115 -0.0296 -0.1885
20920W        W39124   1.011  11.210   2.469 -0.0035  0.0505  0.0028
20921W        W39125   1.898   8.734   2.942 -0.1099  0.1088  0.0089
20922W        W39126  15.140   1.488   5.650  0.1537  0.1730  0.0445
20923W        W39127   2.871  10.139  14.557 -0.1633 -0.2692 -0.0532
20924W        W39128  10.950  15.216  17.228 -0.1476 -0.3720  0.1698
20925W        W39129   5.056   6.206  14.525 -0.1841  0.0990  0.2456
20926W        W39130  12.630  10.489  16.776  0.0471  0.3355 -0.0313
20927W        W39131  14.770  10.327  15.336  0.0645 -0.1409  0.1101
20928W        W39132  11.556   5.183   1.926 -0.0971  0.2496  0.1663
20929W        W39133   1.096   9.881  12.862  0.1451  0.1291 -0.2304
20930W        W39134   6.332   5.146  17.405  0.0499 -0.0741  0.2797
20931W        W39135   3.714   8.841   0.912  0.0421  0.1552  0.1299
20932W        W39136   5.635   0.407   0.484  0.0990  0.1309 -0.3550
20933W        W39137  11.253   6.231   2.141 -0.1107  0.0749 -0.0678
20934W        W39138   2.492   5.440  11.692 -0.1605 -0.2876  0.1263
20935W        W39139   2.915  12.229   0.401 -0.3720 -0.1068 -0.0022
20936W        W39140   1.185   2.385  13.166  0.0525  0.0980 -0.1614
20937W        W39141   8.818  15.499  13.499  0.3272 -0.0449  0.1622
20938W        W39142  15.429   4.515   4.351 -0.3292  0.2697 -0.1285
20939W        W39143  13.224   4.486  13.309 -0.1212 -0.0533 -0.3286
20940W        W39144   4.709   0.307  13.638  0.0608 -0.0878  0.1385
20941W        W39145  11.143   8.407   3.805  0.0653 -0.0321  0.2144
20942W        W39146   6.969   5.477   4.202  0.2175 -0.3229 -0.1597
20943W        W39147  10.836  12.174  13.007  0.0085  0.2205 -0.3539
20944W        W39148   6.142  14.558  17.469 -0.0063 -0.1096 -0.1700
20945W        W39149  10.622  15.648   2.646  0.0244  0.1608 -0.0473
20946W        W39150  12.411   9.092  12.869  0.1391  0.2608 -0.0508
20947W        W39151   8.984  14.254   3.921 -0.3381  0.0684 -0.2252
20948W        W39152  13.997   3.903  13.773  0.2116 -0.0287  0.0151
20949W        W39153  16.528  17.239  14.547  0.0441 -0.3652  0.2046
20950W        W39154   8.303   0.508   2.529 -0.1956  0.0515 -0.1097
20951W        W39155   0.360   2.755   2.201 -0.0798 -0.2769 -0.4651
20952W        W39156   2.410  10.808   4.533  0.0411 -0.0978  0.0912
20953W        W39157  13.083   5.501   0.279  0.0247  0.0271  0.1388
20954W        W39158  11.079   6.077  16.770 -0.0314  0.1318 -0.0892
20955W        W39159   4.492   1.333   3.835  0.1183  0.1075 -0.0044
20956W        W39160   6.831  15.745  17.047 -0.1469  0.0641 -0.3651
20957W        W39161  12.799   8.464   0.644 -0.3810 -0.1041  0.0757
20958W        W39162   7.716   2.423  13.156 -0.2238  0.5893 -0.1191
20959W        W39163   8.137  13.350  13.191  0.2696  0.0616 -0.3576
20960W        W39164  11.566  16.708   3.183  0.0474 -0.1488 -0.1400
20961W        W39165  15.926   4.227   5.043  0.1439  0.0689 -0.0625
20962W        W39166   1.498  12.465   2.953 -0.1378 -0.2225 -0.0026
20963W        W39167  13.621   7.379  12.927 -0.4703 -0.1306  0.2589
20964W        W39168  11.270  13.152  14.252  0.0879 -0.2528  0.0252
20965W        W39169  11.419   3.158   1.312  0.1261  0.0698  0.1270
20966W        W39170  10.731   0.201   0.643  0.3362 -0.1070 -0.1116
20967W        W39171   8.984  16.745  16.018 -0.0586 -0.1061  0.1925
20968W        W39172  15.328   9.856  13.684  0.2654 -0.1062  0.0572
20969W        W39173  10.816   6.742  13.286 -0.2580 -0.1279 -0.1716
20970W        W39174  14.803   5.134  16.263  0.3556  0.1088 -0.3763
20971W        W39175   3.010   3.579   0.970 -0.1868  0.3224  0.1498
20972W        W39176   8.319   4.950  14.251  0.1026  0.1626 -0.1296
20973W        W39177   4.630  11.423   3.870 -0.1247 -0.0175  0.4667
20974W        W39178  15.546  12.665  12.947 -0.1014 -0.2721  0.1909
20975W        W39179  11.394  13.585  12.550 -0.0641  0.0261 -0.1310
20976W        W39180   6.162   2.996   5.404  0.2607  0.1597  0.0203
20977W        W39181  13.470   5.755  16.413  0.0879  0.0813 -0.0181
20978W        W39182  15.611   5.620  14.774  0.3342  0.0686 -0.0082
20979W        W39183  17.130  11.931  12.765  0.0293 -0.1099 -0.1749
20980W        W39184  16.991   8.042   2.431  0.0732  0.2970  0.0194
20981W        W39185   5.998   5.459   0.981 -0.1802  0.0273  0.1408
20982W        W39186   1.259   6.558   1.365  0.1246 -0.0203  0.1307
20983W        W39187  14.009   4.097  14.592 -0.2235 -0.0839 -0.1730
20984W        W39188   4.926   5.762   3.243  0.0676  0.2195 -0.2633
20985W        W39189  17.221  16.472   5.006 -0.0779  0.0086  0.3197
20986W        W39190   1.549  16.581   4.020  0.0023  0.1719  0.0143
20987W        W39191   3.078   8.593  13.585 -0.3729  0.2087 -0.1045
20988W        W39192  12.564   3.875  17.140  0.0174  0.0333  0.0291
20989W        W39193  15.960   4.856  15.653  0.1387 -0.0800 -0.0067
20990W        W39194  11.058   8.166   1.153  0.1906 -0.0599  0.0722
20991W        W39195   4.859  11.312  12.528  0.0500  0.0146 -0.0135
20992W        W39196  11.733  13.979  12.732  0.3688 -0.0081 -0.2323
20993W        W39197  11.146   0.105  16.279  0.1246 -0.2262  0.2040
20994W        W39198   6.693  12.200   3.480 -0.1544  0.2897 -0.0714
20995W        W39199   9.054   5.097   2.456  0.2261 -0.1387 -0.2591
20996W        W39200   3.165   4.040   4.859 -0.2295 -0.1890  0.0728
20997W        W39201   6.300   5.315   1.475  0.3571  0.0222 -0.1058
20998W        W39202   6.181   8.878   1.085 -0.1811  0.0998 -0.2793
20999W        W39203   0.313   3.390   3.391 -0.0006  0.1624  0.0553
21000W        W39204   9.005   3.656   2.347 -0.2010  0.1241  0.0967
21001W        W39205  13.506   9.697  15.110  0.1215 -0.1296  0.5217
21002W        W39206   9.115  14.424  12.286  0.1260 -0.0111  0.2408
21003W        W39207  12.585   0.716   0.354 -0.1453 -0.0818 -0.0991
21004W        W39208  12.459  11.762  13.707 -0.1486  0.0505  0.0719
21005W        W39209  17.294   8.095  13.518 -0.2237 -0.0212  0.0009
21006W        W39210   4.234   7.595  17.074  0.1348 -0.3047  0.1058
21007W        W39211   9.794  16.088  11.998 -0.0160 -0.0199  0.1751
21008W        W39212   0.995   5.814  14.666 -0.0188  0.3219  0.1505
21009W        W39213   2.127   8.693   2.055  0.1299  0.1611 -0.0959
21010W        W39214  15.983   3.120  16.013  0.2884 -0.0392 -0.0593
21011W        W39215  14.197   4.589  15.283  0.1207 -0.2940 -0.0149
21012W        W39216   0.859   7.060  14.941 -0.0532  0.1944 -0.2043
21013W        W39217  15.511   1.805  12.837  0.1495 -0.0014  0.0922
21014W        W39218   9.937  16.226   0.064 -0.0432  0.1335  0.0346
21015W        W39219  15.080  13.900   5.248 -0.1245  0.0018 -0.1097
21016W        W39220   3.050  15.941   5.346  0.0628  0.1649  0.0522
21017W        W39221   7.952  12.324  16.423 -0.2185 -0.0549  0.1702
21018W        W39222  14.008  11.394   2.224 -0.0633  0.0022 -0.0301
21019W        W39223  14.606  10.608  14.207 -0.0313  0.3018  0.1378
21020W        W39224   0.321   5.595   6.318 -0.0578  0.1010 -0.0564
21021W        W39225  14.060   8.473   4.366 -0.0094  0.1056 -0.0019
21022W        W39226   5.448   3.495   3.727  0.0904 -0.1340  0.0761
21023W        W39227   1.793   4.053  13.352  0.0494  0.0250  0.0183
21024W        W39228   2.701   7.256   2.002  0.1147  0.0644  0.1328
21025W        W39229   3.790   7.565  12.134  0.1285 -0.2071 -0.2641
21026W        W39230  16.469  16.620   0.602  0.0345  0.1423  0.1817
21027W        W39231   9.238   9.017  17.439 -0.1794  0.4031 -0.1544
21028W        W39232   3.733  12.903  13.002  0.0433 -0.0767  0.1625
21029W        W39233   1.826   6.726   3.145  0.1466 -0.1088 -0.0189
21030W        W39234  12.496  12.954  16.340  0.1063  0.1170  0.1011
21031W        W39235  13.838   7.011   0.226  0.0336  0.1142  0.0017
21032W        W39236  11.694   7.777   2.796  0.0967  0.3047  0.0659
21033W        W39237   1.174  11.820  16.324  0.0644  0.1100 -0.0001
21034W        W39238   2.678   0.897  13.497 -0.1986  0.0087  0.0906
21035W        W39239   4.141   2.401  14.800 -0.0607  0.2521  0.2465
21036W        W39240   2.345   7.249  17.441 -0.2233 -0.3196  0.1971
21037W        W39241   6.422  16.882  15.205  0.1118 -0.1515 -0.1315
21038W        W39242  16.575   1.617   3.297 -0.0202  0.1181 -0.3818
21039W        W39243  11.048   4.913  13.868  0.0657  0.1205 -0.3236
21040W        W39244   6.821   7.221  16.179  0.1918 -0.1978 -0.0479
21041W        W39245   3.480   3.878   2.439 -0.1829 -0.3404  0.0035
21042W        W39246  11.845   7.886  16.124 -0.3432  0.0918  0.0065
21043W        W39247  13.669   5.408  12.769 -0.1368 -0.2435 -0.2578
21044W        W39248  13.398  16.680  14.117  0.1399 -0.2395  0.0900
21045W        W39249  13.096   3.734   5.253 -0.3290 -0.1281 -0.0543
21046W        W39250   3.234   1.561  11.966  0.2946  0.2741  0.1537
21047W        W39251  12.794  14.893   5.118  0.2596 -0.0487 -0.0901
21048W        W39252   4.208  13.847  13.089  0.3876  0.0180 -0.0107
21049W        W39253   9.087  15.017   3.198  0.3183  0.0980 -0.0912
21050W        W39254  13.497   9.298   0.047 -0.3070  0.4161 -0.0670
21051W        W39255   9.955   9.574  16.132  0.1979  0.2523  0.0788
21052W        W39256   6.332  16.149   1.907  0.0996 -0.2164  0.2083
21053W        W39257   8.216   4.948  13.720 -0.1927  0.1251  0.0814
21054W        W39258   4.449   6.744   1.878  0.0450  0.1261 -0.0037
21055W        W39259   6.386  16.434   1.030 -0.0533  0.2876  0.4224
21056W        W39260   3.089   2.432   2.069 -0.1123 -0.0239 -0.1706
21057W        W39261   8.677   2.949   2.326  0.1131 -0.1944 -0.0551
21058W        W39262  15.820   1.532  15.013  0.2110 -0.0187 -0.0886
21059W        W39263  13.999  15.364  15.056  0.0141 -0.0402  0.1296
21060W        W39264  13.496  10.276  15.086 -0.1322 -0.0308 -0.2059
21061W        W39265   6.470   5.382  11.657 -0.1952 -0.0905  0.0022
21062W        W39266   7.377   5.375   4.485  0.0623  0.1302 -0.0067
21063W        W39267   6.100   6.111  16.421  0.3228 -0.0104  0.1393
21064W        W39268   9.882   2.579  15.120  0.1725 -0.0779  0.1532
21065W        W39269  14.755   1.791  17.318  0.0868 -0.2816  0.0526
21066W        W39270  15.304   3.378   1.944 -0.2120  0.3128 -0.3334
21067W        W39271   7.535   2.155   2.642  0.2000  0.2108  0.2127
21068W        W39272   4.321   3.530  13.463 -0.0268  0.3306 -0.3890
21069W        W39273   0.815   3.054  15.132 -0.1570 -0.2043 -0.1123
21070W        W39274   0.353  13.021  13.481 -0.2473  0.4398  0.1177
21071W        W39275   0.665  16.854   4.604 -0.0386  0.0085 -0.4766
21072W        W39276   3.603  16.056   3.285 -0.2010 -0.4872  0.1459
21073W        W39277   2.944  12.233   1.577  0.3522  0.1899  0.1006
21074W        W39278  13.726   9.091  15.021 -0.0565  0.3045  0.2775
21075W        W39279   7.139  12.692   1.276 -0.0019  0.2224 -0.2446
21076W        W39280   3.948  12.384  13.999  0.3033  0.1514  0.3331
21077W        W39281  14.133   6.031   4.066  0.2238 -0.3212  0.0862
21078W        W39282  12.614   9.013   5.248 -0.0571  0.1387 -0.4369
21079W        W39283   9.605  12.170  12.463  0.1702  0.0509 -0.2827
21080W        W39284  10.993   4.874   4.063  0.0545  0.0859  0.0785
21081W        W39285  16.378  14.928  15.517 -0.1673  0.0175 -0.0378
21082W        W39286  14.888   1.424  15.603  0.1837  0.3939  0.0488
21083W        W39287   6.869   0.539   1.418  0.0878 -0.1527  0.0424
21084W        W39288   7.103   7.506   0.341  0.1629 -0.0217 -0.1030
21085W        W39289   4.025  16.249   1.609 -0.1686 -0.1660  0.1251
21086W        W39290   1.307   3.225  16.394  0.0199  0.1443  0.0860
21087W        W39291   0.003  10.707   2.025  0.0253 -0.0927  0.0017
21088W        W39292  12.369   8.877  12.220 -0.3527 -0.0832 -0.2255
21089W        W39293  12.404   5.140  15.255  0.1224 -0.2557 -0.1067
21090W        W39294  17.339   2.607  14.651 -0.1105 -0.1021 -0.0650
21091W        W39295  11.313  14.198  15.961  0.2092  0.0730  0.0226
21092W        W39296   6.042  11.317  17.172 -0.1710 -0.2085 -0.1476
21093W        W39297   5.505  12.829   3.254 -0.0141  0.1660  0.1285
21094W        W39298  12.001   5.245   4.971  0.0039 -0.0218 -0.0155
21095W        W39299  10.954   0.852   4.735 -0.1889  0.1423 -0.1303
21096W        W39300  14.238   8.336   3.178  0.2287  0.2840 -0.1098
21097W        W39301   9.397   1.044   1.449  0.0249 -0.1509  0.4849
21098W        W39302   2.414   0.320   3.290 -0.1805 -0.0434  0.1350
21099W        W39303  16.808   2.874  12.005  0.0313 -0.0066  0.0001
21100W        W39304   1.012  15.616   3.016  0.0580  0.0331  0.2696
21101W        W39305   3.908   1.961  15.015  0.0530 -0.1875 -0.0640
21102W        W39306   6.624   1.870  13.888 -0.0804  0.2029 -0.0309
21103W        W39307  15.118   1.839  14.863 -0.0860 -0.2057 -0.1765
21104W        W39308   6.880   8.217   1.402 -0.0118 -0.0050 -0.0381
21105W        W39309  11.723  12.629  13.121 -0.2201 -0.0842 -0.0321
21106W        W39310  12.061   8.946  14.485  0.1806 -0.0053 -0.0218
21107W        W39311  14.739   9.260   0.061  0.3370 -0.1431  0.0712
21108W        W39312  13.861   4.620  17.091 -0.2058  0.2315 -0.0555
21109W        W39313   6.443  14.321   0.891  0.1889  0.0837  0.0401
21110W        W39314   1.227   3.712   1.045  0.0236  0.0935  0.0191
21111W        W39315   3.198  16.040  17.241 -0.1156  0.2116  0.0251
21112W        W39316   3.283   2.458  12.265  0.2522 -0.2359 -0.0117
21113W        W39317   5.783   7.193  12.481 -0.2615  0.1683  0.0195
21114W        W39318  11.338   5.948  15.423  0.1710  0.0611  0.2071
21115W        W39319  17.113   0.512   3.871  0.2405 -0.0113 -0.0978
21116W        W39320   0.255  13.033   0.683  0.0567  0.0132 -0.0998
21117W        W39321   4.610   5.027  12.845  0.1541  0.0480  0.0345
21118W        W39322  14.171  12.538   0.354  0.2550 -0.0836  0.1149
21119W        W39323   2.389   0.125   1.347  0.0157 -0.1482 -0.1438
21120W        W39324   2.775   2.144  12.622  0.1555 -0.0647  0.0011
21121W        W39325  11.964   1.543   2.181  0.3739 -0.3059 -0.1042
21122W        W39326  13.041   5.398   5.337  0.2118 -0.2980 -0.2238
21123W        W39327   5.544   5.785  12.344 -0.0789  0.1912 -0.0068
21124W        W39328  12.748   7.929  15.867 -0.1107 -0.1475 -0.1502
21125W        W39329   0.650  11.565   3.364 -0.0560  0.2435  0.1921
21126W        W39330   2.301   4.003   0.604 -0.1091  0.1801 -0.1991
21127W        W39331   6.182   4.144  17.368 -0.2717  0.0966  0.0845
21128W        W39332  10.176  15.882   0.465  0.1538  0.1673  0.0974
21129W        W39333   7.487  14.800   1.541  0.4260  0.0885 -0.1854
21130W        W39334  14.835  12.161   5.471  0.2538  0.1100  0.0303
21131W        W39335  16.868   9.141  13.005 -0.0239  0.2678  0.0770
21132W        W39336   0.212  13.570   3.724 -0.3304 -0.3649  0.0270
21133W        W39337   5.367   9.157  14.966  0.1377 -0.0685 -0.2322
21134W        W39338   3.852  10.850  15.409 -0.1763  0.0233 -0.0751
21135W        W39339   1.234   1.602   4.312  0.2319 -0.2175  0.0737
21136W        W39340  16.732   8.493  11.887  0.1327 -0.0071  0.3510
21137W        W39341  15.552   5.528   4.940 -0.2273  0.0248 -0.1702
21138W        W39342   8.813   3.765  13.766  0.2554 -0.1682  0.2083
21139W        W39343   7.331   7.138   4.305 -0.2125  0.1643 -0.2756
21140W        W39344   3.850  16.730  16.328  0.0885  0.0583  0.0170
21141W        W39345   9.388   2.758  16.922 -0.2070 -0.1711 -0.0281
21142W        W39346  15.334   3.490   4.413 -0.0827 -0.1069 -0.0112
21143W        W39347   1.228   3.512   5.722 -0.0903 -0.0945  0.1398
21144W        W39348  15.302   9.358  13.145 -0.2124  0.0605  0.0710
21145W        W39349  15.397  15.752   3.971  0.1103  0.1966  0.0223
21146W        W39350   2.943   9.043  15.479  0.3141 -0.0312  0.2201
21147W        W39351  12.329  11.684   5.465  0.0450  0.0932 -0.1945
21148W        W39352   4.660  12.446  12.946 -0.1838 -0.2794  0.1765
21149W        W39353   2.436  16.626   1.507  0.2148  0.0643  0.2447
21150W        W39354  17.063   4.450  16.464  0.2560  0.2337 -0.0360
21151W        W39355   4.285   5.400  12.926 -0.1637  0.1994 -0.0238
21152W        W39356  16.958  13.708   4.414 -0.1829 -0.2072  0.2047
21153W        W39357  13.565   2.087   0.582  0.1439  0.0728 -0.2222
21154W        W39358   7.807  11.243   0.628 -0.0320  0.4026 -0.0481
21155W        W39359   3.318  15.277  12.967  0.0671  0.0130 -0.0873
21156W        W39360   9.668   1.202   0.613 -0.0836 -0.0302  0.1481
21157W        W39361  12.687   1.927   1.647 -0.0035  0.0424  0.2453
21158W        W39362  14.996   1.868  12.692  0.0196  0.2317  0.0730
21159W        W39363   8.088   4.847   4.391 -0.1658  0.1675 -0.2804
21160W        W39364   0.266   2.068  11.930  0.1666  0.0803  0.2728
21161W        W39365  16.544  12.475   2.812  0.0003  0.1022 -0.1447
21162W        W39366  15.422   9.100   3.373 -0.0597  0.2575 -0.1729
21163W        W39367  12.261  11.682   4.555  0.0208 -0.2538  0.0673
21164W        W39368   2.868  10.539  15.913  0.2244 -0.2957 -0.2090
21165W        W39369  16.901   8.670  15.448  0.1741 -0.1182 -0.2157
21166W        W39370   0.151   5.610  17.277 -0.1954  0.1366 -0.0108
21167W        W39371  13.868  10.352  11.915  0.0164  0.0474  0.2288
21168W        W39372  16.950  14.346  14.517  0.2877  0.2332  0.0350
21169W        W39373  15.922   6.305   4.570 -0.2839 -0.3129  0.0084
21170W        W39374   2.249  11.135  13.112  0.1659 -0.1372 -0.1294
21171W        W39375  17.267  10.131  16.336 -0.1909 -0.2523  0.5961
21172W        W39376   7.213   3.522  16.736 -0.2387 -0.0502 -0.1867
21173W        W39377   3.195   9.219  14.224  0.0441 -0.3103 -0.0526
21174W        W39378   4.680  10.603   2.946 -0.1613  0.2848  0.0526
21175W        W39379   7.788   7.961   2.088 -0.2359  0.0763  0.2156
21176W        W39380   8.120   4.461   0.287 -0.0578  0.2409 -0.1356
21177W        W39381   4.386   0.055  13.976 -0.0551  0.3773  0.1897
21178W        W39382   2.335  14.515  17.188 -0.0353 -0.1830 -0.0131
21179W        W39383  10.657   0.813  15.020  0.2958 -0.1479 -0.0146
21180W        W39384   7.072  16.120  15.576  0.1580 -0.0063 -0.0148
21181W        W39385   9.256   3.275   1.022 -0.0257  0.3416 -0.1350
21182W        W39386  15.099   1.585  16.557  0.0101  0.2364  0.4605
21183W        W39387   8.401  10.783  13.466 -0.1166 -0.0837 -0.1558
21184W        W39388  17.287  11.377   3.188  0.3137 -0.2964 -0.1752
21185W        W39389  10.704  13.227  15.121  0.1271  0.0181  0.1369
21186W        W39390   0.308  13.370   5.341  0.1329  0.2086  0.0056
21187W        W39391   1.330   9.311   3.134  0.2379  0.2833  0.1552
21188W        W39392   8.361   9.576  14.538  0.1215  0.1695 -0.1758
21189W        W39393   4.953  17.242  16.197 -0.1316 -0.0487  0.2561
21190W        W39394   1.996  10.318  15.902 -0.0886 -0.0886  0.0913
21191W        W39395   5.882   6.266  17.364  0.2212 -0.0537  0.1932
21192W        W39396  12.998   1.792  13.720  0.0759  0.2586 -0.0346
21193W        W39397   7.703  13.066   4.405 -0.4204 -0.1925  0.0595
21194W        W39398  11.056   8.137  16.797  0.0060 -0.1810 -0.0783
21195W        W39399   9.733  13.574  13.034  0.0377  0.2020  0.1684
21196W        W39400  10.763  16.464  13.241  0.0204 -0.0489  0.0564
21197W        W39401   6.159   3.986  15.406  0.1384  0.0290 -0.2636
21198W        W39402   2.056  16.824  17.072 -0.0823 -0.0852 -0.1755
21199W        W39403  17.299   7.459  16.622 -0.1293 -0.0801  0.1187
21200W        W39404  11.829   9.824  14.360 -0.1230  0.0373  0.1459
21201W        W39405  11.947   9.455  12.883 -0.1980  0.2152 -0.2462
21202W        W39406   0.638   3.029  14.311  0.0465 -0.0636  0.1813
21203W        W39407  13.028   9.600  16.795  0.0900  0.1462  0.2605
21204W        W39408   7.317  10.137   2.239  0.3078 -0.1515  0.0812
21205W        W39409  11.029   8.796   1.200 -0.1091  0.1115  0.0300
21206W        W39410  12.075   8.076   4.006  0.1169 -0.3423  0.0670
21207W        W39411   4.315  10.394  14.902  0.0793 -0.1608  0.1986
21208W        W39412   2.213  12.640   5.766  0.3172 -0.1261 -0.2276
21209W        W39413  15.507   2.436   1.642  0.0769  0.1367 -0.3219
21210W        W39414   5.520  16.974  12.012 -0.0184  0.3882 -0.2929
21211W        W39415   9.258  13.989  14.903 -0.0340  0.0808  0.3342
21212W        W39416   4.495  15.065  12.654  0.4068  0.3258 -0.3105
21213W        W39417   4.861   8.319  14.013  0.0784  0.3611 -0.1968
21214W        W39418   9.467   5.607   0.185 -0.0888  0.1262  0.0887
21215W        W39419  13.932   0.049   2.959  0.0400 -0.1876  0.0788
21216W        W39420   6.171  16.215   3.803  0.2342 -0.1605 -0.1854
21217W        W39421   1.659   9.458   1.767 -0.0450 -0.1308 -0.0840
21218W        W39422  13.709  16.714   0.982  0.0493  0.0455 -0.1858
21219W        W39423  14.698   5.267   3.270  0.1760 -0.4817 -0.2423
21220W        W39424   4.413  10.731  17.173 -0.0676 -0.0705  0.2540
21221W        W39425  17.263  14.300   3.371 -0.1216  0.0449 -0.0297
21222W        W39426   1.584  12.038   3.717  0.0253  0.0497 -0.0223
21223W        W39427   4.941  10.422   5.642  0.1130 -0.2675 -0.0713
21224W        W39428  12.851   7.676   3.631 -0.0029  0.0119 -0.5118
21225W        W39429   7.069  14.284  13.373 -0.1783  0.2195  0.2331
21226W        W39430  12.131   6.573  12.370 -0.1605  0.0645  0.2348
21227W        W39431   8.029   8.101  15.439 -0.1787  0.1561  0.0085
21228W        W39432  12.812  16.907   4.567  0.0327 -0.1764 -0.0030
21229W        W39433  16.218   6.657  14.228  0.0280 -0.3741  0.0429
21230W        W39434  15.024   6.805  14.837 -0.0970  0.0015 -0.0832
21231W        W39435   3.298  12.232   0.712 -0.3040  0.2179 -0.3697
21232W        W39436  13.555   3.132  12.600  0.2077  0.2228  0.4055
21233W        W39437   4.607   6.862   4.082  0.1350 -0.0467 -0.2134
21234W        W39438   7.270  12.222  14.909  0.0976  0.0197  0.0745
21235W        W39439   8.216   3.012   3.411 -0.0949  0.0304  0.2352
21236W        W39440   7.502   5.550  15.952 -0.0028  0.0336 -0.0493
21237W        W39441   3.061   6.095  15.305 -0.2178 -0.1887  0.1590
21238W        W39442   6.928   2.650   2.070 -0.1013 -0.2003  0.2305
21239W        W39443  13.328   8.588   0.875 -0.0817 -0.0905  0.4214
21240W        W39444   5.420   7.458  15.370 -0.1058  0.0873  0.1612
21241W        W39445   6.400  10.997  16.918 -0.1847 -0.1200  0.2158
21242W        W39446   1.884  11.545   4.477 -0.1504  0.1724 -0.0075
21243W        W39447  12.453  16.152   5.252 -0.0444 -0.1806 -0.2470
21244W        W39448   2.823   3.501  14.007 -0.0460 -0.0723  0.3859
21245W        W39449   1.260  10.199   1.082 -0.0292  0.1107  0.0612
21246W        W39450   0.826  14.243   2.218  0.0838  0.2922  0.0487
21247W        W39451   2.910  15.596   4.086  0.1178 -0.1775 -0.0728
21248W        W39452   5.685  14.231  12.845 -0.3785  0.2705  0.2263
21249W        W39453   5.978   9.591  12.774  0.0236  0.2453  0.0085
21250W        W39454  14.490   5.430  13.761  0.5610  0.0874  0.2032
21251W        W39455   6.107  10.648  15.604  0.0878 -0.1004 -0.1181
21252W        W39456  12.832   4.147   4.421 -0.1425  0.0673 -0.1080
21253W        W39457   3.472  14.679  17.195  0.1752  0.1565  0.0588
21254W        W39458   9.220   0.732  13.619  0.1160 -0.3022 -0.2419
21255W        W39459   3.828   5.508  14.282  0.3097  0.0922 -0.0810
21256W        W39460  11.006   7.771   1.653 -0.2284 -0.0664  0.2462
21257W        W39461   1.295   4.976   1.889 -0.2846  0.2361  0.2816
21258W        W39462   1.615  16.561   4.758  0.0171 -0.2518  0.0333
21259W        W39463  10.404   4.999  17.162  0.1394 -0.0133  0.1165
21260W        W39464   0.306   5.617   3.889  0.0022  0.0245  0.3155
21261W        W39465  12.293   9.390  12.447 -0.2450 -0.0026 -0.2551
21262W        W39466   7.461  15.944   0.587 -0.1733 -0.0106  0.2184
21263W        W39467   6.688   0.229   3.264 -0.1522 -0.1155  0.0674
21264W        W39468  13.908  15.378  14.457  0.3734  0.3906 -0.1000
21265W        W39469  14.367   4.280  14.925  0.0150 -0.0371 -0.1622
21266W        W39470  12.585   9.786  15.939  0.0645 -0.0409  0.0246
21267W        W39471   4.890   6.752   2.089 -0.0455 -0.1818  0.0936
21268W        W39472   2.677   5.181  12.453  0.0531  0.1070  0.0317
21269W        W39473   2.903  11.945  15.520 -0.3375  0.1231 -0.0512
21270W        W39474   4.623   1.810  17.044  0.2774  0.2920 -0.0365
21271W        W39475  17.291  12.212  17.186 -0.1097 -0.0430  0.3061
21272W        W39476  10.098   7.013   2.059 -0.0353 -0.0656  0.1061
21273W        W39477  12.536  14.124   2.033  0.3501 -0.1181  0.2516
21274W        W39478   3.659   9.765  14.029 -0.0799 -0.2117 -0.1651
21275W        W39479   8.781   8.972   0.788  0.1884  0.1039 -0.0547
21276W        W39480   5.944  12.641   1.107  0.1830 -0.0393 -0.1214
21277W        W39481   6.358  11.219  14.835  0.2150 -0.1761  0.0102
21278W        W39482   1.900   3.394   4.657  0.1719  0.4980  0.1918
21279W        W39483  11.395   3.669   6.095  0.0366  0.0547 -0.1289
21280W        W39484  14.809   4.582   2.887  0.2036 -0.0909 -0.2143
21281W        W39485   9.156  15.875  13.706 -0.1001 -0.0567 -0.1327
21282W        W39486   6.458   6.246  13.171  0.3198 -0.1621  0.1472
21283W        W39487  10.648  13.503   3.668 -0.0985 -0.1879 -0.0248
21284W        W39488   3.460   1.248   3.893  0.4003 -0.1069  0.1246
21285W        W39489  15.887  10.583  16.236  0.2328  0.1836  0.3550
21286W        W39490  10.615  14.814   5.166  0.0904  0.1795  0.1479
21287W        W39491   1.019  11.715   2.511 -0.0497 -0.0779 -0.0798
21288W        W39492   9.893   0.360   5.182  0.0715  0.0833  0.0861
21289W        W39493   0.952   4.593  14.686 -0.3222  0.0360 -0.1635
21290W        W39494  10.848  13.943   0.371 -0.1573 -0.0081  0.1206
21291W        W39495   5.518  13.741  12.976 -0.0293 -0.0291 -0.2158
21292W        W39496   0.337   5.287  16.941 -0.2461  0.1874 -0.0179
21293W        W39497   7.195  10.650   1.383  0.0461  0.0110  0.4133
21294W        W39498   3.737  15.336   4.596  0.1817 -0.0458 -0.0203
21295W        W39499   7.043   1.511  15.945  0.0626  0.0787 -0.0338
21296W        W39500   6.818  10.403   0.875 -0.1078  0.2330 -0.3012
21297W        W39501   4.313   9.374   0.042  0.1245  0.2589 -0.3019
21298W        W39502   5.860   3.143   1.193 -0.1171 -0.0299 -0.1819
21299W        W39503   5.240   4.427   1.316  0.0402 -0.2964  0.0220
21300W        W39504  15.158  13.661   1.453  0.0035  0.3822 -0.3346
21301W        W39505   7.725  13.718   0.924  0.1018  0.1655 -0.1278
21302W        W39506   4.461   0.452  15.637 -0.4423 -0.0584 -0.0426
21303W        W39507   3.567   5.888  16.230 -0.1684 -0.1782 -0.0542
21304W        W39508  11.833   0.150   2.758  0.1964  0.1443  0.1414
21305W        W39509  10.261  12.600  12.289  0.0774 -0.1062 -0.0122
21306W        W39510   9.786   7.550   4.847  0.1141 -0.0434 -0.3214
21307W        W39511   2.382   0.881  15.557 -0.0636 -0.0756  0.0037
21308W        W39512  11.533   2.033   3.298  0.1413  0.3203 -0.0927
21309W        W39513  13.510   1.808   2.905 -0.0841  0.3263 -0.3024
21310W        W39514  14.348  12.213  14.900 -0.1157  0.1927  0.3818
21311W        W39515  13.130   9.392  14.900  0.1925 -0.0465 -0.2524
21312W        W39516   7.841   7.303  11.801  0.0918 -0.0358  0.1178
21313W        W39517  13.969  17.195   2.359 -0.2931  0.1925 -0.0355
21314W        W39518  10.908   6.615  14.866 -0.0909  0.4186  0.2193
21315W        W39519   6.436  13.707   3.107  0.2421 -0.0909  0.2975
21316W        W39520  15.121  13.853  17.408 -0.0676 -0.0908 -0.0386
21317W        W39521   7.466   3.868   5.267  0.0631 -0.0772 -0.0310
21318W        W39522   4.230  14.599   4.877  0.2888 -0.2204  0.1293
21319W        W39523   3.587  15.040  14.366 -0.0591 -0.5302 -0.4857
21320W        W39524  14.834  15.429   4.138  0.1795 -0.1184  0.1370
21321W        W39525  10.839   1.752   3.175  0.1198 -0.1653 -0.1414
21322W        W39526   7.358   8.752   1.084  0.1558  0.3714 -0.3088
21323W        W39527   2.460   1.921  13.865 -0.0855  0.2081  0.1816
21324W        W39528   7.360  12.063  12.535 -0.0661  0.0881  0.1878
21325W        W39529   9.125   7.652   2.157  0.2294  0.0691 -0.0101
21326W        W39530   0.373   5.082   0.316  0.0415 -0.0990 -0.0103
21327W        W39531   1.128  16.663  14.165  0.1151 -0.0819  0.0307
21328W        W39532  11.882  12.615   4.999  0.0507 -0.1477 -0.1222
21329W        W39533   8.802  12.492   4.003 -0.2163  0.2040  0.3582
21330W        W39534   9.747   2.223  16.567 -0.2123 -0.1647 -0.0323
21331W        W39535  16.096   4.321  12.085  0.0545  0.1566 -0.1621
21332W        W39536   7.290  14.981   2.842  0.1215  0.0149  0.0176
21333W        W39537  14.101   5.688   3.718  0.2081  0.1593  0.0182
21334W        W39538   6.513   5.477  15.138 -0.1707 -0.1450  0.1204
21335W        W39539   2.743   7.358  12.721 -0.0634 -0.0751  0.0243
21336W        W39540   6.684   8.896   0.376 -0.0521 -0.0235 -0.1144
21337W        W39541   0.019   0.292   3.438  0.2303  0.2945 -0.0848
21338W        W39542  10.302   6.644   4.747  0.0519  0.2527 -0.1087
21339W        W39543   5.812   7.279   4.764  0.2062 -0.3790 -0.2150
21340W        W39544   3.669   0.715   1.775  0.0644 -0.3286  0.3750
21341W        W39545  12.516  10.039  15.034  0.1747  0.1893  0.1727
21342W        W39546   1.079  13.696   0.571  0.0281 -0.0408 -0.5114
21343W        W39547   2.781  16.163  14.562  0.0498 -0.1499 -0.3026
21344W        W39548  13.599   8.911  12.879  0.1981 -0.2138  0.2047
21345W        W39549   5.799  10.950   2.167 -0.0079 -0.2234  0.0933
21346W        W39550   5.997   4.828  14.354 -0.2028 -0.1721 -0.1730
21347W        W39551  16.662  13.613   1.950  0.0511 -0.1665 -0.1078
21348W        W39552   4.515   0.242  15.125  0.0677 -0.1817  0.0120
21349W        W39553   6.013   9.809  14.583  0.0774  0.0437 -0.0729
21350W        W39554   6.590   7.555   4.255 -0.0933  0.2300  0.0545
21351W        W39555   1.970   5.322  14.457  0.1672  0.0674 -0.2168
21352W        W39556  14.534   5.959   1.925 -0.1409  0.0597 -0.1895
21353W        W39557   2.112  12.843   2.495  0.2576 -0.0562  0.1295
21354W        W39558   4.268  16.612   3.401  0.2193 -0.0090 -0.3481
21355W        W39559   6.592   1.983   2.600  0.0257  0.2007 -0.0587
21356W        W39560  10.360  12.353   3.352 -0.0835  0.0647  0.0559
21357W        W39561  15.771  14.841   3.373 -0.4243  0.1056  0.0007
21358W        W39562   8.582   4.618  13.134 -0.2896  0.2823 -0.4556
21359W        W39563   2.334   2.749  14.668  0.3415  0.0019  0.0550
21360W        W39564   8.981  14.463  16.688 -0.0924 -0.0138 -0.2056
21361W        W39565   3.488  10.693   2.395  0.0500  0.2828  0.0024
21362W        W39566   2.351  15.278  13.449  0.2793  0.1220 -0.1556
21363W        W39567  11.038   0.424  12.130  0.0858 -0.0610  0.1187
21364W        W39568   8.288  11.724  16.952  0.3304  0.3218  0.1544
21365W        W39569   4.125   6.935  16.300  0.0214  0.0675 -0.0453
21366W        W39570   7.734  10.127  13.845  0.0386  0.1861  0.2697
21367W        W39571   8.228   7.840  14.286  0.0239  0.0355 -0.0742
21368W        W39572   8.568  15.165  13.238 -0.1846 -0.1070 -0.0011
21369W        W39573   2.970  14.597   2.397  0.2410  0.0774 -0.1139
21370W        W39574  14.143   6.955   2.575 -0.0307  0.1068  0.1916
21371W        W39575   3.891   0.109   3.247  0.0923 -0.1059 -0.2048
21372W        W39576  12.142   4.190  17.160  0.0820  0.2743 -0.2771
21373W        W39577  11.025  17.269   5.302 -0.3811 -0.1106 -0.0475
21374W        W39578  11.793   9.604   4.731 -0.1063 -0.1849  0.2902
21375W        W39579   7.636   9.233   5.146  0.1118 -0.1352 -0.0456
21376W        W39580   4.641   7.503  17.398 -0.1670 -0.1528 -0.2465
21377W        W39581  16.023  13.371   1.201 -0.0943 -0.0183  0.0122
21378W        W39582   3.591   2.064   3.221 -0.3315 -0.1072 -0.0297
21379W        W39583  17.047   0.865   1.306  0.1486 -0.0377  0.0922
21380W        W39584   4.340   1.868   1.162 -0.1614  0.3615 -0.0754
21381W        W39585   4.465   0.921   0.730  0.2339 -0.3945 -0.0524
21382W        W39586   8.744  12.915  15.123 -0.0865  0.2110  0.1331
21383W        W39587  14.323  10.033   0.551 -0.1784  0.1996  0.2348
21384W        W39588   4.785  10.041  14.520  0.0366 -0.2183  0.1723
21385W        W39589   3.347  10.339   0.598  0.1928  0.1350  0.2214
21386W        W39590  16.813  12.903  15.606 -0.0653 -0.3414  0.0923
21387W        W39591  12.876   8.056   1.039 -0.0117  0.2157  0.2128
21388W        W39592  10.220   8.482  15.141 -0.2193 -0.1483  0.1585
21389W        W39593   5.855   8.128   3.905  0.0123 -0.3335 -0.1578
21390W        W39594  14.588  13.034   1.662 -0.0299 -0.2884  0.0253
21391W        W39595  11.142   6.314   4.724  0.0567  0.2647  0.0279
21392W        W39596   9.268  11.274   0.423  0.0141 -0.0122  0.2796
21393W        W39597   9.020   9.719   2.857  0.3960 -0.2745  0.0677
21394W        W39598  11.939   2.604  15.166  0.7061 -0.1302 -0.0354
21395W        W39599   7.457   1.271  13.709 -0.0597 -0.2103 -0.1359
21396W        W39600  13.582  15.722   2.810  0.0046  0.0422 -0.2679
21397W        W39601  13.649  15.131  16.895 -0.1656  0.1950 -0.0301
21398W        W39602  12.189  12.154   2.582 -0.2699  0.2901  0.0501
21399W        W39603   8.156   7.130   0.452 -0.0317  0.2181  0.0714
21400W        W39604  15.986   3.319   0.980 -0.0483  0.0756  0.1996
21401W        W39605   1.365   6.250   2.189 -0.0178  0.0683  0.0478
21402W        W39606  16.398  15.711   0.322 -0.0528 -0.4593 -0.0725
21403W        W39607   2.658  16.657   4.951 -0.1439  0.0431 -0.2650
21404W        W39608  14.976  14.775  16.669 -0.1294 -0.0995 -0.1065
21405W        W39609  12.190  13.808   2.793 -0.1382  0.2278 -0.2039
21406W        W39610   8.923  13.742  13.669 -0.2338 -0.0342  0.2275
21407W        W39611   7.272  17.226   2.097  0.0596  0.0967  0.3472
21408W        W39612   1.538   6.936   0.362  0.0730  0.4413 -0.1652
21409W        W39613  10.150   2.795   1.099 -0.1001  0.1779  0.0478
21410W        W39614  13.552   0.779  13.248  0.0506  0.1445  0.0359
21411W        W39615   2.799  11.131   3.786  0.2863 -0.2328  0.3749
21412W        W39616  16.782  13.406   5.301 -0.1447  0.1812 -0.1205
21413W        W39617   6.179   7.557  13.254 -0.1681  0.0569 -0.0544
21414W        W39618  13.185   4.532   0.832  0.0744  0.0913  0.1809
21415W        W39619  12.016   9.605   4.069 -0.3828 -0.3459 -0.1014
21416W        W39620  12.544   4.569  16.194 -0.2050 -0.1566  0.4974
21417W        W39621   2.676   5.987  16.851 -0.2935 -0.0251 -0.0512
21418W        W39622   3.211   9.272   4.957 -0.0266 -0.3516  0.1272
21419W        W39623   7.680  12.351   0.959  0.0731 -0.3496  0.4091
21420W        W39624  16.934   1.589  16.403  0.1852 -0.0435 -0.1232
21421W        W39625   6.486   2.640   3.316  0.0515 -0.0441 -0.0426
21422W        W39626  16.873   4.414   1.965  0.0375  0.1902 -0.2265
21423W        W39627   8.622  12.806   1.366 -0.1191  0.2030 -0.1204
21424W        W39628   0.633   0.858  13.902 -0.1500  0.1794 -0.0688
21425W        W39629   1.367  17.092  14.406  0.0944 -0.0330 -0.0447
21426W        W39630  16.729   1.621   1.876 -0.2037  0.0550 -0.0996
21427W        W39631   9.502  10.896  17.185  0.3219 -0.0038 -0.1295
21428W        W39632   6.257   7.053  12.661 -0.1686 -0.2053 -0.1784
21429W        W39633   1.242  10.120   2.739  0.1147  0.0407 -0.6094
21430W        W39634   7.212   5.692   3.287 -0.0377  0.1429 -0.1671
21431W        W39635  13.405  12.042  14.483  0.4281  0.0907  0.0523
21432W        W39636  12.028  12.245  14.261  0.0384 -0.3202  0.0384
21433W        W39637   4.778   2.778   2.543  0.0072  0.3954 -0.0834
21434W        W39638   5.394   3.108  15.686 -0.0723 -0.1912  0.0002
21435W        W39639  12.747   3.217  17.033 -0.0669  0.2122  0.1395
21436W        W39640   0.608  13.317  17.236  0.0588 -0.0066 -0.0849
21437W        W39641   4.383  13.099   4.761 -0.1492  0.1861 -0.1969
21438W        W39642   4.552   9.134  15.170 -0.2241  0.1598 -0.0988
21439W        W39643   6.532   4.292   2.481 -0.1587 -0.1090 -0.1206
21440W        W39644   1.491   6.069   3.123 -0.1890  0.0342  0.0620
21441W        W39645  11.460   4.902  17.185  0.1422  0.2355  0.1600
21442W        W39646   9.156   9.226   1.666 -0.0213 -0.1603  0.2396
21443W        W39647   0.136   0.735   1.084  0.0586 -0.0212 -0.0387
21444W        W39648  16.993   6.136   1.774  0.0239 -0.1404  0.2138
21445W        W39649   0.432   9.991  14.590  0.3783 -0.0418  0.1600
21446W        W39650   7.634   9.554  15.079 -0.0656  0.4032  0.1394
21447W        W39651   6.559  11.758   2.650  0.2023 -0.0021  0.2796
21448W        W39652   1.739   0.482   2.260  0.2313 -0.0375 -0.0213
21449W        W39653  16.034   9.747   5.269 -0.0649  0.0359  0.0352
21450W        W39654  14.198  14.910   0.333  0.1318  0.3233  0.5126
21451W        W39655   0.470   9.995  13.994 -0.0090  0.0456  0.1100
21452W        W39656   1.835  11.539   3.480 -0.3569  0.1374  0.3987
21453W        W39657   0.138   6.319   4.578  0.2399 -0.0875 -0.0387
21454W        W39658  11.578  13.096  17.038  0.2672  0.0781 -0.0076
21455W        W39659   2.302  14.438  15.695 -0.1362  0.0465  0.1166
21456W        W39660   7.150  13.077   3.582  0.0244 -0.1248 -0.0720
21457W        W39661   7.974  11.479   2.375  0.1338  0.0198  0.1540
21458W        W39662  16.100  17.053   3.229  0.1778  0.0546 -0.0478
21459W        W39663  10.114   4.938  14.507 -0.2766  0.1021 -0.1720
21460W        W39664  10.952  11.640   3.330  0.0344 -0.1962 -0.1967
21461W        W39665  16.478  15.810  16.298 -0.2266 -0.2542  0.2671
21462W        W39666   8.259   9.953   0.956  0.0821 -0.2414  0.1489
21463W        W39667   6.374  10.056   0.668  0.1906 -0.2553  0.3435
21464W        W39668   5.240  13.098  14.402 -0.0010  0.2959  0.1658
21465W        W39669   2.599  15.557  12.529  0.7034  0.0912 -0.0142
21466W        W39670   8.278   7.293  12.863  0.3474 -0.2188  0.2980
21467W        W39671   6.626   2.764   4.141  0.1992 -0.0474 -0.3266
21468W        W39672   7.696  10.351   1.371 -0.0707  0.1974 -0.1436
21469W        W39673   3.576  17.236   2.398 -0.1999 -0.0631  0.0210
21470W        W39674   1.109  15.470   2.174 -0.0599 -0.1345  0.0623
21471W        W39675  16.547  12.178   1.398  0.1472 -0.0984  0.0786
21472W        W39676  13.812   0.897   4.151 -0.2761 -0.0794  0.1907
21473W        W39677  16.060  11.234   0.120 -0.0380 -0.1817 -0.2540
21474W        W39678   6.898   3.692  11.098 -0.0972  0.2527 -0.2941
21475W        W39679  13.491   0.922   1.832  0.0577 -0.3233  0.1651
21476W        W39680   5.736  10.911  14.239 -0.0550  0.3747  0.1671
21477W        W39681  12.457   2.896  13.108  0.0101 -0.3229 -0.1431
21478W        W39682   0.273  11.734   3.106 -0.2969 -0.2470 -0.1648
21479W        W39683   3.478   8.952   0.411 -0.1487  0.0082 -0.0122
21480W        W39684   5.216   0.458  13.609 -0.0564 -0.1975 -0.3388
21481W        W39685   7.981  11.150   0.074 -0.1557 -0.2547 -0.0437
21482W        W39686   7.454  14.784   0.132  0.0597  0.1987 -0.1639
21483W        W39687   1.463  14.565   4.656  0.0688 -0.1138 -0.2853
21484W        W39688   9.289   7.531   4.869 -0.0092  0.0788 -0.1793
21485W        W39689  13.499   6.414  12.064  0.0394  0.2517  0.1247
21486W        W39690   7.414   7.909   3.913  0.0811 -0.0900 -0.0089
21487W        W39691   9.223   5.505   2.176  0.0300  0.0642  0.1655
21488W        W39692  14.259   2.987   5.255  0.4009 -0.0252 -0.0039
21489W        W39693   8.852   6.034  16.191  0.2011 -0.1010  0.0491
21490W        W39694  12.208  12.550  16.053 -0.0920  0.0944 -0.2379
21491W        W39695  17.121   3.970  15.671 -0.0117  0.0463 -0.3977
21492W        W39696  12.068   6.339   2.376  0.1153  0.0294 -0.1183
21493W        W39697   2.649  15.334  15.673 -0.1017 -0.1719  0.0630
21494W        W39698   9.790   6.817   4.972 -0.0533 -0.2827 -0.0078
21495W        W39699  10.076   3.887   5.446 -0.0942  0.2876 -0.0902
21496W        W39700  13.482   2.662  10.861  0.0855  0.0494  0.2732
21497W        W39701   2.128   2.076   2.564 -0.0537 -0.1430  0.2233
21498W        W39702   3.447   7.905   2.860  0.2849  0.2936  0.2366
21499W        W39703   2.261  10.261   5.130 -0.2426 -0.1631  0.5442
21500W        W39704   0.939  14.234   0.771  0.1466  0.1624  0.1328
21501W        W39705  13.689   6.114  12.403 -0.1971  0.1807  0.1594
21502W        W39706   1.263   1.842   4.844 -0.1961  0.1011  0.1287
21503W        W39707   8.246   5.507  17.005  0.2545  0.2333 -0.1585
21504W        W39708   9.228  11.298   1.056 -0.1784  0.2593  0.1281
21505W        W39709  12.597  16.148  12.905 -0.3593  0.0591 -0.0821
21506W        W39710  10.371   5.490  13.164  0.1963 -0.0513 -0.0203
21507W        W39711   6.931  12.009  13.553 -0.0088  0.0033  0.0300
21508W        W39712  12.686   6.814   5.747 -0.4641  0.1894 -0.2607
21509W        W39713  17.056  16.107   1.072  0.3325  0.1590 -0.1605
21510W        W39714  13.445   5.802  16.882 -0.1429  0.1963  0.2672
21511W        W39715  13.083   9.130  15.827 -0.0295  0.2339 -0.0263
21512W        W39716  12.311   5.486   4.020  0.0898 -0.0023  0.0862
21513W        W39717   1.320   0.543   2.724 -0.0354  0.0922  0.0186
21514W        W39718  11.336   6.674   4.981 -0.0287  0.1029  0.2460
21515W        W39719   6.118   8.764   1.761  0.0724  0.0680  0.1832
21516W        W39720  15.422   5.685  15.845 -0.0937 -0.0920  0.0055
21517W        W39721   5.005   5.008   1.096 -0.0857 -0.1812 -0.1597
21518W        W39722  17.038  10.278  13.857 -0.0030 -0.1829 -0.1173
21519W        W39723  10.705   6.873  17.255 -0.1380  0.0516 -0.4881
21520W        W39724   7.351   9.121   3.056 -0.2337 -0.1801 -0.2327
21521W        W39725   5.051   1.915   5.308 -0.1227 -0.3772  0.1668
21522W        W39726   0.399  12.273  15.665  0.3515 -0.3310 -0.0939
21523W        W39727  15.217   9.177   1.788 -0.0381 -0.0440 -0.3933
21524W        W39728   4.089  11.769  14.172 -0.0495 -0.0253 -0.1939
21525W        W39729  12.460   4.318   4.718  0.2428 -0.5470 -0.1355
21526W        W39730   8.608  14.916   1.121  0.0346  0.0241  0.1302
21527W        W39731   9.333  13.218  13.123  0.0756 -0.0975 -0.2511
21528W        W39732   3.771   5.873  14.708 -0.3223 -0.0332  0.0041
21529W        W39733   8.252  12.384   2.660  0.0077 -0.0047  0.2195
21530W        W39734   1.659   4.513  11.971 -0.0099 -0.0078 -0.1160
21531W        W39735   9.488  17.298   1.052 -0.2530  0.1655  0.0249
21532W        W39736   1.643  16.215  12.837  0.0759  0.0264 -0.1115
21533W        W39737  11.964   1.636  12.551 -0.0503  0.0706 -0.0132
21534W        W39738   7.456   9.384  14.525  0.2207 -0.1118 -0.2779
21535W        W39739  13.826   2.865   0.190 -0.2534 -0.0646 -0.0119
21536W        W39740   7.875   3.281   3.269  0.1915  0.1643  0.0193
21537W        W39741  16.275   3.421   5.040  0.1374 -0.1630 -0.1584
21538W        W39742  12.859   1.539   2.058  0.0291 -0.0356 -0.1546
21539W        W39743   7.655  11.437   1.077  0.0241 -0.3163 -0.0897
21540W        W39744   7.327   1.181  11.207 -0.0218  0.0306 -0.1194
21541W        W39745  13.243  11.178   5.443 -0.0045  0.3356 -0.3067
21542W        W39746   6.358  10.535   0.646 -0.0016 -0.2102 -0.2719
21543W        W39747  17.036   4.495   0.054 -0.1019 -0.1837 -0.0605
21544W        W39748  15.324  10.158  15.591  0.0768 -0.1602 -0.3594
21545W        W39749   8.822   4.878  15.071  0.0291 -0.0865  0.1534
21546W        W39750   4.998   0.236   2.541  0.1565 -0.0615 -0.1410
21547W        W39751   3.721   2.478  14.138 -0.0444  0.0554 -0.1760
21548W        W39752  10.409   7.901  15.584 -0.0630  0.0059  0.2755
21549W        W39753   0.193  13.645   3.147 -0.0080 -0.2477 -0.2055
21550W        W39754   5.254  12.232  16.482  0.0626 -0.0138 -0.2499
21551W        W39755  16.279   3.801   0.362 -0.0806  0.2789  0.0703
21552W        W39756  12.062  16.513   2.290  0.3673  0.0812  0.0259
21553W        W39757   2.641   2.778  13.353 -0.0326  0.1340 -0.3127
21554W        W39758  14.911   0.607   1.570  0.2514 -0.1153  0.0614
21555W        W39759   8.732   6.205   0.490  0.0416 -0.1642 -0.1796
21556W        W39760   1.341   0.514  16.822 -0.0353  0.2915  0.2411
21557W        W39761   7.917  13.175   3.100  0.0999 -0.2435 -0.0275
21558W        W39762   9.599   2.650  14.093  0.1082 -0.0192 -0.1318
21559W        W39763   3.742   1.581  11.427  0.0038 -0.1597 -0.0656
21560W        W39764  15.434   3.655  13.329 -0.4397 -0.1757  0.0040
21561W        W39765  13.013  11.987   2.940  0.0962 -0.3202 -0.0214
21562W        W39766  11.968  10.380   0.431  0.0873 -0.2686 -0.1267
21563W        W39767  16.916  11.281  14.708 -0.0024 -0.0584  0.4697
21564W        W39768   1.527  11.450  14.402  0.2434  0.1327 -0.0205
21565W        W39769  16.343   8.769  12.156 -0.0839 -0.2245  0.1393
21566W        W39770   5.652  16.472   2.349 -0.1031  0.2536 -0.0200
21567W        W39771  13.590   5.176   2.255  0.1529  0.1935  0.0602
21568W        W39772  14.509  10.038  15.045 -0.1850  0.1414  0.1981
21569W        W39773   2.877   4.652  13.156  0.3734  0.1582  0.2323
21570W        W39774  15.470  17.117   1.683  0.0855 -0.1743 -0.1899
21571W        W39775  13.037  11.815   4.229 -0.0508 -0.4935 -0.0997
21572W        W39776  12.173   0.250   4.875 -0.0836  0.2105  0.1568
21573W        W39777   9.306   5.773   1.691 -0.1383  0.0893  0.2435
21574W        W39778  14.110   6.087  13.180  0.0298 -0.0080 -0.1387
21575W        W39779   1.404   9.853   4.775 -0.0333  0.2189  0.0826
21576W        W39780   3.392   2.157  15.956 -0.4059 -0.0034  0.2066
21577W        W39781   6.876   5.859  16.560  0.1816 -0.1281  0.1480
21578W        W39782  16.427  15.635  17.223 -0.0005 -0.1785  0.0427
21579W        W39783   7.514   5.392   2.586  0.1658 -0.2010  0.0581
21580W        W39784   1.102  17.195   3.292 -0.1515  0.2340 -0.3091
21581W        W39785  13.494   4.029   5.224 -0.0041 -0.0333  0.1105
21582W        W39786  12.474  16.761  17.164 -0.2153  0.1139  0.1947
21583W        W39787   3.931  17.297  12.477  0.0101  0.2757 -0.0501
21584W        W39788   6.748  13.023   1.633  0.2878 -0.4076  0.0883
21585W        W39789   8.811  14.458  12.789  0.2169  0.0807  0.0208
21586W        W39790  15.675   9.753  13.262 -0.2081  0.1912  0.0604
21587W        W39791   9.336   7.309  12.793  0.0222 -0.0759  0.1665
21588W        W39792  15.559   3.671  14.454 -0.1241 -0.0419  0.1288
21589W        W39793   8.173  11.241  16.659 -0.3452  0.0550  0.1290
21590W        W39794  15.508  12.833  15.611 -0.1294  0.2937  0.2864
21591W        W39795   7.498   6.878  17.366 -0.4636  0.0982 -0.0532
21592W        W39796   7.447  10.949   0.481  0.3665 -0.1555  0.1863
21593W        W39797   4.735  15.606   1.379 -0.0658  0.0410  0.2597
21594W        W39798   2.263   9.888  12.648  0.4871  0.0729  0.0777
21595W        W39799   3.725   6.386   2.714  0.0826  0.3920 -0.0528
21596W        W39800  11.108   2.743   5.379  0.0506  0.0806  0.2118
21597W        W39801  14.752   8.733   2.446  0.2470  0.1287  0.3217
21598W        W39802  14.288   6.375   2.467  0.0317 -0.0516  0.0668
21599W        W39803   8.587   0.085  15.118 -0.1449 -0.0969 -0.2861
21600W        W39804   2.355   2.145  13.437  0.0145  0.4137  0.2487
21601W        W39805  11.274  12.203   3.946 -0.2756  0.2848  0.0446
21602W        W39806  12.642   5.650   3.600  0.0733 -0.1812  0.0112
21603W        W39807   8.066  12.066   1.459 -0.1447  0.1253  0.0018
21604W        W39808   0.859  16.528   0.876  0.0548 -0.1554  0.1964
21605W        W39809   2.358   2.180   4.976 -0.4009  0.1582 -0.0499
21606W        W39810   0.790   5.570  16.810 -0.1093 -0.0261  0.1638
21607W        W39811  15.531  15.925  11.843 -0.0696  0.0846  0.4274
21608W        W39812   8.065  10.129  11.925  0.0931 -0.0133 -0.0956
21609W        W39813   6.990  16.475  13.856 -0.0905  0.1097 -0.1950
21610W        W39814  15.470   9.862  16.127  0.2298  0.1595 -0.0419
21611W        W39815   7.747  12.246   5.584 -0.1128 -0.1633 -0.2259
21612W        W39816   7.480   1.240  11.797  0.1235 -0.0955 -0.1162
21613W        W39817   1.368   2.460   3.755 -0.2795  0.0889  0.1082
21614W        W39818   8.260   2.353   1.809 -0.3862  0.0144  0.1791
21615W        W39819   8.356  10.097  12.617 -0.1990  0.1208 -0.1575
21616W        W39820   7.171  13.753  13.254 -0.2918 -0.1026 -0.2052
21617W        W39821  15.776   8.775  13.933 -0.0949  0.3824  0.0057
21618W        W39822   0.013   6.014   0.972  0.4102 -0.1673  0.2926
21619W        W39823   4.198   8.134   3.092 -0.3418 -0.2690  0.1504
21620W        W39824  10.685  12.966  16.422  0.2781  0.1268 -0.2826
21621W        W39825  14.959   4.632   4.676  0.0631 -0.0564  0.1081
21622W        W39826   3.572  15.383   0.768  0.0197  0.1038 -0.0859
21623W        W39827   9.487   7.393   2.402  0.0741  0.1247 -0.1036
21624W        W39828   1.386  10.322   3.170 -0.0050  0.1742 -0.0774
21625W        W39829   8.600   2.841   0.550  0.0888  0.0245  0.2293
21626W        W39830  14.286   6.393   5.361 -0.0742  0.3380 -0.1824
21627W        W39831  16.538   3.722  16.176  0.1016  0.0966  0.1243
21628W        W39832   9.002   9.376  15.741  0.0189 -0.2051 -0.0163
21629W        W39833  13.380  11.935  15.869 -0.1475 -0.2077  0.1530
21630W        W39834  14.512   3.061   5.688 -0.0705  0.0267  0.0437
21631W        W39835   3.859  11.459   0.147 -0.0415  0.0936  0.1784
21632W        W39836   6.607   4.163  13.741 -0.3825 -0.1270 -0.0894
21633W        W39837   3.642   7.319   3.300 -0.2654  0.0073 -0.2722
21634W        W39838   5.169  13.658   1.749  0.1199 -0.0058 -0.1799
21635W        W39839   1.315   2.093  13.617 -0.1290  0.4779 -0.0266
21636W        W39840  12.673  13.325   3.317  0.2001  0.2791 -0.1155
21637W        W39841   9.798  15.103  15.551 -0.0027 -0.2345  0.1207
21638W        W39842  10.631  10.056   1.785  0.2735 -0.2795 -0.0161
21639W        W39843  13.440   7.355   1.718  0.4711 -0.1346  0.1943
21640W        W39844  10.861  14.291  13.793 -0.2364 -0.0104  0.2799
21641W        W39845   7.916  11.251  15.684 -0.2578  0.1145  0.0886
21642W        W39846   9.125   3.722  15.662 -0.0377 -0.0162  0.0531
21643W        W39847   9.664  12.039  17.448  0.1144  0.0531 -0.1107
21644W        W39848  13.040  12.092   5.278  0.1677  0.0252  0.0470
21645W        W39849   5.904   6.013   1.030 -0.2260 -0.0909 -0.0313
21646W        W39850   9.424   4.036  14.347 -0.0595  0.0898  0.0282
21647W        W39851   5.607   7.874   4.350  0.0174  0.0351 -0.0180
21648W        W39852   6.156   5.701  11.623 -0.0550 -0.0603 -0.4069
21649W        W39853  14.195  17.098  15.599  0.1314 -0.2996  0.1828
21650W        W39854  10.103   3.513  14.343 -0.4505 -0.0347  0.0741
21651W        W39855  17.075  13.045   4.487 -0.0880 -0.0759  0.0690
21652W        W39856   8.561   6.679  16.419 -0.1737 -0.0597 -0.1208
21653W        W39857  12.175  15.751  15.778  0.1688  0.1268 -0.3597
21654W        W39858   6.198   3.616  13.934  0.1528 -0.0958  0.3242
21655W        W39859   1.673   5.653  16.610 -0.1571 -0.1632  0.0756
21656W        W39860  10.842   5.300  15.582  0.3451 -0.0053 -0.3189
21657W        W39861  15.004  16.485   2.948  0.1329  0.1422 -0.0207
21658W        W39862  16.606   4.310  13.783 -0.0765  0.1783  0.0505
21659W        W39863   3.923   4.764   4.846  0.1966  0.3054 -0.1663
21660W        W39864  10.568   8.379  15.556  0.1637  0.1031 -0.0467
21661W        W39865  17.041  10.981  16.566  0.2236 -0.0841  0.0009
21662W        W39866   1.680   5.856   4.687 -0.2040 -0.2670  0.1931
21663W        W39867   1.494   1.070  15.425  0.0084  0.2317 -0.1307
21664W        W39868  15.298  15.342   3.677  0.0774  0.2497  0.0678
21665W        W39869   7.558   4.343  13.714  0.1224 -0.1755  0.0522
21666W        W39870   9.697   8.664   2.864  0.1094 -0.3996  0.3368
21667W        W39871   6.214  15.670   0.131 -0.1527  0.1185  0.2180
21668W        W39872   7.861  12.667   5.252  0.0075  0.0760 -0.3652
21669W        W39873   3.033   3.778   4.006  0.1506  0.0898  0.1067
21670W        W39874   8.805  13.155   3.828 -0.1154 -0.1204 -0.0824
21671W        W39875  11.426  13.899  16.901 -0.4081  0.1298  0.0468
21672W        W39876  14.630   4.482  13.848  0.0700  0.0040  0.0254
21673W        W39877  13.934   1.864  14.751  0.1305  0.1405 -0.2183
21674W        W39878   5.756  11.023  15.119 -0.0055  0.0000  0.3727
21675W        W39879  13.720  11.245   6.400 -0.0482  0.2823  0.3230
21676W        W39880   5.320   5.141  15.861 -0.3009  0.0501  0.1148
21677W        W39881   4.988   9.941  15.264  0.1225 -0.2697  0.1374
21678W        W39882  12.750  13.029  12.289  0.0451  0.0468 -0.2482
21679W        W39883   6.892   6.290   2.015  0.3076  0.0285  0.0674
21680W        W39884   4.212  16.256  15.394 -0.0735 -0.3670  0.3471
21681W        W39885   5.289  11.447   1.748  0.1069 -0.0524 -0.0449
21682W        W39886  14.351   1.872  12.246 -0.1421 -0.1636 -0.1441
21683W        W39887   3.357  12.093   2.577  0.1157  0.1003 -0.0141
21684W        W39888   0.342  16.840   0.229 -0.2647 -0.3854 -0.0028
21685W        W39889   5.334   1.254  15.112 -0.2780 -0.1338 -0.1084
21686W        W39890  14.754   7.369   2.216  0.1678 -0.0751 -0.1721
21687W        W39891  12.122  14.749   3.504  0.0023 -0.0454  0.0312
21688W        W39892  13.996   4.545   1.632  0.0326 -0.2899  0.1926
21689W        W39893   0.446   0.423   3.729 -0.2568 -0.1334  0.1400
21690W        W39894   4.670  13.874   1.410  0.1326  0.0287 -0.3829
21691W        W39895  12.853   1.248  15.020 -0.4149  0.0262 -0.1994
21692W        W39896  12.045  13.678  13.739 -0.1084  0.0815 -0.1577
21693W        W39897  16.539   4.981  13.197 -0.0630 -0.2388 -0.3834
21694W        W39898   1.922  11.032  16.950  0.2446 -0.1743 -0.1530
21695W        W39899   6.097  17.264   1.813 -0.1478 -0.1980  0.1403
21696W        W39900   4.123   2.758  16.146  0.1483 -0.2258 -0.0091
21697W        W39901  10.508  10.099  13.261  0.1208  0.0532 -0.1798
21698W        W39902  15.264   8.043  14.027 -0.0209  0.1496  0.4065
21699W        W39903  14.018  10.985   2.905  0.0596  0.1315 -0.1897
21700W        W39904   1.368   2.626   2.581  0.2428  0.1641 -0.0769
21701W        W39905  13.208   7.916  12.528 -0.2891 -0.0612  0.0324
21702W        W39906  16.426  12.669   1.566  0.1909 -0.0422 -0.0847
21703W        W39907   7.784   6.143   2.033  0.1226 -0.1314  0.1383
21704W        W39908  15.333  10.716   1.147  0.2960  0.2846  0.3297
21705W        W39909  12.020  11.784  16.727  0.0715  0.0089  0.2080
21706W        W39910   0.547   1.699  15.292  0.1821  0.3263 -0.0888
21707W        W39911   1.391  14.148   2.000 -0.0108 -0.2148 -0.0433
21708W        W39912   3.378  16.862  14.056  0.0050  0.2604  0.2114
21709W        W39913  10.270   2.225  16.511 -0.0172 -0.0567 -0.0395
21710W        W39914  12.781   5.688  13.863  0.0997  0.3831  0.0563
21711W        W39915   2.255   9.177   2.890  0.0913 -0.3503  0.1901
21712W        W39916   0.351  15.661  13.167  0.3764  0.1069 -0.0722
21713W        W39917   5.118   7.099   3.353  0.0816  0.2877 -0.2141
21714W        W39918  14.738   0.772  11.400 -0.1063  0.1423  0.1693
21715W        W39919  10.532  12.022  13.416 -0.1072 -0.1568  0.3603
21716W        W39920   9.689   2.335   3.496 -0.2920 -0.0311 -0.0859
21717W        W39921  15.374  11.487  15.992 -0.2343  0.1585  0.0008
21718W        W39922   9.900  11.361  14.227 -0.0144  0.1055 -0.0454
21719W        W39923   8.831   8.498  12.710 -0.0717  0.1062  0.0734
21720W        W39924   6.454   3.471   2.186 -0.2358  0.0643 -0.0288
21721W        W39925  10.054  13.831  14.192  0.2827  0.2441  0.0463
21722W        W39926   9.098   9.061  13.254 -0.2383 -0.0405 -0.0334
21723W        W39927  15.035   4.013   0.924  0.1726 -0.3554  0.3690
21724W        W39928   1.116  15.161   4.975 -0.2046  0.0684  0.4465
21725W        W39929   0.978   8.408   1.367 -0.0440  0.1640 -0.3654
21726W        W39930   3.629  16.112  16.537 -0.0914  0.1443  0.0569
21727W        W39931  17.111   3.374   0.764 -0.2047  0.0850 -0.0723
21728W        W39932   9.045  14.769   1.336  0.3510  0.0526  0.1830
21729W        W39933   7.518  14.389  11.779 -0.1251  0.6185  0.0655
21730W        W39934   4.288   6.542   3.199  0.1751  0.0414  0.4138
21731W        W39935  11.539  12.612   1.021 -0.4452  0.0321  0.4013
21732W        W39936  11.171  14.797  15.362 -0.2427 -0.0878  0.2180
21733W        W39937   7.732  12.777  15.372  0.2792  0.1697 -0.1356
21734W        W39938   6.296  10.423   2.058 -0.1367 -0.0855  0.1029
21735W        W39939   5.359  17.132  15.207 -0.1474 -0.1072 -0.2499
21736W        W39940   7.288   7.872  12.555  0.1332 -0.2496  0.2608
21737W        W39941   1.810   7.856   5.409 -0.1564 -0.0114  0.0466
21738W        W39942   1.257   1.581   0.898  0.0298  0.1805 -0.1433
21739W        W39943  11.275   6.801  16.570  0.4736  0.0933  0.1339
21740W        W39944  14.501  17.177   4.107 -0.0657  0.3166  0.1055
21741W        W39945   0.455   4.530   2.062  0.1253 -0.1895 -0.1236
21742W        W39946  10.827  15.572  13.375  0.0555  0.2576 -0.1293
21743W        W39947  12.041   9.139  14.919 -0.1078  0.0552 -0.0044
21744W        W39948   8.026   0.296  16.422 -0.1640 -0.1073  0.1715
21745W        W39949   1.741  13.266   1.833 -0.0103 -0.0605 -0.0987
21746W        W39950   7.057  15.154   4.731 -0.0854 -0.2949 -0.1607
21747W        W39951  11.698   1.192  15.350 -0.1325  0.0092 -0.1687
21748W        W39952  16.402   8.684  17.460 -0.1579  0.0161  0.1504
21749W        W39953  11.038   1.251  16.082  0.2248 -0.0039 -0.0726
21750W        W39954   8.788   1.359  12.483  0.1211 -0.0306  0.0833
21751W        W39955   8.762   8.202  13.794  0.1271 -0.1965 -0.1800
21752W        W39956   2.995  13.159   0.645  0.1131  0.0090  0.0574
21753W        W39957   2.644   5.299   1.006  0.1513 -0.1625 -0.2335
21754W        W39958   6.046   1.182   4.356  0.0899  0.1451 -0.0905
21755W        W39959   9.750   6.942  17.441  0.0044  0.2305 -0.0430
21756W        W39960   2.756   7.479  15.284 -0.2593  0.0769 -0.0897
21757W        W39961  14.985   4.233  15.811 -0.0556  0.2347 -0.2402
21758W        W39962   6.923   2.087  12.601  0.1373 -0.2507 -0.2283
21759W        W39963  17.206  14.281   1.915  0.3295  0.1315 -0.5001
21760W        W39964  12.362  15.933  15.383 -0.2932  0.2886 -0.2760
21761W        W39965   3.203  15.461   4.528  0.2669 -0.2102  0.1323
21762W        W39966  12.676   5.061   4.231  0.3090  0.1658 -0.0870
21763W        W39967  12.861   7.748  13.935  0.0963  0.1000 -0.1741
21764W        W39968  12.181   5.810  17.528 -0.0549  0.0197  0.0677
21765W        W39969  14.093  13.803   1.874  0.2085  0.0414  0.1226
21766W        W39970   7.019   0.449   3.908 -0.1921 -0.1229 -0.0640
21767W        W39971  17.028   2.600  15.382  0.2311  0.1045  0.2385
21768W        W39972   7.338  13.851   4.102 -0.1499 -0.1491  0.0541
21769W        W39973   7.964   6.610   0.313  0.0171 -0.1256  0.0867
21770W        W39974   5.088   7.792  13.748  0.3510  0.0337 -0.4055
21771W        W39975  15.446   7.948  12.499 -0.2234 -0.0001  0.2183
21772W        W39976   0.501   9.612  16.003 -0.3747 -0.0682  0.3311
21773W        W39977  12.457   1.848   5.031 -0.0444  0.0520  0.0636
21774W        W39978   0.287  10.893  16.663  0.0381  0.0020 -0.3341
21775W        W39979  14.871  15.712  17.134  0.2716 -0.1958  0.1243
21776W        W39980  15.552   7.565  12.869  0.0466  0.2333  0.0413
21777W        W39981   2.149   2.144   0.238  0.0256 -0.0613  0.0085
21778W        W39982   2.631  14.779   5.362 -0.0310 -0.1722 -0.1163
21779W        W39983   4.390  12.209  13.996 -0.0994  0.2654  0.3527
21780W        W39984   8.188  11.994   2.303 -0.1762  0.4063 -0.1113
21781W        W39985   2.945  13.397  12.904 -0.0009 -0.3323 -0.0289
21782W        W39986  11.723   2.441  16.419  0.0049  0.0240 -0.1785
21783W        W39987  11.046   0.634  17.286 -0.0793 -0.0479  0.1683
21784W        W39988  14.594   6.023  15.607 -0.0944 -0.0259  0.2030
21785W        W39989   5.169   8.546  14.457  0.2131  0.5553 -0.2380
21786W        W39990   5.608   5.164   5.059  0.4015 -0.1606  0.0461
21787W        W39991   3.292   2.921  13.227 -0.2494 -0.3842 -0.1598
21788W        W39992   5.437   7.607   4.681 -0.0479  0.0825 -0.1946
21789W        W39993  11.749  15.835   3.447 -0.4197 -0.0621 -0.1713
21790W        W39994  16.363  14.809   2.647  0.0211  0.0937  0.2496
21791W        W39995   9.664   7.462  15.281 -0.0727  0.1306  0.1865
21792W        W39996   0.891   8.586   4.996 -0.0197 -0.0740  0.1819
21793W        W39997   3.512   3.756  14.582  0.0679 -0.1297  0.2791
21794W        W39998   4.729  10.721   5.109 -0.0443  0.0437  0.2004
21795W        W39999   3.255   3.292   3.114 -0.0209 -0.0666 -0.1160
21796W        W40000  15.452   2.619  12.612 -0.0404  0.2002  0.0831
21797W        W40001   6.269  13.517   1.578  0.0188 -0.0760  0.2416
21798W        W40002   6.439  12.689  13.201 -0.1601 -0.1979  0.1002
21799W        W40003   5.259   2.882  15.262 -0.2316  0.0176 -0.1020
21800W        W40004  16.217   2.462  14.823 -0.1672 -0.0049  0.3715
21801W        W40005  11.570   6.160  13.858 -0.0420  0.2859  0.2507
21802W        W40006   5.391   9.447  12.377 -0.0831 -0.1154  0.0707
21803W        W40007  15.588   5.720   3.153 -0.2779  0.2724  0.0507
21804W        W40008   8.179  11.626  15.898 -0.1912  0.2961  0.0740
21805W        W40009   0.133   9.334   3.209 -0.2222  0.0146 -0.3121
21806W        W40010   2.559   8.504  17.150 -0.2770 -0.4846 -0.1068
21807W        W40011  14.919   6.305  13.036  0.1613 -0.1557 -0.1639
21808W        W40012   2.458   7.520   0.268  0.0110  0.1319 -0.2558
21809W        W40013  11.826  11.207   2.011 -0.3355  0.2235 -0.0475
21810W        W40014   2.109   0.743   2.525 -0.0820  0.3302 -0.4196
21811W        W40015   2.779  14.882   2.743 -0.2366 -0.1379 -0.0219
21812W        W40016   9.531  10.930   1.495  0.1449  0.0796  0.1209
21813W        W40017  12.565  14.971   1.831 -0.2185 -0.1620  0.0693
21814W        W40018  16.538   6.271  14.324  0.0485  0.1564 -0.3969
21815W        W40019  10.045   7.319   0.120 -0.2104  0.1534  0.2233
21816W        W40020  15.148   1.303   1.014 -0.2358 -0.2107 -0.1215
21817W        W40021   4.823   4.805   0.059 -0.1015 -0.0745  0.0638
21818W        W40022   2.998   8.647   1.836  0.0094 -0.0900  0.2362
21819W        W40023  10.442  16.003   0.019 -0.1952 -0.3368  0.2690
21820W        W40024  17.182  13.086   5.429 -0.1789  0.1666  0.3135
21821W        W40025   5.699   1.375  13.983 -0.1530 -0.0750  0.0563
21822W        W40026   1.425   8.028   3.475  0.1891  0.2953 -0.1650
21823W        W40027  14.849   1.969  16.849 -0.1436  0.0342 -0.3503
21824W        W40028   4.360   8.767  14.214 -0.2973  0.2074  0.2337
21825W        W40029  16.115   0.882   0.182 -0.1429 -0.2899 -0.1278
21826W        W40030   4.722  14.253  16.493 -0.1827 -0.0576  0.2471
21827W        W40031  14.952   8.080   0.414  0.0996  0.1535  0.1889
21828W        W40032   3.631   9.065  16.906  0.0815  0.2189  0.4085
21829W        W40033   0.248   3.130  10.917 -0.3537  0.1048  0.0327
21830W        W40034  14.066   0.888   1.975 -0.1220  0.0262 -0.1754
21831W        W40035   0.901   7.235   0.272 -0.0977  0.3305  0.0443
21832W        W40036   9.572   1.505   2.134  0.4856  0.0375 -0.1066
21833W        W40037   1.520   4.830  15.350  0.0226 -0.2088  0.1642
21834W        W40038   8.762  16.216  14.006 -0.0293  0.1878  0.0650
21835W        W40039  15.602   1.513  13.248  0.1264 -0.1729 -0.3074
21836W        W40040   8.950   5.194  15.899 -0.3629 -0.0861 -0.3590
21837W        W40041   6.092  15.848  16.434  0.0524  0.3457 -0.1693
21838W        W40042   6.280  16.282   2.383 -0.0711 -0.0467  0.0731
21839W        W40043  10.052   6.705   3.246  0.1449  0.1058 -0.1169
21840W        W40044  17.203  10.653   2.517  0.1743  0.0642  0.0585
21841W        W40045   6.861   1.805   3.820 -0.3233  0.0054  0.0594
21842W        W40046   4.879   1.995  13.183  0.2796 -0.1740  0.2250
21843W        W40047  14.417   2.963   0.851  0.1426  0.1351  0.1497
21844W        W40048   9.922   2.920   4.178  0.0600 -0.2675 -0.0406
21845W        W40049  16.882   7.918   4.773  0.1950  0.1069  0.0869
21846W        W40050   4.256  16.808  16.675 -0.0669  0.0407 -0.0601
21847W        W40051   3.540   2.395  11.457 -0.2759 -0.0469  0.3048
21848W        W40052  14.926   3.002  14.629  0.1447  0.0180 -0.2013
21849W        W40053  13.616  15.927   4.851 -0.1266 -0.0287  0.2052
21850W        W40054  13.610   7.066   3.434 -0.1088  0.1106  0.2734
21851W        W40055  13.377  12.759  14.134  0.1777  0.2303  0.1139
21852W        W40056  14.900   0.422   5.374  0.2415 -0.2166 -0.1103
21853W        W40057   0.269  13.554   0.449 -0.0932  0.1346  0.1509
21854W        W40058  11.748   1.269   1.773  0.0068 -0.0863 -0.1003
21855W        W40059   5.999   4.798  15.301 -0.0734 -0.1684  0.1137
21856W        W40060   2.918   0.865   3.934 -0.1244  0.2173 -0.2349
21857W        W40061  11.893   7.199  17.136 -0.0595  0.1409  0.1878
21858W        W40062  10.936   9.041  16.196  0.1530 -0.3606  0.1413
21859W        W40063  14.958   7.234  12.920 -0.2521  0.0659  0.0157
21860W        W40064   3.634  14.167  14.872  0.0502 -0.2737 -0.1717
21861W        W40065   4.758   3.388   0.840  0.0328  0.1941  0.0113
21862W        W40066  15.375  12.070  14.544 -0.1188  0.2227 -0.2450
21863W        W40067   5.307  15.642  16.369  0.0147  0.0871  0.0692
21864W        W40068   3.700  14.650   3.061  0.0647  0.2305 -0.0524
21865W        W40069   0.497   5.280   1.683  0.1105  0.0554  0.2979
21866W        W40070  12.546  15.315   0.717 -0.0720 -0.4828 -0.0716
21867W        W40071   5.495  12.865  17.174 -0.1851 -0.1017 -0.2465
21868W        W40072  16.945  12.758  12.195 -0.1694  0.0895 -0.0218
21869W        W40073   0.362   0.053   3.154  0.2143 -0.0304  0.2263
21870W        W40074   7.603  12.411   3.183  0.1925  0.1699  0.1621
21871W        W40075  17.150   2.457  16.454  0.2335  0.2696 -0.0879
21872W        W40076  11.709  16.991   2.489  0.0812  0.0943  0.2459
21873W        W40077  12.550   9.454  16.817  0.2154  0.0278  0.0949
21874W        W40078  13.279   4.638   0.350 -0.1259  0.2164 -0.1117
21875W        W40079   4.330   2.859  17.001 -0.1722 -0.2165 -0.2513
21876W        W40080  12.676  11.625   3.055 -0.1646 -0.0050 -0.1982
21877W        W40081  12.461   7.348   5.124  0.1297  0.3130 -0.0791
21878W        W40082   2.166   6.389  14.680  0.1124 -0.0700 -0.1854
21879W        W40083   2.058   8.782  13.977 -0.2411  0.2611  0.0807
21880W        W40084  16.614   0.574  14.397 -0.1111  0.1042  0.0237
21881W        W40085   8.550   0.001  16.407 -0.3774  0.0354  0.0661
21882W        W40086  14.550   6.651   4.257  0.3203 -0.0714  0.0601
21883W        W40087  12.959   7.977  16.738  0.3101  0.1388 -0.3110
21884W        W40088   5.599   0.227  13.876  0.1295  0.1612 -0.1732
21885W        W40089  12.250  14.826  14.588 -0.2696  0.0334 -0.1408
21886W        W40090  11.742  10.384   1.410  0.1939  0.0875 -0.0717
21887W        W40091   5.330   0.866   1.214  0.3477  0.0932 -0.3029
21888W        W40092  15.674   1.032   1.954 -0.0213 -0.2287  0.1322
21889W        W40093   2.241  13.126  13.352  0.1192  0.3192 -0.1711
21890W        W40094  10.938   4.035  15.133  0.1662 -0.0078 -0.1651
21891W        W40095   4.828  16.101  13.053  0.0004 -0.2054  0.0146
21892W        W40096  11.575   3.025  15.279 -0.0412  0.2324  0.1494
21893W        W40097  11.673   5.485   2.316 -0.0651 -0.2075  0.0224
21894W        W40098  12.448   9.619   0.399  0.2333  0.1426  0.4506
21895W        W40099   4.803   8.291  12.385  0.0312  0.2536 -0.2497
21896W        W40100  10.925   1.239   4.449 -0.1835  0.0787  0.1404
21897W        W40101  12.915   2.720  13.239 -0.1500  0.2318 -0.0242
21898W        W40102   2.572   6.880  12.674 -0.0208  0.0064  0.1214
21899W        W40103   1.747   3.685   5.025  0.1751 -0.1543  0.1753
21900W        W40104  16.334   8.198  11.909  0.2364  0.0365  0.0026
21901W        W40105   3.867  12.009  12.330  0.1248  0.1020 -0.1711
21902W        W40106   9.384   7.626  14.512 -0.0866  0.0428 -0.1145
21903W        W40107   9.909   1.897   3.262 -0.0323  0.3427  0.2688
21904W        W40108   7.371  14.090   2.225  0.0725 -0.2048  0.1973
21905W        W40109  16.054  14.156   4.811  0.0789  0.1608 -0.3760
21906W        W40110  12.358  11.496   2.671 -0.0162 -0.0462  0.0758
21907W        W40111  15.784   0.300  15.247 -0.0182 -0.0652  0.1684
21908W        W40112  16.905  10.814   5.190  0.0188  0.0111 -0.1358
21909W        W40113   0.407  14.526  17.070 -0.2789 -0.0379 -0.0574
21910W        W40114  12.664   9.681  14.666 -0.0786 -0.0652  0.0101
21911W        W40115  11.826   3.155  12.606 -0.0890 -0.1759  0.4768
21912W        W40116   3.443  12.278   0.230 -0.0035 -0.1133 -0.1760
21913W        W40117  10.227  12.933   2.587  0.2976  0.0459  0.1116
21914W        W40118   3.846   8.743  11.437 -0.1025  0.0496 -0.1425
21915W        W40119   6.512   9.397  13.236  0.0319 -0.0488 -0.2569
21916W        W40120   2.532  14.890   1.023 -0.1997  0.0713 -0.0394
21917W        W40121  11.645   8.129   5.930 -0.2563  0.0731 -0.0341
21918W        W40122  12.572   2.668  15.299  0.0428  0.0897 -0.2711
21919W        W40123   0.612   4.089   2.948 -0.1790 -0.0312 -0.3103
21920W        W40124   7.567   6.076  16.510  0.3570 -0.1339 -0.1474
21921W        W40125   8.256   7.191   4.420  0.0089  0.0223 -0.0460
21922W        W40126   7.643  17.112   3.860 -0.1540  0.1127 -0.1381
21923W        W40127   0.543  10.752   0.565  0.3036  0.4154 -0.3915
21924W        W40128   7.732   4.904   2.727  0.3951  0.0654  0.4226
21925W        W40129   8.803   0.055   0.370  0.0296  0.0738 -0.2500
21926W        W40130   6.458   3.189   3.316 -0.1150 -0.0089 -0.1378
21927W        W40131  14.963  13.647   2.117  0.2660 -0.0200  0.0028
21928W        W40132   3.767  11.536   5.526 -0.0565  0.1804 -0.0451
21929W        W40133   7.900  17.254  14.244  0.0942  0.1298  0.2070
21930W        W40134   9.788  13.396  13.949 -0.1676  0.0306  0.1836
21931W        W40135  15.026   7.687   0.680 -0.1388  0.2981 -0.1949
21932W        W40136   9.991  16.879  16.452  0.2769 -0.0771 -0.3427
21933W        W40137  14.236  12.128   3.645  0.1108  0.0475  0.3068
21934W        W40138   3.773   8.127  15.342 -0.1296 -0.1198  0.0800
21935W        W40139  13.951  13.296  15.919 -0.0629 -0.1699  0.0678
21936W        W40140   5.867  15.862   0.435  0.2437  0.0796 -0.2565
21937W        W40141   3.255  11.749  14.357  0.0604  0.4013 -0.0647
21938W        W40142  12.780   8.000  15.032  0.2634 -0.0853  0.2954
21939W        W40143  10.704   6.998  16.518  0.0772  0.2313  0.0185
21940W        W40144   9.872   9.282   2.665 -0.2053  0.0892  0.1754
21941W        W40145   7.612  15.456  12.981 -0.0482  0.2521  0.1237
21942W        W40146   2.996   6.712  13.003 -0.0681 -0.0881 -0.0441
21943W        W40147  12.652   5.741   5.148 -0.1624 -0.0705  0.0832
21944W        W40148  14.931  17.194  13.864 -0.1473  0.0174  0.1122
21945W        W40149   2.875   4.314   3.978  0.1822 -0.0599 -0.0969
21946W        W40150   8.890   5.866  15.172  0.2201 -0.1483  0.0165
21947W        W40151  16.770   3.315  14.215  0.2260  0.1853  0.2089
21948W        W40152   7.045   5.184  12.853  0.0486 -0.0856 -0.2840
21949W        W40153  12.037   5.731   3.578 -0.1069 -0.1510  0.2841
21950W        W40154  15.448   1.707  13.725  0.0768 -0.2281 -0.0217
21951W        W40155   3.777  12.866   3.989  0.0716  0.1226 -0.1679
21952W        W40156   4.918  12.977  13.407 -0.0004  0.2241 -0.1221
21953W        W40157   8.162   4.441  12.193  0.0040 -0.1486  0.1767
21954W        W40158   9.308   1.345  12.426 -0.0650 -0.2485  0.1040
21955W        W40159  16.897   8.033   2.982 -0.0367  0.2340  0.0803
21956W        W40160   7.076   3.036   2.997  0.3396  0.0299 -0.0976
21957W        W40161  11.957   0.003  13.806 -0.1460  0.0800  0.1036
21958W        W40162  14.746  11.804   0.663 -0.2679 -0.0919  0.2101
21959W        W40163  16.370  15.420   1.300 -0.1774 -0.1750  0.0093
21960W        W40164   5.355   0.951   2.250 -0.4251 -0.0269 -0.4309
21961W        W40165   9.775  14.220   0.535  0.0407  0.0503 -0.1123
21962W        W40166  10.631   2.127  12.874 -0.1099  0.0829  0.1182
21963W        W40167   9.067   1.799   4.602 -0.0395  0.1612  0.1290
21964W        W40168   5.987  10.710   0.883  0.0289 -0.2059 -0.0704
21965W        W40169  10.048   1.573  13.480  0.4560 -0.0310  0.1619
21966W        W40170   7.044   7.659   0.855  0.1762  0.1766 -0.1440
21967W        W40171   2.146  16.465  14.191  0.0846 -0.2725 -0.1380
21968W        W40172   2.789  14.581   3.244  0.0746  0.1639  0.1616
21969W        W40173  14.918   0.828  14.045  0.0557  0.0779  0.1570
21970W        W40174   7.408   5.834   3.779  0.3975 -0.0764 -0.1034
21971W        W40175  10.286  13.615   3.277 -0.0119 -0.0050  0.3082
21972W        W40176   3.839  12.221  16.296 -0.0108 -0.1774  0.1280
21973W        W40177   1.535   3.534  13.336  0.1120  0.1285 -0.0797
21974W        W40178   4.753  16.497   1.935  0.1753 -0.1281  0.1176
21975W        W40179  10.972   0.511   5.477 -0.1151 -0.1871 -0.1392
21976W        W40180  17.023   6.496   3.750 -0.0573  0.0018  0.0087
21977W        W40181   5.818   7.340  15.046  0.0978 -0.0891 -0.1203
21978W        W40182   9.850   8.944   1.119 -0.1259 -0.2653  0.1158
21979W        W40183   3.973  14.671  15.111 -0.2262 -0.0478 -0.1940
21980W        W40184  11.956   0.656   3.891  0.1650 -0.2727 -0.0154
21981W        W40185   9.581   0.421   1.838  0.0964  0.0107 -0.0392
21982W        W40186  14.836   0.655   3.894 -0.0440  0.0460 -0.1819
21983W        W40187   4.596  14.436   5.314  0.1954 -0.1067 -0.3738
21984W        W40188   3.249   3.378  15.673  0.5392  0.1035 -0.0137
21985W        W40189  12.038  11.281   0.531 -0.2928  0.1539  0.0512
21986W        W40190   2.941  16.573  14.813  0.1482  0.1078 -0.3005
21987W        W40191  15.539   9.279  13.752 -0.2317 -0.0565  0.1838
21988W        W40192   0.519  16.042  14.570  0.4194  0.3623 -0.1972
21989W        W40193   9.563   6.519   2.487  0.0456  0.1222 -0.1342
21990W        W40194   1.576   4.758   4.238 -0.1947 -0.0668  0.2487
21991W        W40195   1.027   9.886   3.934  0.1799  0.1035 -0.3064
21992W        W40196   1.369  16.948   5.341  0.4816  0.3114  0.2053
21993W        W40197  14.034  13.707   1.096 -0.3419 -0.0026  0.4386
21994W        W40198   1.555  10.953   2.795 -0.0200  0.2254 -0.1090
21995W        W40199  11.722  13.199  15.712  0.1496  0.0633 -0.0303
21996W        W40200   7.352   7.784  15.205 -0.0497  0.2673  0.2469
21997W        W40201  11.663   8.117  14.900 -0.2432 -0.1478 -0.0745
21998W        W40202  15.936  11.098  14.989  0.4424  0.1180 -0.3995
21999W        W40203   0.385  12.678   2.903  0.2620  0.2141 -0.0019
22000W        W40204  13.453   5.660  12.404  0.0974 -0.2946  0.2541
22001W        W40205   6.964   4.475  16.334  0.5092 -0.0422 -0.2911
22002W        W40206  12.788   9.856   0.158  0.0875 -0.1361  0.1271
22003W        W40207   6.265  17.236  16.025 -0.0088  0.1531 -0.1046
22004W        W40208   9.541   7.611  13.387  0.2476  0.0752  0.1665
22005W        W40209   6.484  13.170   1.215  0.1599 -0.0303  0.1715
22006W        W40210   2.466  14.412  14.393  0.1029  0.3433 -0.2850
22007W        W40211   1.890  17.160  14.059 -0.0602  0.3478 -0.0832
22008W        W40212  10.418   0.913  14.199  0.0616 -0.0102  0.0864
22009W        W40213  12.004  16.509   1.705  0.2057 -0.0640  0.2189
22010W        W40214   9.289   9.111   1.048  0.1329  0.1038  0.0753
22011W        W40215  14.422   6.150   1.012 -0.0404 -0.0828 -0.1382
22012W        W40216  12.890   1.361  13.524 -0.1856 -0.0555  0.2766
22013W        W40217  16.979  16.286  12.672 -0.2700  0.3428  0.3291
22014W        W40218   2.084   4.644  12.229  0.0203 -0.1362 -0.4605
22015W        W40219  12.833  10.006  14.231  0.3803 -0.1230  0.0178
22016W        W40220   5.815  15.959   3.507  0.6027 -0.0344 -0.2205
22017W        W40221  12.596  12.367  15.695 -0.2842 -0.1456 -0.1162
22018W        W40222   6.473   4.385   1.987 -0.0476 -0.1476  0.1272
22019W        W40223  14.401   1.395  17.193  0.2733 -0.2557 -0.2833
22020W        W40224  13.994  14.307   2.771  0.0436  0.1821 -0.0975
22021W        W40225   9.434  15.011   3.745 -0.2448 -0.2204  0.0191
22022W        W40226   4.289  15.429   1.256 -0.1670  0.3107  0.0234
22023W        W40227   2.994   3.248   4.089 -0.2657 -0.0636 -0.0176
22024W        W40228   1.649   4.657  16.797  0.1578 -0.1086  0.1311
22025W        W40229   8.787  16.428   1.894 -0.1463  0.0355 -0.4416
22026W        W40230  15.528  11.581  14.104  0.0188  0.1763  0.1670
22027W        W40231   5.003  13.945  14.198 -0.1667 -0.0220  0.2783
22028W        W40232  16.238   3.940  17.388 -0.2011  0.0103  0.1524
22029W        W40233   8.068   0.206  15.230 -0.0842  0.3466 -0.0031
22030W        W40234  12.012   5.505   1.008 -0.0496 -0.2343 -0.0932
22031W        W40235   5.026  11.696  13.702 -0.0523  0.0872 -0.0718
22032W        W40236  11.086   1.384  14.818  0.2938 -0.0786  0.2936
22033W        W40237  10.651  14.084  15.574  0.0750 -0.1994 -0.0174
22034W        W40238   6.317  14.975  14.432  0.3875 -0.4196 -0.0930
22035W        W40239   0.432  11.287  16.162  0.1445 -0.0936 -0.0777
22036W        W40240   2.827   6.880   4.101 -0.2664 -0.2916  0.2638
22037W        W40241  14.525   6.518   3.420  0.0292 -0.1416 -0.0515
22038W        W40242   9.528  11.435  16.950 -0.3648  0.1394 -0.1253
22039W        W40243   3.283   6.667  12.217  0.0763  0.1635 -0.3032
22040W        W40244   4.776  16.606   0.365 -0.0837  0.0456  0.1108
22041W        W40245   1.061  16.281   0.517  0.2728  0.0584  0.1661
22042W        W40246   1.277   4.613   3.154  0.3349 -0.2722  0.0604
22043W        W40247   3.708  15.104  13.849 -0.3874  0.1216  0.0948
22044W        W40248   5.539  15.775  13.613 -0.3910 -0.0638  0.1410
22045W        W40249  11.977   4.138   3.181  0.2427  0.5028  0.1292
22046W        W40250   9.764   4.273   0.035  0.0521  0.0155 -0.0113
22047W        W40251   0.815   5.254  16.222  0.2657 -0.1435  0.1423
22048W        W40252   0.526   8.662   2.892  0.0446  0.1608 -0.2021
22049W        W40253   7.667  13.883   1.416 -0.0347 -0.0493 -0.0157
22050W        W40254   4.753  12.216  14.725  0.2224 -0.2816 -0.0698
22051W        W40255  11.906   4.564   2.503  0.0695  0.1599 -0.3987
22052W        W40256  17.213  12.752   2.949  0.0021  0.0718 -0.3601
22053W        W40257   1.558  12.660   5.102 -0.0437  0.1011  0.2475
22054W        W40258  15.867  16.368  16.218 -0.0710 -0.0179 -0.1850
22055W        W40259   3.892   6.022  14.245 -0.0237  0.1508  0.2404
22056W        W40260   4.772   1.313  12.855  0.0656  0.0620 -0.2028
22057W        W40261   2.421   8.337   2.248  0.3059 -0.3518  0.0427
22058W        W40262   6.790  10.444  13.770  0.0390 -0.2234  0.1801
22059W        W40263  16.628   9.475   1.201 -0.0243  0.0302  0.0437
22060W        W40264   1.450  11.175  15.941  0.1057 -0.1076  0.0358
22061W        W40265  12.994   8.823   4.281 -0.2367  0.0407  0.3282
22062W        W40266   3.762   2.508  15.098  0.2310  0.0803 -0.0861
22063W        W40267  11.382   5.242  12.731  0.1151 -0.0616  0.0483
22064W        W40268  13.539  12.755   2.541  0.0031  0.0242  0.1810
22065W        W40269   1.702  10.504   1.300 -0.1272  0.0618  0.0865
22066W        W40270   0.395   0.074  15.080  0.3960  0.0388  0.1931
22067W        W40271  16.728   9.709   0.164  0.0637  0.2443 -0.0592
22068W        W40272   0.882   3.228  16.119 -0.0358  0.3072 -0.1828
22069W        W40273  11.059   8.071   2.266 -0.1676  0.0524 -0.2778
22070W        W40274  13.048   0.380  14.366  0.0867  0.2606  0.0221
22071W        W40275   3.201   4.581   4.484 -0.0103 -0.1287 -0.1358
22072W        W40276   4.894   0.416  15.937  0.2436  0.1723  0.2807
22073W        W40277   1.065   1.045   2.699 -0.0979  0.2233  0.1650
22074W        W40278   6.972  11.200   0.353 -0.0049  0.2016 -0.0354
22075W        W40279   2.778   9.012  17.225 -0.1849 -0.1043 -0.2153
22076W        W40280   4.921  10.419   2.083 -0.1577  0.2500 -0.2129
22077W        W40281  11.884   9.919  15.771 -0.0274  0.0849  0.0043
22078W        W40282   6.641   2.122   4.551  0.2049 -0.0245  0.0382
22079W        W40283  15.443  12.985   1.676  0.1739 -0.1240  0.1339
22080W        W40284  13.948  13.089  15.048  0.0169  0.2527 -0.0389
22081W        W40285  13.606  16.496   4.691  0.0870 -0.0491  0.0838
22082W        W40286   3.584   0.780   1.279 -0.2465 -0.1069  0.0783
22083W        W40287  14.995   3.309   4.712  0.1105 -0.0183 -0.0290
22084W        W40288   5.365   4.020  15.223  0.0930 -0.0540  0.1415
22085W        W40289   4.225   4.781   4.408 -0.2095  0.0976 -0.1815
22086W        W40290  16.668  12.046  13.607  0.0458  0.4719  0.1301
22087W        W40291  12.651   2.456   1.621 -0.0737  0.4570 -0.1674
22088W        W40292   4.692   5.744   4.469 -0.1762 -0.1131  0.4001
22089W        W40293  11.176   6.247  14.608  0.1465 -0.0254  0.2180
22090W        W40294   8.168  12.850  14.931 -0.1506  0.0428 -0.3662
22091W        W40295  13.985   5.619  12.254 -0.0723 -0.0183 -0.2509
22092W        W40296  13.716   7.308   2.134  0.1988 -0.0410  0.1451
22093W        W40297  16.288   2.547  13.818  0.3370 -0.0627 -0.1379
22094W        W40298  15.985  10.336   1.203  0.1254 -0.0296  0.1224
22095W        W40299  11.465   3.842  16.566  0.0399 -0.2208  0.0947
22096W        W40300   3.410   2.939  12.604 -0.1029 -0.1648  0.0826
22097W        W40301   1.120   9.494   0.218 -0.1544 -0.0112 -0.3449
22098W        W40302   5.487   8.133   1.363 -0.0074  0.1436 -0.0038
22099W        W40303   2.136   8.686  12.536  0.0525  0.1006  0.1531
22100W        W40304   7.363   9.938  15.440  0.1637  0.1077  0.0966
22101W        W40305  11.287  13.438  14.806 -0.0244  0.1210 -0.1441
22102W        W40306   9.447   6.431  16.834  0.2978 -0.0028  0.1441
22103W        W40307   6.635   1.338   0.702 -0.2807 -0.1721 -0.2768
22104W        W40308  12.150  12.545   2.331 -0.0065  0.2225 -0.1176
22105W        W40309   2.048   7.953  13.753  0.1240 -0.0485 -0.1642
22106W        W40310  13.933   2.405  12.883 -0.2450  0.0380  0.1502
22107W        W40311  12.169  14.718   0.362 -0.2109 -0.0898 -0.1994
22108W        W40312  11.572  12.061  16.824 -0.2862  0.0733 -0.1771
22109W        W40313  16.762  16.886  12.529 -0.1412  0.0784  0.0290
22110W        W40314  11.474  13.222   3.756  0.0967  0.0115 -0.1378
22111W        W40315   9.618   0.953  16.410  0.0931  0.1618 -0.3236
22112W        W40316  14.197   9.399  14.348 -0.1322  0.0524 -0.1848
22113W        W40317  15.686   2.999  12.771 -0.0196 -0.0014 -0.2394
22114W        W40318   4.617   9.844   1.325 -0.1052  0.3902 -0.1059
22115W        W40319  16.535   5.717   0.453  0.0264 -0.1303  0.2840
22116W        W40320   3.380  16.564   0.315  0.1674  0.0342  0.0632
22117W        W40321   7.712  13.388   0.498 -0.0229 -0.0132  0.0088
22118W        W40322   7.188   2.896  12.600  0.2019  0.2644 -0.0941
22119W        W40323  15.849   9.054   3.122  0.2955 -0.3617  0.1714
22120W        W40324  12.496  13.976  17.410 -0.3586  0.0529  0.1017
22121W        W40325  13.135   7.090   4.952  0.0027 -0.0489  0.1792
22122W        W40326   2.739   4.968  13.450  0.2623 -0.3154 -0.0209
22123W        W40327   9.633   2.482   0.506  0.0439  0.1898  0.4279
22124W        W40328   7.117  15.585  13.011  0.0652  0.1000  0.1743
22125W        W40329   7.902   9.156  17.306  0.2171 -0.1321 -0.1163
22126W        W40330   6.469  15.815   5.133  0.1181 -0.1046 -0.0571
22127W        W40331  11.719   6.631  17.415  0.3965  0.1257 -0.1340
22128W        W40332  14.711   6.288   4.734 -0.1214  0.0070 -0.3131
22129W        W40333  14.451  15.705  13.214 -0.1941  0.1094 -0.2410
22130W        W40334  12.885   7.699   2.655  0.1852 -0.1219  0.1065
22131W        W40335   1.757  16.265  13.751  0.1096 -0.0271 -0.2864
22132W        W40336   6.082  11.937  15.969 -0.0245  0.3604  0.0266
22133W        W40337  12.930   2.949  16.138  0.0541 -0.0392 -0.1019
22134W        W40338   3.396   2.233  16.477 -0.0399  0.2140  0.2089
22135W        W40339   0.478   0.308   5.107 -0.2420 -0.0242 -0.1010
22136W        W40340   2.532  13.087   0.843 -0.0406  0.0777  0.1648
22137W        W40341   0.743  13.521   5.238  0.1298  0.3432 -0.0198
22138W        W40342  12.759   6.840   2.948 -0.1270  0.1957 -0.0213
22139W        W40343   4.936  13.849  13.630 -0.0825 -0.1170  0.0707
22140W        W40344  11.262  16.207  16.842 -0.1682 -0.2805 -0.2332
22141W        W40345  10.034   4.411  17.019 -0.1453  0.1522  0.3050
22142W        W40346   8.643  16.863   0.193 -0.2087 -0.1214  0.2308
22143W        W40347  15.543  11.602   0.258 -0.1680  0.0758  0.3465
22144W        W40348  15.731   4.828   1.690 -0.1098 -0.1194  0.1631
22145W        W40349   5.555   9.847   2.523 -0.0557  0.0677  0.0302
22146W        W40350   4.744   7.654   1.753  0.1319 -0.0781  0.2998
22147W        W40351   6.010  12.319   1.642 -0.2900  0.2325 -0.2517
22148W        W40352   3.971  11.887   5.212 -0.2400  0.2806  0.3592
22149W        W40353   8.789  16.176   0.625 -0.0897 -0.2408 -0.1850
22150W        W40354  15.644  15.894   0.304 -0.2197 -0.2159  0.0410
22151W        W40355   4.971   2.661  12.361  0.0342  0.2162 -0.0977
22152W        W40356   9.549  12.313  16.540  0.2461 -0.0318  0.0875
22153W        W40357  17.082  12.086  13.292 -0.2359  0.4186 -0.1069
22154W        W40358  11.985  12.881  15.364  0.1944  0.3222 -0.1661
22155W        W40359   2.523  13.587   2.131  0.1774  0.0076  0.2102
22156W        W40360   6.018   2.085   1.168  0.0869 -0.0893 -0.2867
22157W        W40361  16.138  10.608   2.248 -0.0019  0.4388  0.0981
22158W        W40362  17.331   2.929   1.380  0.1213  0.0418  0.0738
22159W        W40363  10.866  16.423  15.666 -0.1010  0.1066 -0.1290
22160W        W40364  14.988   9.777   0.892 -0.2137  0.3672 -0.0455
22161W        W40365   2.335   4.455  15.988 -0.0213 -0.1350 -0.0673
22162W        W40366   9.585   9.044   4.485 -0.3018  0.0823  0.1691
22163W        W40367   2.355  12.684   4.026  0.1160  0.0251  0.0254
22164W        W40368   9.014   8.418  14.203  0.0022  0.0176 -0.4060
22165W        W40369   0.003  12.735  16.570  0.3327  0.0525  0.1179
22166W        W40370  14.285  11.777  14.413  0.1925 -0.1479  0.0884
22167W        W40371   7.597   3.613  13.075 -0.2016  0.0572  0.1952
22168W        W40372   1.065  14.499   3.619 -0.1755 -0.2357  0.0696
22169W        W40373   2.373   1.557  12.149  0.1573 -0.2112  0.1227
22170W        W40374  14.892  10.313  15.820  0.3103 -0.2504  0.1901
22171W        W40375   3.498   4.693   0.235  0.1841  0.1023  0.2472
22172W        W40376  11.758   3.556  15.447 -0.0243 -0.0299  0.0002
22173W        W40377   0.834   0.492  16.549  0.2478 -0.2992 -0.0099
22174W        W40378   8.037   7.590   0.686  0.0031 -0.2571 -0.1954
22175W        W40379   3.278   8.184  15.175  0.1696  0.2558 -0.0371
22176W        W40380   4.778   4.663   4.110 -0.0304  0.1399 -0.0245
22177W        W40381   1.338  11.556   4.577 -0.2400 -0.0165  0.2300
22178W        W40382   1.752   0.199  15.074 -0.1130 -0.0045 -0.1678
22179W        W40383  12.750   6.207  16.663 -0.0096  0.0532 -0.0848
22180W        W40384   1.478   5.728  12.919 -0.2695 -0.1776  0.0151
22181W        W40385   6.905  14.204   5.372 -0.1270 -0.1715 -0.1365
22182W        W40386   2.095  11.760   0.746  0.2690  0.1715 -0.0167
22183W        W40387   2.779   8.874   0.590  0.2508  0.1133 -0.0829
22184W        W40388   8.192  11.287   4.241  0.1578  0.1237 -0.0693
22185W        W40389   1.079  13.779   2.066  0.2270 -0.1622 -0.0626
22186W        W40390   8.630   8.939  15.803 -0.2989 -0.1433 -0.0054
22187W        W40391  13.505  16.366   1.810  0.0173 -0.1031  0.0001
22188W        W40392   0.813  14.842   3.401 -0.0407 -0.6027  0.1148
22189W        W40393  12.724   0.255  13.253  0.0803 -0.0457 -0.0475
22190W        W40394  13.208  12.870  13.633  0.2067 -0.0211  0.1304
22191W        W40395   5.879   8.745  16.935  0.2918  0.4276 -0.3450
22192W        W40396   9.684   5.690   3.212  0.1971  0.1932  0.1959
22193W        W40397   5.297   0.665   1.725  0.1694  0.1344  0.0085
22194W        W40398  13.608  10.000   6.121  0.2943 -0.0116  0.3099
22195W        W40399   4.909  15.244   2.530 -0.2289 -0.1288 -0.0457
22196W        W40400   3.379   8.147  17.174  0.3588 -0.2330 -0.0807
22197W        W40401   5.621  10.053  16.532  0.3678 -0.1389 -0.1390
22198W        W40402  15.599  11.877   1.134 -0.1891  0.0890  0.0512
22199W        W40403  10.159   6.587   0.820  0.0209  0.1892  0.1497
22200W        W40404   3.266  11.093   1.717  0.0555 -0.0222  0.2475
22201W        W40405   5.597   5.921   3.216  0.1431  0.2064 -0.0583
22202W        W40406  16.665   9.559   5.200  0.1598 -0.0214 -0.0770
22203W        W40407   6.338   4.389  15.678 -0.0132 -0.0125  0.2980
22204W        W40408   7.293   6.377   3.835 -0.0682 -0.0208  0.2285
22205W        W40409  11.205   7.955  13.820  0.2407  0.1016 -0.0408
22206W        W40410  10.460  13.923  16.853 -0.3447 -0.1667 -0.0112
22207W        W40411  17.030  14.691   2.647 -0.0788 -0.1444 -0.0865
22208W        W40412   3.640   1.280   0.258  0.3960 -0.0784  0.4757
22209W        W40413   4.750  14.102   2.596  0.2441  0.4047  0.0620
22210W        W40414   3.268  15.197   3.710 -0.0617 -0.3106  0.0947
22211W        W40415   9.404  10.307   0.336  0.1923 -0.0586  0.0388
22212W        W40416   6.521   3.953  17.077  0.1769  0.0850 -0.0398
22213W        W40417  11.756  17.247   0.101 -0.3212 -0.1618 -0.4091
22214W        W40418   0.042   1.433  11.882 -0.1851 -0.0169 -0.1019
22215W        W40419   0.266  10.228  13.199  0.1331  0.2628 -0.3377
22216W        W40420  15.920  13.750  13.625  0.3277  0.1508  0.1126
22217W        W40421   7.947  11.913  14.146 -0.1203  0.0837  0.0630
22218W        W40422  13.638   0.181   1.500  0.0642 -0.0034  0.1788
22219W        W40423   1.609   3.728  12.506  0.2260 -0.0478  0.2064
22220W        W40424  16.173  12.365   5.494  0.0971 -0.1296  0.0169
22221W        W40425   5.802   2.148  12.771 -0.0735  0.0054 -0.2146
22222W        W40426  16.699   0.035   0.904  0.4266  0.2728  0.0061
22223W        W40427   8.755   4.615   2.354  0.2064  0.2409  0.0047
22224W        W40428   7.921   0.769   1.193  0.1113  0.0118 -0.0695
22225W        W40429   1.089   2.165   3.399 -0.0281  0.0450 -0.2022
22226W        W40430   4.576   3.387  14.195  0.0264 -0.1530 -0.2652
22227W        W40431   4.511   7.209   0.938  0.2302 -0.1263  0.0818
22228W        W40432  10.469  16.457  17.190 -0.1502 -0.2917  0.0308
22229W        W40433  12.102   2.046   3.173  0.2391 -0.1447  0.2535
22230W        W40434   0.915   5.187   5.188  0.0375 -0.0622  0.0831
22231W        W40435  13.124   2.052   4.300  0.3032 -0.2730 -0.0084
22232W        W40436  16.959   3.495  15.480 -0.1608 -0.2658 -0.2559
22233W        W40437   6.825   9.230  14.269 -0.1383 -0.3520 -0.0691
22234W        W40438   9.227  11.625   5.012 -0.1085  0.2741  0.3300
22235W        W40439  11.197  14.587   3.454 -0.0955 -0.1745  0.2284
22236W        W40440   1.467  12.515   3.818 -0.1243 -0.0532  0.0457
22237W        W40441  12.108  14.409  15.503  0.0743 -0.0587  0.1667
22238W        W40442   7.719   4.821  13.509  0.1107  0.1924 -0.1763
22239W        W40443   5.924   9.522   1.578 -0.0760  0.2384  0.0308
22240W        W40444  13.420   5.384   4.868 -0.0232 -0.2379  0.1495
22241W        W40445   6.906   1.537  13.042  0.0127 -0.3362 -0.1660
22242W        W40446  11.726   0.698   3.003 -0.1081  0.0982 -0.2983
22243W        W40447   5.572   3.007  17.422  0.2133  0.0560  0.3647
22244W        W40448   5.405  16.510  14.783  0.1643  0.0920 -0.3449
22245W        W40449  14.669  17.255   4.583 -0.0680  0.1791  0.2459
22246W        W40450  15.534  11.870   2.154 -0.3363  0.0156 -0.0488
22247W        W40451   3.763   3.753  12.757 -0.4247 -0.4922 -0.0921
22248W        W40452   5.257   2.119  15.721  0.3481 -0.2475 -0.0768
22249W        W40453  16.174   6.928  15.967  0.0255  0.0549  0.2627
22250W        W40454  10.236   0.832  14.708  0.1942 -0.2254 -0.0862
22251W        W40455   0.839  11.184  15.035 -0.0009  0.2022  0.1011
22252W        W40456   7.366  17.075   1.381  0.0106  0.1792 -0.1617
22253W        W40457   3.773  13.812   3.555 -0.0434  0.1543 -0.1972
22254W        W40458   4.319   2.212  17.041  0.0719  0.4030  0.0280
22255W        W40459   5.922   7.080   1.226  0.1818  0.1944 -0.0376
22256W        W40460   9.488  11.669  14.173 -0.1042  0.1059 -0.1523
22257W        W40461  12.322   7.972   5.185 -0.1296 -0.3626  0.0049
22258W        W40462  15.984  13.940   5.725  0.3228 -0.1299  0.3511
22259W        W40463  11.110  13.171  12.362 -0.1312 -0.1147  0.2216
22260W        W40464   0.978   3.439  14.220  0.0908  0.1724  0.3067
22261W        W40465  16.945   2.381  14.508  0.0812 -0.1038 -0.0875
22262W        W40466   8.410  10.240   0.156  0.1179  0.2703 -0.0246
22263W        W40467   8.587  12.094   2.521 -0.3868  0.0096  0.0603
22264W        W40468   7.952  14.677   3.296  0.0259 -0.4153  0.0811
22265W        W40469   1.140   4.645   0.006 -0.3010 -0.1476  0.2375
22266W        W40470  16.341  12.436   4.598 -0.0779 -0.1085  0.0376
22267W        W40471   6.078   0.305  13.623 -0.1398  0.0408 -0.1328
22268W        W40472  13.723  17.306  15.635 -0.0052  0.0636  0.0749
22269W        W40473  12.272  11.245  15.614 -0.0139  0.1157 -0.1589
22270W        W40474   6.215  15.236  13.092 -0.0146  0.1246  0.1000
22271W        W40475  14.085   9.381  13.696  0.1900 -0.0655  0.0280
22272W        W40476  13.015  11.038  15.550 -0.1318  0.0632  0.0316
22273W        W40477  16.463  11.874   0.229  0.0795 -0.0547 -0.2693
22274W        W40478   9.766  10.872   0.991 -0.0417  0.2454  0.0269
22275W        W40479   8.247   6.597   5.418  0.0854  0.0411 -0.2701
22276W        W40480  16.679  10.873   1.247 -0.1872 -0.0301 -0.1373
22277W        W40481  12.251   7.655   5.552  0.1140  0.0814  0.3773
22278W        W40482   7.788   9.210   3.474  0.4934  0.0543 -0.0339
22279W        W40483   9.173   3.364   4.549  0.1097  0.1480  0.3941
22280W        W40484   8.834  15.119  15.719  0.4599  0.0159  0.0046
22281W        W40485  15.131   4.105  14.402 -0.1326 -0.1327 -0.3332
22282W        W40486   5.492  14.875  16.103 -0.0946  0.5111  0.3199
22283W        W40487   1.883   1.212  16.985  0.1435  0.1104  0.0692
22284W        W40488   1.455  11.225  17.049 -0.3196 -0.4232  0.1471
22285W        W40489  11.464  17.231  13.994 -0.0511 -0.0525  0.0676
22286W        W40490   8.020  11.754  16.541 -0.1001  0.0559  0.0081
22287W        W40491  14.842   3.323   0.248 -0.0205  0.2355 -0.0655
22288W        W40492   9.449   2.092   1.509  0.1736  0.0465  0.0981
22289W        W40493  12.709  16.582  15.926  0.0426 -0.1848  0.0650
22290W        W40494   9.080   8.160  15.684 -0.0699  0.0943 -0.0448
22291W        W40495  13.826  14.162   4.470 -0.2462  0.0535  0.0730
22292W        W40496   3.343   9.540   2.942 -0.1053  0.1868 -0.2012
22293W        W40497   8.306   1.422   4.987  0.0597 -0.1417  0.1786
22294W        W40498  17.124   5.011  13.335 -0.1136 -0.0260 -0.1431
22295W        W40499  13.779  13.117  13.300  0.0300 -0.3905  0.0880
22296W        W40500  14.463   5.499   4.057  0.0524 -0.0070 -0.1619
22297W        W40501   0.882   9.557  13.273 -0.1061  0.0384  0.2659
22298W        W40502   3.444   4.589   6.095 -0.2670  0.1225 -0.0534
22299W        W40503   4.401   0.190   0.241 -0.4275 -0.0862 -0.1824
22300W        W40504   8.498   3.347   0.537 -0.3921 -0.0788  0.0492
22301W        W40505   8.067  12.994  13.568 -0.0859  0.0881  0.4679
22302W        W40506  12.092  10.985  14.203  0.2168 -0.4788  0.2163
22303W        W40507  14.313   8.172   3.639  0.0247 -0.1679 -0.1773
22304W        W40508   6.506   3.334  14.873 -0.2409  0.0629  0.1151
22305W        W40509   3.288   0.126   1.081 -0.2756 -0.0687 -0.0189
22306W        W40510  12.292   4.274   1.367  0.1396  0.0906  0.0298
22307W        W40511  15.243   6.230   2.326 -0.1139 -0.1261  0.1019
22308W        W40512   9.984  15.281  15.979  0.1349  0.0403  0.2502
22309W        W40513  15.158  13.268   0.595  0.0706 -0.1318 -0.2033
22310W        W40514   7.221   7.774  13.338 -0.0754  0.2752  0.1248
22311W        W40515   1.966  15.556  13.283 -0.0064  0.3902  0.0670
22312W        W40516   2.853  13.937   5.603 -0.1420 -0.0160  0.0160
22313W        W40517  10.822  16.425   1.646 -0.0699  0.0188 -0.1752
22314W        W40518  15.849   2.224  14.594  0.0414  0.2135 -0.0616
22315W        W40519   2.244   5.935  12.979 -0.0184 -0.1558  0.0189
22316W        W40520  11.087  16.887   3.043  0.2916  0.0092  0.0274
22317W        W40521   3.977   2.953  16.613 -0.1771 -0.0886 -0.1459
22318W        W40522   2.962  15.877  13.352  0.1194 -0.0320  0.1086
22319W        W40523   4.449  11.656   0.728  0.1312 -0.1955 -0.2031
22320W        W40524   3.013   1.999  12.061 -0.0996 -0.1316 -0.0710
22321W        W40525   4.406  15.509   3.317 -0.1882 -0.0673  0.0512
22322W        W40526  16.307  16.633   1.928  0.1323 -0.1455  0.0538
22323W        W40527   6.640   0.427  12.374  0.3346  0.1714 -0.0269
22324W        W40528   9.414   7.096   4.617  0.2623  0.4892  0.3225
22325W        W40529  11.263  12.590   2.910  0.1515 -0.3595  0.1304
22326W        W40530   4.353   4.519  14.534 -0.2614  0.0299  0.1846
22327W        W40531   2.293  14.650  16.689  0.0646  0.2007  0.1212
22328W        W40532  13.285   4.036  16.687  0.2443  0.0089  0.2342
22329W        W40533   8.280   9.229   2.026  0.0281  0.1468  0.3337
22330W        W40534  15.913  14.642   1.818  0.0804  0.0573 -0.1396
22331W        W40535  10.890   5.393  16.120  0.0427  0.0140 -0.0838
22332W        W40536   1.094  10.314  13.943 -0.0410 -0.0595 -0.0296
22333W        W40537   1.938   7.376   0.181  0.1962 -0.5131 -0.1970
22334W        W40538   0.633  13.047   5.482  0.2343  0.0853  0.2800
22335W        W40539   2.086  12.678   3.572 -0.1649  0.2847  0.1544
22336W        W40540   7.845   9.390  16.037 -0.0447 -0.2288  0.0175
22337W        W40541  10.818   0.953   1.044  0.0759  0.3666 -0.1416
22338W        W40542  15.560   3.606  15.636 -0.0977  0.0270  0.4126
22339W        W40543   3.911   7.020  13.475 -0.0980  0.2890  0.2891
22340W        W40544   9.015   7.640  12.144  0.1664  0.1637 -0.1409
22341W        W40545  10.258   0.756  15.331 -0.3836  0.1469 -0.1581
22342W        W40546   8.666   2.288  16.220  0.2240 -0.3137  0.1342
22343W        W40547   6.733  16.513  12.477 -0.0237 -0.1943  0.2703
22344W        W40548   7.733   1.064   3.708 -0.3783 -0.1886  0.1046
22345W        W40549   8.341   3.820  16.243  0.0245  0.0474  0.1507
22346W        W40550   2.675  16.537   3.734  0.0738  0.2293  0.1377
22347W        W40551  15.186   0.633   0.306 -0.3098 -0.1797 -0.2211
22348W        W40552   7.425  12.171   0.487 -0.3264 -0.0529  0.3196
22349W        W40553  12.395  13.415  12.480 -0.1003 -0.2190  0.3315
22350W        W40554  15.876   0.141   0.636 -0.2263 -0.1898 -0.0079
22351W        W40555  16.944   4.989  16.549 -0.0902 -0.4973  0.0246
22352W        W40556  12.803   6.656  16.374  0.3219 -0.0585 -0.1365
22353W        W40557   5.373   1.032   4.939 -0.1057  0.1644 -0.0404
22354W        W40558  10.855   8.718  16.598 -0.0461 -0.3937 -0.0375
22355W        W40559  14.025   1.730   3.646  0.2136 -0.1799 -0.0083
22356W        W40560  11.576   6.297  13.079 -0.0568  0.1738 -0.0640
22357W        W40561  12.326   3.625  16.673 -0.1198  0.0729 -0.0580
22358W        W40562   2.733   0.114  15.774  0.0134 -0.3253 -0.2701
22359W        W40563  12.501  10.300  15.851  0.0002 -0.2416 -0.1233
22360W        W40564   4.919   4.780  14.378 -0.0803 -0.3257  0.0602
22361W        W40565  14.331   3.112   2.027 -0.1864 -0.0837 -0.3308
22362W        W40566   9.451   3.855   0.109  0.1324  0.3879 -0.0127
22363W        W40567  12.159  11.219  15.100  0.1655 -0.0687 -0.2033
22364W        W40568   2.781  14.132  12.022  0.1254 -0.0437  0.1062
22365W        W40569   1.483   3.742   4.151  0.0356  0.4578 -0.4076
22366W        W40570   1.981   3.026   2.751 -0.1463  0.0229 -0.1828
22367W        W40571   6.979  12.192   1.309 -0.1172 -0.1383  0.1686
22368W        W40572   6.761   3.635   4.889 -0.0365  0.0787 -0.0978
22369W        W40573  12.862  10.506   4.752  0.0838  0.0188  0.4262
22370W        W40574  12.943   4.269   0.335  0.2799  0.0369 -0.0703
22371W        W40575  16.848   0.155   0.336 -0.2911  0.5578  0.1015
22372W        W40576   1.702   2.301  12.889  0.1234  0.1173  0.1095
22373W        W40577  17.029   8.780   1.947 -0.0663  0.1938 -0.2457
22374W        W40578  12.328   0.471   4.230 -0.1301 -0.0162 -0.2040
22375W        W40579  11.584  16.581  16.755  0.1731 -0.3930  0.0339
22376W        W40580   1.548   6.660  17.411  0.1333 -0.1386  0.1862
22377W        W40581   8.668   1.779  14.554 -0.0356 -0.1843  0.0816
22378W        W40582   2.210  12.712  13.975 -0.0604 -0.1528 -0.1355
22379W        W40583   3.528   1.727  12.947 -0.1536  0.4029  0.0738
22380W        W40584  16.216  14.039   1.367 -0.1120  0.2985  0.0060
22381W        W40585   5.600  16.899   2.702 -0.2978 -0.1220 -0.0981
22382W        W40586   4.740  10.297   1.636 -0.0193  0.1995 -0.0722
22383W        W40587   9.021  15.239   1.171  0.0403 -0.1005  0.0798
22384W        W40588   5.066  14.374   3.887  0.0123 -0.1011  0.0510
22385W        W40589   7.959   4.486   2.824 -0.4728  0.0998 -0.2647
22386W        W40590  13.700  16.907   1.673 -0.3044  0.4684  0.2476
22387W        W40591   7.469   8.858  12.495 -0.2121 -0.0006  0.2010
22388W        W40592   2.652   9.842   4.870 -0.3399 -0.0770 -0.0614
22389W        W40593   8.180   9.496   4.324 -0.1209 -0.1841  0.1446
22390W        W40594  15.400   5.312  16.323  0.0168 -0.1916 -0.0842
22391W        W40595  12.738   3.326  13.734 -0.2480  0.1715 -0.1992
22392W        W40596   2.878   9.111  14.973  0.0704  0.1795  0.0140
22393W        W40597   5.939   4.471   2.924  0.3189  0.2409 -0.3362
22394W        W40598   6.244   9.820   1.380  0.1254  0.0003 -0.3138
22395W        W40599  12.180   9.448  14.086  0.1376  0.2545 -0.2077
22396W        W40600   7.789  13.419  14.218 -0.0919 -0.0547  0.2398
22397W        W40601   6.112  12.183  14.378 -0.1867  0.2117 -0.1763
22398W        W40602  12.946   8.840  14.694  0.2106  0.1768 -0.3726
22399W        W40603   5.131   0.647  14.234 -0.0711 -0.0020  0.0019
22400W        W40604   9.116   2.303  15.538 -0.1376  0.1712 -0.2546
22401W        W40605  10.900  13.262  16.009 -0.1543  0.0824 -0.0855
22402W        W40606   6.919  10.335  16.673  0.0193 -0.2957 -0.0392
22403W        W40607  13.025   9.191   5.464  0.3542 -0.2086 -0.3755
22404W        W40608  15.587  15.972   5.059  0.1359 -0.1213  0.1504
22405W        W40609  15.864   6.627  17.305 -0.2606 -0.0040 -0.1406
22406W        W40610   4.186  14.758   1.858 -0.1829  0.0899 -0.0988
22407W        W40611   7.503   4.046  15.164  0.1076  0.0980  0.2441
22408W        W40612   9.136   1.486  15.627 -0.0943 -0.0628  0.2519
22409W        W40613   8.539  15.907   6.344 -0.0688  0.5027  0.2824
22410W        W40614   6.734   6.220  17.328  0.2464 -0.0475 -0.0945
22411W        W40615  14.961   7.631  13.845  0.2947 -0.0630 -0.1148
22412W        W40616  10.541  14.284   2.657 -0.1476 -0.1841  0.0517
22413W        W40617  10.228  11.001   5.011 -0.0674 -0.2470  0.3344
22414W        W40618  15.838   9.763   1.808  0.0633 -0.1101 -0.1744
22415W        W40619  10.953   2.811  15.357  0.0279  0.2498  0.0011
22416W        W40620   7.465   6.451  15.063 -0.0774  0.0906  0.4032
22417W        W40621  13.713  10.311   4.568  0.0234 -0.0746 -0.1147
22418W        W40622   5.929   7.888   1.199 -0.0538  0.0103  0.3570
22419W        W40623  12.737   1.765   3.113  0.1563 -0.1858  0.2173
22420W        W40624  10.470  11.602  13.751 -0.1273 -0.0511  0.0523
22421W        W40625   0.738   0.718   2.841 -0.0583  0.0390  0.2703
22422W        W40626  12.526   6.327  13.294  0.1349  0.0017 -0.0811
22423W        W40627   0.895   3.607  12.247 -0.0544  0.1450 -0.1341
22424W        W40628   1.389  14.869  16.957  0.1403  0.1681  0.2484
22425W        W40629   8.230   6.195   2.651  0.0339  0.0893  0.2629
22426W        W40630   2.489   5.378  13.104  0.1587  0.0144 -0.2849
22427W        W40631  15.048   3.234   0.772 -0.1468 -0.0176 -0.0632
22428W        W40632  12.757   5.372  13.063 -0.1694  0.0397  0.4295
22429W        W40633   4.031   3.265  12.892  0.0247 -0.1564 -0.2234
22430W        W40634   0.250  11.880  14.843  0.0568  0.2150 -0.3803
22431W        W40635   2.396  16.892  15.049  0.0922 -0.2091 -0.0342
22432W        W40636   5.770  11.914   1.537  0.0521 -0.1363 -0.0610
22433W        W40637   3.016  14.993  15.003 -0.2069 -0.1571 -0.1601
22434W        W40638   2.349  10.405  13.927  0.0723 -0.0070 -0.1856
22435W        W40639   6.291  13.669  16.320  0.2162 -0.1082  0.0615
22436W        W40640   5.679  12.038  16.666  0.1300 -0.1745  0.1476
22437W        W40641   2.542   2.972  16.709 -0.0820  0.4083 -0.4269
22438W        W40642   3.734   5.864   2.800  0.2864 -0.1765 -0.0445
22439W        W40643   4.996   3.618  14.450 -0.2535 -0.2090 -0.0105
22440W        W40644   5.014  10.886   1.882 -0.0046 -0.2046  0.0203
22441W        W40645   3.328  12.494   1.647  0.1542 -0.1321  0.2813
22442W        W40646   6.654   4.772  12.184 -0.1381  0.3129 -0.0832
22443W        W40647   3.579  11.858   1.010  0.0925 -0.0849 -0.1004
22444W        W40648  11.707  14.078   4.858 -0.2711  0.0686  0.0044
22445W        W40649   1.036  16.639   3.473 -0.1150 -0.0973  0.0554
22446W        W40650   2.998   4.272  13.443 -0.0335  0.1554 -0.2088
22447W        W40651  16.955   6.924   2.531 -0.0959 -0.1972  0.1234
22448W        W40652   1.815   8.651  17.341 -0.1028 -0.0508 -0.1363
22449W        W40653   0.906  10.778  13.128  0.1507  0.0155  0.1796
22450W        W40654  11.061  13.863  13.577  0.1106  0.0435  0.3846
22451W        W40655   9.685   2.882   0.834 -0.1860  0.0541  0.1467
22452W        W40656   1.201   8.058  13.145 -0.1861 -0.0128 -0.4424
22453W        W40657  14.467   0.862  12.359 -0.0652  0.2058 -0.3220
22454W        W40658  14.805   7.136  14.482 -0.0839 -0.1970 -0.1047
22455W        W40659  10.069   1.447  12.962 -0.2469 -0.2743  0.2699
22456W        W40660   7.424   8.534   4.733 -0.2335  0.3987  0.0182
22457W        W40661   3.244  12.372   1.205 -0.2004 -0.1366  0.0272
22458W        W40662  14.350   0.492   3.290 -0.1060  0.2507  0.1266
22459W        W40663  13.435   3.763   2.837 -0.2620 -0.2152 -0.1357
22460W        W40664  13.168   7.977   4.247 -0.0656 -0.1461 -0.0293
22461W        W40665   2.397  10.132   0.856  0.0431  0.3332  0.0229
22462W        W40666   2.774   6.986  12.178 -0.1474  0.0525 -0.0802
22463W        W40667  12.900  11.895  15.611 -0.0516 -0.2187  0.3025
22464W        W40668   8.426   1.948   5.172 -0.2660  0.2580  0.2472
22465W        W40669   3.314  12.058   3.460  0.3094 -0.3750 -0.0525
22466W        W40670   8.979  11.847  12.593  0.1452 -0.1976  0.0524
22467W        W40671  14.380   4.063   4.323 -0.0406  0.0936  0.0901
22468W        W40672  11.483  13.281  17.499  0.1666  0.0867 -0.1890
22469W        W40673   0.290  12.663   3.429  0.1742  0.0166 -0.0356
22470W        W40674  11.564   0.849  13.735  0.4267  0.0281 -0.0675
22471W        W40675  13.673   6.251  14.043  0.0077  0.0361 -0.1307
22472W        W40676   6.337   6.485  17.084  0.1192 -0.1785  0.0326
22473W        W40677   4.974   5.276   3.390 -0.0466  0.0653  0.1521
22474W        W40678   9.804  17.314  13.609  0.3705  0.0219  0.0252
22475W        W40679  13.628  16.855   2.175 -0.1407  0.1198  0.0558
22476W        W40680   0.107   3.778   1.774 -0.3457  0.0827  0.0107
22477W        W40681   4.209  10.786   5.155 -0.0945 -0.0923 -0.2121
22478W        W40682   4.822   4.742  14.922 -0.1499  0.4141 -0.3642
22479W        W40683  12.041   4.621   4.471  0.0479 -0.1392 -0.0333
22480W        W40684  17.313   3.651  13.380  0.0631 -0.0796 -0.2594
22481W        W40685   2.659   9.422   5.192  0.1286 -0.2155  0.1607
22482W        W40686   2.605   0.947   1.785  0.0334 -0.0267  0.0661
22483W        W40687  10.932   4.028  13.660 -0.2202  0.0853 -0.0272
22484W        W40688   4.500  10.214  13.256  0.1739  0.1848  0.2491
22485W        W40689   6.795   7.328  13.171 -0.1529  0.0041  0.0013
22486W        W40690  12.089   2.828  14.435 -0.0619 -0.1990  0.0461
22487W        W40691   9.059  16.637  12.292  0.1685  0.0986  0.0982
22488W        W40692  14.194   0.424   1.176  0.2267  0.1195 -0.0244
22489W        W40693   4.159   0.426  14.251  0.3710  0.0253 -0.0651
22490W        W40694   3.112   2.053   3.392  0.1454 -0.0194 -0.2045
22491W        W40695   8.219   4.026  16.687 -0.2947 -0.0278  0.0504
22492W        W40696   0.390   8.163  13.080  0.0313  0.0895 -0.0744
22493W        W40697  13.454  15.898   3.834  0.0077  0.1577 -0.0486
22494W        W40698   9.618   1.643  13.701 -0.3604  0.0732  0.1395
22495W        W40699   7.797  14.827   1.939  0.2730  0.0168 -0.3286
22496W        W40700   2.908  16.833  14.356 -0.4967  0.1067  0.2098
22497W        W40701   3.837  14.198   3.204 -0.3086 -0.2387  0.1279
22498W        W40702   2.427  16.317  14.963 -0.3275 -0.0219  0.2321
22499W        W40703  14.455  11.268   1.953  0.0203 -0.0377 -0.1340
22500W        W40704  13.633   6.851  12.014 -0.0079 -0.1775 -0.0762
22501W        W40705   3.532   8.976  12.333  0.1412  0.0043  0.2366
22502W        W40706  16.553  15.298  16.299 -0.2313 -0.2380 -0.2010
22503W        W40707   8.645   9.719  15.906 -0.0236 -0.1478 -0.1367
22504W        W40708   2.242   1.282   1.956  0.0875 -0.0900 -0.0447
22505W        W40709  13.752  16.964   2.747  0.0137  0.0121 -0.0131
22506W        W40710   7.003   3.631   2.872 -0.4236  0.0826 -0.3194
22507W        W40711   2.481   3.045  13.796 -0.2648  0.0107 -0.0324
22508W        W40712  16.610  15.035   4.953  0.0134 -0.1109  0.0358
22509W        W40713   4.184   7.969   0.661  0.0041 -0.1367 -0.1392
22510W        W40714   7.876   2.910  15.791 -0.2358  0.5738 -0.2317
22511W        W40715  17.066  14.984  16.979 -0.0695  0.1161 -0.0166
22512W        W40716   2.785   7.692  13.940  0.2595 -0.1038 -0.2194
22513W        W40717   8.023  12.617   3.039 -0.3478 -0.1418  0.1014
22514W        W40718  12.275   6.496  17.230 -0.1238 -0.0549  0.1348
22515W        W40719   2.172  10.063   1.291 -0.1021 -0.5102 -0.1764
22516W        W40720  12.290   7.212  14.564  0.0321 -0.0928 -0.0522
22517W        W40721  12.105  11.729   3.036  0.0018 -0.3399  0.1596
22518W        W40722  12.571  10.515   2.486  0.2131  0.0187 -0.2664
22519W        W40723   6.256   9.624  12.313 -0.1763 -0.1874  0.3971
22520W        W40724   6.077  10.695  11.484  0.1723  0.1323 -0.0534
22521W        W40725  10.117   1.728   3.700  0.0084  0.0643  0.0052
22522W        W40726   8.728  14.470  14.109  0.1195 -0.1265 -0.0265
22523W        W40727   6.407  15.362   0.983  0.1590 -0.0433  0.0265
22524W        W40728  12.394  10.906   0.426 -0.0537 -0.0624 -0.1967
22525W        W40729   4.575   7.369  14.887  0.0176 -0.0357  0.2034
22526W        W40730   4.073   9.257  13.338 -0.2680  0.1248 -0.0853
22527W        W40731  17.024   1.344  15.574 -0.0982  0.2601 -0.2472
22528W        W40732  12.581  14.460   5.121 -0.1275 -0.1177 -0.1605
22529W        W40733  10.118   8.437  15.935 -0.0081 -0.2680  0.0195
22530W        W40734   8.952   2.078   2.745  0.1525 -0.3514 -0.0779
22531W        W40735  15.165  10.439   4.454 -0.1489 -0.0095  0.1331
22532W        W40736  16.592  17.122  11.371 -0.2493 -0.1568 -0.0767
22533W        W40737   3.124   5.003  15.343  0.1849 -0.1541  0.2091
22534W        W40738   2.289   0.465  17.018  0.0797  0.0272  0.3402
22535W        W40739  12.345   7.632   0.356 -0.1734 -0.1993  0.3498
22536W        W40740   9.288  14.121   5.284 -0.1144 -0.1830 -0.0583
22537W        W40741   9.900  13.856   1.376 -0.1060  0.1406  0.0906
22538W        W40742   8.846  14.330   1.511 -0.1713  0.0230 -0.1030
22539W        W40743  15.320   3.652  13.948 -0.1890  0.1373  0.0907
22540W        W40744   1.812   8.790  16.817 -0.1678 -0.0644 -0.2089
22541W        W40745   1.890  11.378  13.427 -0.0823 -0.0903  0.1704
22542W        W40746  10.108   2.122   0.391 -0.0157 -0.0568  0.0560
22543W        W40747   5.002   7.791   2.623 -0.1271 -0.1094  0.0158
22544W        W40748   6.897   0.794  16.996 -0.3573 -0.1185  0.0609
22545W        W40749  10.007  15.055   0.066 -0.0002  0.1456 -0.1319
22546W        W40750  13.961   0.564   0.762 -0.0293  0.1241 -0.0999
22547W        W40751   1.945   1.884  14.151 -0.0287 -0.2277 -0.1019
22548W        W40752  12.509   8.748   4.390 -0.3641  0.2340  0.0917
22549W        W40753  16.527  10.167   4.015  0.0764  0.0253 -0.1424
22550W        W40754   9.911  12.869  17.220 -0.1052  0.0650  0.0719
22551W        W40755   4.190   9.879   2.531  0.3173  0.0145  0.2624
22552W        W40756   5.742   5.557   3.598  0.1516  0.0260 -0.2195
22553W        W40757   1.339  16.923   4.327  0.0970 -0.1561  0.1064
22554W        W40758   8.918  15.953  16.620  0.2534 -0.0464 -0.2208
22555W        W40759  15.778   4.924   5.619 -0.3503 -0.0634  0.1055
22556W        W40760  12.983   5.914   0.011  0.0826  0.1361 -0.0338
22557W        W40761   9.115   8.298   4.789  0.0063 -0.0885 -0.0218
22558W        W40762   2.087   3.303   5.121 -0.3118 -0.0484  0.0596
22559W        W40763  16.273   7.462  15.213  0.0334  0.2705  0.0018
22560W        W40764   0.849   4.317  15.667 -0.0142  0.1749  0.2018
22561W        W40765   2.914  10.003  16.001 -0.0589  0.0766 -0.0599
22562W        W40766  10.726  13.199  14.144  0.1275 -0.0130 -0.0471
22563W        W40767  16.037  11.598   5.000  0.0821  0.0193  0.2476
22564W        W40768  14.010   7.213  14.977 -0.2026 -0.1814  0.2453
22565W        W40769   9.003  10.866  16.147  0.1657 -0.0253 -0.0641
22566W        W40770  10.719   3.420  14.220  0.0284  0.0603  0.0164
22567W        W40771  15.947   4.171   0.317  0.4472  0.0607 -0.3704
22568W        W40772  10.312   8.176  13.656 -0.1734  0.0179  0.2264
22569W        W40773  10.233   4.544  17.422  0.1274 -0.2254 -0.0366
22570W        W40774  13.975  17.099  13.839  0.1989  0.1275 -0.1169
22571W        W40775   6.528   2.755  13.517 -0.1800  0.0282 -0.1817
22572W        W40776  14.719   8.484   3.024  0.3050 -0.3274 -0.2858
22573W        W40777  14.084   1.614  11.933 -0.3247 -0.0678  0.1299
22574W        W40778  12.761  10.065   2.792 -0.0260  0.0093  0.3288
22575W        W40779   4.735   5.643   2.632  0.0002  0.2124  0.0292
22576W        W40780   9.463   8.473  15.531  0.3559  0.1152  0.1684
22577W        W40781   6.300   3.447  16.723 -0.1456  0.1171  0.0477
22578W        W40782  14.552   8.035  14.567 -0.1152 -0.2276 -0.0570
22579W        W40783   5.784  17.102  13.655  0.0081  0.0141 -0.2093
22580W        W40784   4.036  11.479  14.622  0.2533 -0.0220 -0.0441
22581W        W40785   6.829  13.710  14.545  0.0626  0.1701 -0.1845
22582W        W40786   6.024  12.043  14.880 -0.0480 -0.1589 -0.0278
22583W        W40787   0.278  10.120   5.070 -0.2564 -0.0970 -0.0582
22584W        W40788   9.618   9.623  13.370 -0.0808  0.3800 -0.0100
22585W        W40789   8.323   3.387   1.600 -0.2469  0.3212 -0.2318
22586W        W40790   2.812  10.231   0.518 -0.1592 -0.0749  0.1450
22587W        W40791  16.125  10.053   5.747  0.1698  0.2362  0.1757
22588W        W40792  13.687   9.122  16.371 -0.1464 -0.0724 -0.2406
22589W        W40793   8.546  11.663   3.702  0.3877  0.0297 -0.0311
22590W        W40794  16.450   4.112  14.411 -0.1771 -0.0041 -0.0597
22591W        W40795  16.623   4.578  14.363 -0.3044  0.2608 -0.0313
22592W        W40796   5.043   9.336  12.753 -0.2995 -0.0357  0.3668
22593W        W40797   3.114  16.894   3.779 -0.0322 -0.2234  0.0345
22594W        W40798   1.375  14.207   4.335  0.1461  0.3173 -0.0762
22595W        W40799  13.555   0.707   2.288  0.2203 -0.1474 -0.0780
22596W        W40800   0.134  11.677  13.942  0.3412  0.2740 -0.0737
22597W        W40801  14.922   3.783   2.122 -0.2919 -0.2155  0.2667
22598W        W40802  10.837  17.137  16.084 -0.4576  0.0418 -0.1862
22599W        W40803   1.394   0.297  15.893  0.5277 -0.0287  0.1717
22600W        W40804  11.812   3.681   3.167 -0.1331  0.1222 -0.2126
22601W        W40805   9.869  11.531   3.410  0.1631  0.1506  0.2198
22602W        W40806   3.694  15.974  17.006  0.3084  0.2565 -0.1831
22603W        W40807   5.084  11.416   4.500 -0.0378  0.0434 -0.2435
22604W        W40808   3.470   1.619   2.539  0.0914  0.0763  0.1284
22605W        W40809  15.334   7.818  16.286 -0.0954 -0.2560 -0.1826
22606W        W40810  13.077   4.063  15.659 -0.1441  0.1481 -0.1025
22607W        W40811   0.601   6.520   2.372  0.0945 -0.0907  0.0642
22608W        W40812  16.310   8.135   4.724  0.3000 -0.0492  0.1668
22609W        W40813  16.109   0.637   0.588  0.0801 -0.1087 -0.1494
22610W        W40814  12.007  12.203   1.504  0.1580  0.0001 -0.0193
22611W        W40815  15.244   1.662   4.633  0.0025  0.0540  0.2326
22612W        W40816  11.964   9.886   0.662  0.1139 -0.0103 -0.2003
22613W        W40817  16.700   0.757  13.716  0.0878  0.1318  0.0710
22614W        W40818   9.836  14.938  16.854  0.6066  0.3958 -0.0526
22615W        W40819   0.944  16.585   1.341  0.0947 -0.2145 -0.0818
22616W        W40820   5.150   1.552  13.077  0.4278  0.1591 -0.3775
22617W        W40821  12.558   9.977   5.816 -0.1277  0.0166 -0.0658
22618W        W40822  10.790  15.127  12.439  0.0083 -0.0029  0.1113
22619W        W40823  14.499   6.803  14.234 -0.0083  0.1765 -0.0549
22620W        W40824  14.565   6.260  16.093 -0.0995 -0.1000 -0.2942
22621W        W40825  14.714  10.540  13.186 -0.1071  0.1015 -0.3231
22622W        W40826  15.510  13.448  17.087 -0.0253  0.0573 -0.0154
22623W        W40827  10.053   7.689  12.493 -0.3395  0.0754  0.1821
22624W        W40828  11.502   8.396  17.135 -0.1427 -0.1900 -0.3253
22625W        W40829   4.456  16.976  17.148  0.1003  0.1151  0.2318
22626W        W40830  12.797  14.400  12.405 -0.0634  0.2726 -0.1310
22627W        W40831   3.561   1.466  13.455 -0.0887  0.0393 -0.4019
22628W        W40832   8.039  16.771  13.520 -0.0577  0.0611  0.0008
22629W        W40833  15.993   3.899  11.708  0.4236 -0.4312  0.2443
22630W        W40834  10.113   0.755   3.748  0.3347  0.1883 -0.0494
22631W        W40835   9.338  17.060  12.796  0.1261 -0.0259  0.1072
22632W        W40836   4.877  10.838  16.977 -0.1333 -0.3909  0.1344
22633W        W40837   8.799   0.339  14.283 -0.0342  0.0395  0.1306
22634W        W40838   7.969  14.168  16.255  0.4660  0.0001  0.0331
22635W        W40839   2.624  13.851  14.600 -0.1402 -0.0980 -0.2855
22636W        W40840   5.194  13.712   0.737  0.1073 -0.2412 -0.3714
22637W        W40841   4.307  13.205   3.008 -0.0020  0.0679 -0.1243
22638W        W40842  16.290   3.433   3.362 -0.0791 -0.0406  0.1790
22639W        W40843  12.524  16.900   2.127  0.0265 -0.1648  0.0254
22640W        W40844   1.538   7.083  12.936  0.3265 -0.1475  0.1692
22641W        W40845   3.494   5.525   0.224  0.0590 -0.0934 -0.0801
22642W        W40846   6.777  12.489   3.076  0.2499  0.0094  0.1307
22643W        W40847  11.681  16.737  12.992  0.1760  0.2778 -0.0389
22644W        W40848  14.799  12.945   3.048  0.1924  0.3182 -0.1627
22645W        W40849  14.719  12.305   3.787 -0.1549 -0.0836  0.0066
22646W        W40850  14.837  15.832   0.834  0.1318  0.3679  0.0777
22647W        W40851   1.566   8.760  12.566  0.0771  0.3364 -0.0452
22648W        W40852   5.232   0.051   4.415 -0.1998  0.1500 -0.0615
22649W        W40853   4.769  14.503   3.386  0.1004 -0.1444  0.1543
22650W        W40854  11.840   6.150  17.192 -0.0612 -0.1641 -0.4157
22651W        W40855   0.074  13.542  15.465  0.0981 -0.1932 -0.0881
22652W        W40856  16.967  13.471  15.833  0.0520 -0.3251 -0.0519
22653W        W40857  13.503  10.327   1.709 -0.2508  0.1347  0.0539
22654W        W40858   6.711   4.139   4.955 -0.3058  0.1278 -0.1799
22655W        W40859   1.190   4.961  16.145  0.0749  0.3776 -0.1016
22656W        W40860   8.260   7.000  13.787 -0.1610 -0.0120  0.0419
22657W        W40861  12.057   9.077  11.246 -0.0413 -0.0317 -0.2397
22658W        W40862  11.543  12.322  15.492  0.3430 -0.2175  0.1928
22659W        W40863  11.703  11.366   5.372 -0.0493  0.1253 -0.0479
22660W        W40864  14.792   8.300   2.097  0.0890  0.0568  0.1594
22661W        W40865   7.928   0.139   3.117 -0.1364 -0.0058 -0.2645
22662W        W40866   1.388   9.804   3.155  0.1770  0.1165 -0.1309
22663W        W40867  11.285   5.238  16.376  0.1160  0.1156  0.3220
22664W        W40868   0.513   3.997   1.600 -0.0311 -0.0350 -0.0287
22665W        W40869   9.136  14.757  13.729 -0.1707  0.0494  0.0206
22666W        W40870   8.230   8.493   5.097  0.1256 -0.2217  0.2846
22667W        W40871   1.810  15.342  13.768  0.0646 -0.1390  0.0527
22668W        W40872  13.765  15.842   0.019  0.0048  0.2433  0.1418
22669W        W40873   1.084  13.833  13.919 -0.0761 -0.3948 -0.0834
22670W        W40874   5.677  10.051  14.946  0.1138  0.2508 -0.1457
22671W        W40875   6.229   1.921  15.835 -0.1477 -0.0627  0.1917
22672W        W40876  15.974   7.617  13.723  0.0587 -0.0165  0.2010
22673W        W40877  12.578   5.533  12.535 -0.0150  0.0086  0.1323
22674W        W40878   5.862  12.989  15.588  0.1885 -0.1161  0.0167
22675W        W40879  11.134   4.480  15.851  0.0168  0.0716 -0.4589
22676W        W40880  13.062   5.437  15.761 -0.0841 -0.1294  0.0089
22677W        W40881   5.548   6.356   5.374  0.1362  0.4655 -0.3589
22678W        W40882   4.320  16.672   2.292  0.0374  0.0959  0.0564
22679W        W40883   8.002  12.404   3.942 -0.0161 -0.1353 -0.0900
22680W        W40884  14.320   5.133  14.475 -0.4307  0.0339 -0.2491
22681W        W40885  10.964  12.566   5.083  0.0393  0.0820 -0.0422
22682W        W40886  15.150   4.868  16.567 -0.0439 -0.1393 -0.1053
22683W        W40887  16.892   0.761   1.799  0.0670 -0.0081 -0.0693
22684W        W40888   9.762  16.798  14.662 -0.0060  0.0528 -0.0512
22685W        W40889  15.710  14.204   2.238  0.2426 -0.2210  0.4877
22686W        W40890   3.742   4.190   2.156  0.0289  0.0200  0.3481
22687W        W40891  10.860  12.430  17.340 -0.1633 -0.0279  0.1766
22688W        W40892   4.428   2.111   0.550 -0.1796 -0.2157 -0.0408
22689W        W40893   2.999  14.314   4.576  0.3878  0.1861 -0.0721
22690W        W40894  13.427  10.042   4.892 -0.0278  0.2497  0.2583
22691W        W40895   2.208   2.793   1.884  0.1315 -0.2261 -0.0326
22692W        W40896  14.701  16.194  17.408  0.0806 -0.1210  0.0618
22693W        W40897   3.275  17.244   2.796  0.1621  0.4486  0.1379
22694W        W40898   4.276   1.319   1.027 -0.0907 -0.0907 -0.2046
22695W        W40899   8.292   8.627   1.483 -0.1643  0.0437 -0.0099
22696W        W40900  14.707   0.131  15.435 -0.0373 -0.1714 -0.1104
22697W        W40901   6.558  14.367   3.097 -0.0594 -0.0383  0.1118
22698W        W40902   2.150   8.885  13.489 -0.1580  0.1074  0.0624
22699W        W40903   8.751   0.365  12.743  0.2066  0.0081 -0.0181
22700W        W40904  13.911   8.407  15.995  0.0385 -0.0903 -0.3006
22701W        W40905  15.932  12.146  12.980  0.1221 -0.1623  0.0676
22702W        W40906  16.233   5.936  14.663  0.0737  0.1910 -0.0276
22703W        W40907  15.313   5.043  15.904 -0.0585 -0.1572  0.2124
22704W        W40908   6.809  12.336  15.893 -0.1753  0.0307 -0.1552
22705W        W40909  14.780   1.918   2.333  0.2754 -0.2079 -0.0891
22706W        W40910  16.879   3.834  14.226  0.2160  0.3826 -0.3118
22707W        W40911  13.052  16.333   3.761  0.0332  0.2826 -0.0324
22708W        W40912   5.924   1.702  16.885 -0.1688 -0.0963  0.3166
22709W        W40913  10.486  11.343   5.271 -0.0673  0.0886 -0.1389
22710W        W40914  15.477  13.082   3.781  0.0800 -0.1047  0.1670
22711W        W40915   2.185   5.116  12.611  0.1844 -0.0549  0.1016
22712W        W40916  12.138   2.059  17.520 -0.2484 -0.1236 -0.0032
22713W        W40917   3.766   6.195   1.423 -0.0874  0.0222  0.0454
22714W        W40918   7.829   4.990  15.135 -0.0340 -0.0439  0.0701
22715W        W40919   3.689  11.918  16.706 -0.0657 -0.3925  0.0448
22716W        W40920  14.453   8.208  11.644 -0.1646 -0.0696 -0.0727
22717W        W40921  10.271   0.270   2.221  0.1215  0.0606  0.1143
22718W        W40922   0.852   2.389  15.025 -0.2969 -0.1000 -0.1471
22719W        W40923  10.872   0.903  12.311  0.1731 -0.0047  0.1491
22720W        W40924   2.470  10.274   4.638 -0.0750 -0.2540 -0.1201
22721W        W40925   7.095   4.382  12.290  0.1341 -0.2060  0.2356
22722W        W40926   8.016   0.917  17.413  0.1683 -0.3122  0.1071
22723W        W40927   3.001   1.404   4.821  0.1345  0.1630 -0.0341
22724W        W40928   3.374   2.778  14.921 -0.1605  0.2506 -0.0550
22725W        W40929  11.273   5.223   2.363  0.0334  0.0571  0.3081
22726W        W40930  10.888  12.136  15.843  0.0300  0.0822  0.0054
22727W        W40931   6.985   5.687  14.729  0.1753 -0.1131 -0.2098
22728W        W40932  13.168  13.335   4.517 -0.0174  0.1970  0.2405
22729W        W40933  13.075   2.983  15.392 -0.0389  0.4452 -0.0874
22730W        W40934  10.430  15.586  13.039  0.1836  0.2347  0.0085
22731W        W40935   2.645   3.443   2.361  0.1097  0.1971 -0.0485
22732W        W40936   5.157  15.505   2.837  0.0574  0.0284 -0.1040
22733W        W40937  14.969  11.420   5.334 -0.1005 -0.3132  0.1009
22734W        W40938  10.859   7.785   4.414  0.1050 -0.0949  0.1876
22735W        W40939   3.975   8.982  16.019  0.1748 -0.0764 -0.0504
22736W        W40940  11.296   3.816  14.747 -0.0201  0.2287  0.3180
22737W        W40941  13.333   6.478  13.753 -0.1385  0.2975 -0.1740
22738W        W40942   0.375  10.121   5.619  0.0785 -0.2458 -0.2114
22739W        W40943  11.666   4.823   5.716 -0.2184  0.1207 -0.1184
22740W        W40944  14.152  13.421  13.241 -0.0843  0.0313  0.2235
22741W        W40945   1.863   1.576   0.324  0.2296 -0.2954 -0.0785
22742W        W40946   2.947   0.853  13.922  0.1783  0.0807 -0.2028
22743W        W40947   8.945   4.051  12.350  0.0412  0.0944 -0.2227
22744W        W40948   4.992   4.829   3.652  0.1108  0.0901  0.0011
22745W        W40949  11.516  12.325   1.559 -0.2209  0.0770  0.0084
22746W        W40950  13.494   9.091   0.930  0.1619  0.1122  0.0619
22747W        W40951  13.603  17.325  14.176  0.1866 -0.0938 -0.1175
22748W        W40952   1.823  15.983   2.188  0.2799 -0.0675  0.2637
22749W        W40953   4.269  16.938   0.831 -0.0321 -0.1541 -0.4212
22750W        W40954   2.045   2.004   4.167  0.1057  0.1558  0.1805
22751W        W40955  15.421  14.125  15.550  0.1617 -0.1176 -0.2522
22752W        W40956  11.533   6.910   0.461  0.1302  0.0065 -0.0529
22753W        W40957   9.863   9.996   3.310 -0.2892  0.0941  0.2281
22754W        W40958  10.913   3.245  17.257  0.0290 -0.0729 -0.1969
22755W        W40959   2.752   0.114   3.039 -0.1683  0.1141 -0.1038
22756W        W40960  13.591   4.207   5.766 -0.0826  0.2409  0.0061
22757W        W40961  14.836   5.567  17.331  0.0778  0.1319 -0.1400
22758W        W40962   8.212   9.459  12.415 -0.0663  0.1538 -0.0406
22759W        W40963  12.284  12.066  12.426  0.0957  0.1540  0.0402
22760W        W40964  15.920   5.086  16.550  0.3273  0.2026  0.3945
22761W        W40965   3.874   1.798  14.130  0.3073  0.1362  0.2296
22762W        W40966  15.458   4.287  15.546 -0.0975  0.1099 -0.2473
22763W        W40967  10.586  12.663  13.969  0.1105 -0.2244 -0.0635
22764W        W40968  14.943  10.928   5.330 -0.1603  0.0749 -0.1001
22765W        W40969  11.517  15.987   0.502 -0.0630 -0.1392  0.1281
22766W        W40970  12.508  10.797   5.383 -0.2214  0.1564 -0.0358
22767W        W40971   8.164   1.216   1.978 -0.0396  0.0900  0.0377
22768W        W40972  15.218   0.571   2.124  0.1240 -0.0178  0.2724
22769W        W40973  10.432  11.326   4.621  0.0532  0.1040  0.0795
22770W        W40974  10.077   1.313   2.100 -0.0313 -0.0274 -0.0194
22771W        W40975   0.883  12.445   3.706  0.0638 -0.0707 -0.2513
22772W        W40976   2.475  13.613   4.169 -0.2490  0.1176 -0.2662
22773W        W40977   7.442  13.245  15.173 -0.0057 -0.1379 -0.5415
22774W        W40978  15.699  13.963   3.966  0.1362 -0.1176  0.0245
22775W        W40979  15.338   9.309  15.193  0.1533 -0.1809 -0.1310
22776W        W40980  14.731  11.716   2.030  0.0512  0.3916 -0.0088
22777W        W40981  12.647   3.945   5.507 -0.0886  0.5260  0.1944
22778W        W40982  10.636  16.261  16.154  0.0490 -0.1625 -0.0855
22779W        W40983  15.504   0.874   3.786  0.0684 -0.0667  0.0596
22780W        W40984  16.179   5.101  13.916  0.0279  0.3023  0.0413
22781W        W40985  17.071   9.070  16.964  0.0719 -0.1291  0.0994
22782W        W40986  14.082  12.774  12.205 -0.0993 -0.0570 -0.2483
22783W        W40987  16.750   4.572  16.822  0.1896 -0.0156  0.1813
22784W        W40988   8.636  13.213   5.097 -0.0947 -0.0141 -0.1914
22785W        W40989   9.030  10.942  14.138  0.2624 -0.1653  0.0711
22786W        W40990  12.492  13.838   0.400 -0.2111 -0.1299 -0.2220
22787W        W40991  15.250   0.469  12.986  0.4226 -0.2634  0.0299
22788W        W40992  14.522  10.915  14.505  0.1155 -0.1475 -0.1188
22789W        W40993  10.333   7.424  12.781 -0.0168 -0.1179 -0.2798
22790W        W40994   5.792  16.304  15.509 -0.1218  0.2696  0.1894
22791W        W40995  13.994   1.088  14.181 -0.0171  0.1672 -0.1709
22792W        W40996   5.395   6.066  17.104  0.0915  0.2270 -0.0797
22793W        W40997  16.384   9.201  12.384 -0.2612 -0.0339 -0.0665
22794W        W40998   4.338  14.674   0.455 -0.1275 -0.2736  0.1984
22795W        W40999  12.103  12.075   4.267  0.1656 -0.1186  0.0088
22796W        W41000  14.736   9.805   4.362 -0.1294  0.0705 -0.0359
22797W        W41001  17.322  16.576   4.277 -0.0176  0.2770 -0.0321
22798W        W41002   6.104   6.061   0.287  0.0669  0.2873 -0.0511
22799W        W41003  12.280  17.142  14.392 -0.3179  0.1965  0.0864
22800W        W41004   9.944  13.263  15.825 -0.2576  0.1508 -0.2509
22801W        W41005   9.467  14.734   1.714 -0.0432  0.1535 -0.0322
22802W        W41006  16.739  15.111   0.629  0.0862  0.0705  0.0775
22803W        W41007   3.261  14.567  14.834 -0.1399  0.0138 -0.0660
22804W        W41008  13.978  16.576   0.040 -0.1055  0.2567  0.3250
22805W        W41009   8.568   8.101   5.259 -0.1344  0.0324 -0.0779
22806W        W41010   3.526  16.849  17.318 -0.1615 -0.1519  0.0757
22807W        W41011  16.424   8.865  13.270 -0.2255 -0.0695 -0.5971
22808W        W41012   0.888   2.529   2.986  0.0048  0.0942  0.0394
22809W        W41013   8.698   3.968   0.784 -0.0599 -0.2905  0.3528
22810W        W41014   8.049  12.413  13.292 -0.0067 -0.0924 -0.0510
22811W        W41015  13.607   8.287   3.141  0.0634 -0.2017  0.1715
22812W        W41016  15.965   2.703   5.239 -0.0718  0.0138  0.0825
22813W        W41017   6.239   4.533   0.134  0.2044  0.0423 -0.0821
22814W        W41018   9.163   5.310   0.453 -0.1218  0.1478  0.1539
22815W        W41019   0.146   4.080  17.055 -0.3527  0.4802 -0.2047
22816W        W41020  14.759  17.164  12.451  0.1363  0.0112 -0.0228
22817W        W41021   4.887   1.170   1.451  0.0856  0.0487  0.1619
22818W        W41022   7.792  15.615  16.641  0.0462  0.1298 -0.0222
22819W        W41023   1.613   1.392   1.319 -0.0155  0.0037 -0.2147
22820W        W41024   2.581  15.231  15.131  0.0887  0.0861 -0.0523
22821W        W41025   0.594   5.125   3.722  0.2172 -0.0595 -0.1949
22822W        W41026   4.561  10.912  12.593  0.1217  0.2253  0.3426
22823W        W41027   9.546  15.385  15.199  0.0540 -0.1347  0.0368
22824W        W41028  14.379   1.597   4.586  0.0014 -0.4221  0.2070
22825W        W41029  12.901   4.838   6.035  0.1776 -0.0508 -0.1383
22826W        W41030   7.478   0.243   4.143  0.2356  0.1412  0.0590
22827W        W41031   3.231   9.085   3.529  0.2653  0.0852  0.0455
22828W        W41032   2.941   3.345   1.896  0.1416 -0.0671  0.1510
22829W        W41033  14.759  10.965  16.039 -0.1201 -0.0945 -0.3838
22830W        W41034   2.664  14.975  16.023 -0.1801  0.1253  0.0730
22831W        W41035   1.463  14.861   2.789 -0.0003  0.0769  0.2013
22832W        W41036   4.320   5.989  13.996 -0.1069 -0.0860 -0.5866
22833W        W41037  12.518   2.082  13.513 -0.2225 -0.4210 -0.0693
22834W        W41038  11.127  15.986  13.987  0.0673 -0.2826 -0.0630
22835W        W41039   5.690  11.513   5.354 -0.1492  0.1563  0.2803
22836W        W41040   0.820  15.250  16.659 -0.2906 -0.2978  0.2757
22837W        W41041   7.213   2.427  12.375 -0.0468  0.1774 -0.1540
22838W        W41042   8.904   2.143   4.156  0.2047  0.2065  0.1500
22839W        W41043  14.899  15.043   4.456 -0.1008 -0.0025 -0.2040
22840W        W41044   6.264   2.097   4.865  0.0444 -0.0286 -0.1316
22841W        W41045  15.996  16.736   0.548 -0.0532 -0.1417 -0.0850
22842W        W41046  10.507   8.467  12.728 -0.1630 -0.0222  0.1390
22843W        W41047   0.616  11.274   1.698 -0.2187 -0.0491  0.1524
22844W        W41048   1.352   9.737  12.405  0.1249 -0.1684 -0.0751
22845W        W41049  13.444  14.181  15.593 -0.1831 -0.2008  0.1731
22846W        W41050  13.627   2.464   0.898 -0.0803  0.0905  0.5182
22847W        W41051   5.530   0.104   5.469 -0.0070  0.0477 -0.0003
22848W        W41052   9.296   0.996  16.806 -0.1352  0.1102  0.0965
22849W        W41053   2.153   1.099   3.481  0.1504 -0.0599  0.1880
22850W        W41054   1.863   3.086   4.238 -0.0609  0.2079 -0.0872
22851W        W41055   6.025  13.854  14.531 -0.0136  0.0782  0.2031
22852W        W41056  10.182   2.223   3.501 -0.1198  0.1356  0.1277
22853W        W41057   7.168   5.773   2.265 -0.1959 -0.0762  0.0981
22854W        W41058  11.453   1.413  13.781  0.2110 -0.3508 -0.3644
22855W        W41059   2.651   8.203  12.923 -0.2405  0.1967 -0.1372
22856W        W41060   7.939  15.046  16.118 -0.0390 -0.0853  0.0573
22857W        W41061   8.063   9.635   3.501  0.4126  0.0738  0.0436
22858W        W41062  15.021   9.441  13.535  0.0726  0.2022  0.1397
22859W        W41063  11.166  15.261  11.671 -0.0651  0.0260 -0.0511
22860W        W41064   9.302   3.454  13.750  0.0803  0.2136  0.1638
22861W        W41065  17.111  16.744  13.665  0.3018 -0.1150 -0.1477
22862W        W41066   4.983   8.633  12.116  0.2162  0.1667  0.4254
22863W        W41067  13.126  11.383  15.213  0.0120 -0.1234  0.1744
22864W        W41068  10.325   4.863   3.764 -0.0524  0.3920 -0.1695
22865W        W41069   7.138   1.508   3.046 -0.0113  0.1827  0.0192
22866W        W41070   0.198   1.951   5.186  0.0562  0.3509  0.1946
22867W        W41071  13.086  14.955  13.563 -0.2344 -0.1129  0.2320
22868W        W41072  14.643   8.461   1.619  0.1462  0.1901 -0.3501
22869W        W41073  16.299  13.186  14.946 -0.1146  0.0378  0.3072
22870W        W41074   4.231  10.224   4.960  0.2349  0.0317 -0.0709
22871W        W41075  12.257   3.352   4.190  0.2509 -0.4474  0.0386
22872W        W41076   8.934   3.088   2.727 -0.3120  0.1565 -0.3116
22873W        W41077  14.463   7.671  15.463 -0.0535 -0.3176  0.0594
22874W        W41078   3.221   3.670  16.954  0.0153 -0.0272  0.5164
22875W        W41079  13.975   9.900  17.039 -0.5398 -0.0505 -0.2414
22876W        W41080   1.614   8.911  13.698 -0.3522  0.2579  0.1304
22877W        W41081   1.265   7.697   2.399 -0.0925  0.1143  0.2616
22878W        W41082   4.625   2.417  13.195  0.3222 -0.0382 -0.1862
22879W        W41083  14.849  13.610  16.042  0.1129 -0.0068  0.0442
22880W        W41084   8.778   7.518  17.078  0.0085  0.3090 -0.0409
22881W        W41085   6.031  15.117   3.987 -0.1027 -0.1750  0.2518
22882W        W41086   0.297   6.433  17.289  0.0964  0.0391 -0.0192
22883W        W41087  13.186   1.520   1.008  0.1399 -0.5385 -0.3379
22884W        W41088  15.373   0.105  16.992 -0.1413 -0.0356 -0.1345
22885W        W41089  13.889   0.569  15.768  0.2262  0.0731  0.0110
22886W        W41090   7.628   3.263   2.123  0.1013 -0.2259  0.5604
22887W        W41091   9.154   3.820  17.148  0.1013  0.1014  0.2119
22888W        W41092   4.558   4.390   4.487  0.0167  0.0179 -0.3276
22889W        W41093  14.261  13.568   2.370 -0.0217  0.0417 -0.1208
22890W        W41094  10.725  11.653  15.886 -0.0349 -0.0226  0.2735
22891W        W41095  16.751  13.305   0.462 -0.2022  0.0280  0.3461
22892W        W41096   3.680   1.700  17.483 -0.0591  0.3717 -0.1072
22893W        W41097   3.662  12.608   5.349 -0.0784 -0.6125 -0.1574
22894W        W41098  13.092   1.555   4.578  0.0120 -0.4095  0.4095
22895W        W41099  10.952  10.102  15.235  0.1302 -0.2232  0.1743
22896W        W41100  15.746   2.610  16.075 -0.1332  0.4059  0.2886
22897W        W41101  17.031  12.573  13.362 -0.0516  0.0301 -0.0560
22898W        W41102  16.081  15.462  16.291 -0.1255  0.1038 -0.0194
22899W        W41103   4.684   2.600   4.467  0.0134  0.2206 -0.2187
22900W        W41104   5.170   6.046   5.224  0.2739  0.0599  0.0287
22901W        W41105   7.218   8.919   2.547  0.1301  0.2519  0.0345
22902W        W41106   1.314   8.490  12.927  0.0757  0.0042 -0.1159
22903W        W41107   5.156  12.651   3.688 -0.0995  0.0447 -0.3207
22904W        W41108   0.173   1.466   0.795  0.0143  0.2499 -0.5463
22905W        W41109  15.341   8.410  14.564  0.5754 -0.0271  0.0236
22906W        W41110   4.089  13.190  17.169 -0.0424 -0.0568  0.2915
22907W        W41111  10.226  13.797   3.747  0.1030 -0.1684 -0.0615
22908W        W41112  13.791   6.588   2.607 -0.1166  0.1047 -0.1415
22909W        W41113  16.542   9.298  14.173  0.0149  0.0667 -0.1132
22910W        W41114   7.422   0.585   3.687 -0.1821  0.0745 -0.1419
22911W        W41115   2.337  14.298   3.069 -0.2564 -0.2025  0.1309
22912W        W41116   7.510   3.289   3.676 -0.4477 -0.0685  0.1611
22913W        W41117  16.078  12.072   1.545  0.3783  0.1889 -0.1485
22914W        W41118  16.817  16.696   1.967 -0.3334  0.1269 -0.1849
22915W        W41119  16.166   6.500  14.712 -0.0805  0.3505 -0.3088
22916W        W41120  16.538   8.698  15.098 -0.3260  0.0469  0.0896
22917W        W41121   0.120  15.116   3.013  0.1483 -0.1510 -0.2543
22918W        W41122  10.679  12.643   1.932 -0.0496 -0.1865 -0.5667
22919W        W41123   0.442   6.159  16.306 -0.1643  0.0633  0.1438
22920W        W41124   4.589   1.499  17.473  0.0737  0.0136  0.2095
22921W        W41125  13.854  10.587  17.476  0.2145 -0.0738 -0.1040
22922W        W41126  12.542   9.323   3.614 -0.1346 -0.1053  0.0248
22923W        W41127   7.830   1.938   1.090 -0.0428  0.0078  0.0218
22924W        W41128   8.518  12.980  14.137 -0.3154 -0.0793  0.2030
22925W        W41129   5.098   6.210   3.088 -0.3789 -0.1189 -0.3427
22926W        W41130  17.259   2.507   3.591  0.1497  0.0945  0.1634
22927W        W41131   5.123   8.603  17.284  0.0344 -0.0380  0.1795
22928W        W41132   0.722   6.108  16.794  0.0869 -0.2779  0.1100
22929W        W41133  10.657   9.411  16.333  0.0731  0.2347 -0.0938
22930W        W41134   5.908   3.740  12.822 -0.0015  0.1641 -0.0785
22931W        W41135  11.754   9.045   2.615  0.2476 -0.3807  0.0031
22932W        W41136   7.186   0.793   4.642 -0.3018 -0.0232 -0.1007
22933W        W41137   9.248   2.311   1.091 -0.2019  0.0494 -0.0263
22934W        W41138  13.138  14.429   2.649  0.0150  0.1397  0.0955
22935W        W41139  15.314  16.202   1.624  0.1303  0.1066 -0.1086
22936W        W41140   4.937  16.165   2.829  0.1523 -0.1007 -0.0161
22937W        W41141  15.226  11.780   1.729  0.0891 -0.1410  0.0535
22938W        W41142   4.409  14.168  12.237  0.1651 -0.2551  0.0238
22939W        W41143   8.454  13.577   4.309 -0.0619  0.0089  0.3628
22940W        W41144   5.366   6.531  13.328 -0.0866  0.0335  0.2035
22941W        W41145   8.490  15.898  13.775 -0.2645 -0.1520 -0.1907
22942W        W41146   9.046  10.299   1.307  0.0418 -0.0478  0.0383
22943W        W41147  17.198   6.301   5.042  0.2044 -0.1410 -0.1671
22944W        W41148   0.383   7.500   1.940 -0.0860 -0.1143  0.1800
22945W        W41149   4.329   0.859   1.721 -0.0177  0.1510 -0.0032
22946W        W41150   1.644   6.271   4.907  0.5840 -0.0377  0.2446
22947W        W41151   4.960  10.304  13.127 -0.0783  0.0983  0.1121
22948W        W41152   7.764  13.550   4.368  0.0368  0.0347  0.2170
22949W        W41153   0.282   0.925   2.969  0.2958  0.1546 -0.0357
22950W        W41154   7.054  16.504  12.973  0.3080 -0.0793 -0.1647
22951W        W41155  12.408  14.306  12.670 -0.0514  0.2334  0.1994
22952W        W41156  11.463   5.607  14.149  0.0733  0.2213  0.2105
22953W        W41157   6.607   7.769   0.540 -0.2615 -0.0695 -0.1645
22954W        W41158   0.954   1.951   0.662  0.2657 -0.1555  0.0230
22955W        W41159  14.048   1.336  15.493  0.0631 -0.5243  0.0770
22956W        W41160   4.032  14.105   2.237 -0.0442 -0.0845  0.2581
22957W        W41161   3.198  12.996  13.047  0.1646  0.1426  0.0185
22958W        W41162  10.254  10.133   3.643  0.1969 -0.0249 -0.1015
22959W        W41163   2.381   9.871   2.301  0.0183 -0.0470 -0.0932
22960W        W41164  13.369  12.662  16.299 -0.0025  0.1398 -0.0671
22961W        W41165   2.749  16.571  15.303 -0.1963  0.1352  0.2327
22962W        W41166   5.298   2.029   2.425 -0.1309 -0.1466  0.0041
22963W        W41167   5.353  15.315   0.021 -0.1240 -0.2279 -0.1408
22964W        W41168   3.994  10.237   3.377 -0.0069 -0.2114 -0.1946
22965W        W41169   2.788   8.758   4.433 -0.0285 -0.0119 -0.1203
22966W        W41170   7.191  14.084   5.718  0.0802  0.2807 -0.0794
22967W        W41171  13.689   8.218   1.085 -0.2555  0.1160 -0.0461
22968W        W41172  15.867   2.783  15.641 -0.1114 -0.3605 -0.0569
22969W        W41173   3.482   3.584   0.130 -0.1001 -0.0014 -0.2227
22970W        W41174  12.793   7.412  13.523  0.2252 -0.0887  0.3178
22971W        W41175   7.062   2.257  11.916  0.1714  0.2026  0.1804
22972W        W41176   3.412   2.372   1.207  0.3540  0.1032  0.0206
22973W        W41177  12.829   7.682  12.277  0.1299  0.1063 -0.0409
22974W        W41178  16.916   2.639  12.442  0.0291  0.2002 -0.0741
22975W        W41179   6.416   2.188  12.258 -0.1560 -0.1008 -0.1250
22976W        W41180  17.055   7.327   4.326  0.0969 -0.1674 -0.1584
22977W        W41181   8.468  13.302  14.924 -0.0940  0.0420  0.0663
22978W        W41182   1.385  11.678  15.790  0.0094 -0.0528 -0.2842
22979W        W41183  12.538  16.275   3.176  0.0684 -0.2098  0.0690
22980W        W41184   0.426   9.890   1.681 -0.1203 -0.2142  0.3200
22981W        W41185   0.465  11.458  16.769 -0.0524 -0.0220 -0.0527
22982W        W41186   1.430  15.330  15.461  0.0687  0.1534 -0.0453
22983W        W41187  11.433  12.361  14.570 -0.0447  0.2592 -0.2518
22984W        W41188  17.222  16.559  15.851 -0.1693 -0.3982 -0.0391
22985W        W41189   8.987   6.886   4.467  0.0322 -0.2532 -0.2101
22986W        W41190   9.088   9.823   3.466  0.2336  0.1342  0.2160
22987W        W41191   3.257  10.304  14.002  0.1167 -0.1185  0.0925
22988W        W41192   4.271  12.161   4.899  0.1428 -0.2885 -0.0730
22989W        W41193  15.892   5.461   4.100  0.3334 -0.1774 -0.0624
22990W        W41194  12.526   5.460   2.628 -0.1803  0.0637  0.0217
22991W        W41195  13.312   2.307  17.452  0.0563 -0.1201  0.0109
22992W        W41196  10.808  12.959   0.655  0.0163 -0.3138 -0.0286
22993W        W41197   3.459  15.949  16.010  0.0911 -0.1972  0.1103
22994W        W41198  15.815  15.437   0.200  0.0237 -0.1933 -0.0175
22995W        W41199  16.827   4.929   4.780  0.1014 -0.0040  0.1400
22996W        W41200   6.587   3.346   2.863  0.0073  0.0079 -0.0143
22997W        W41201  13.050   9.894   1.844  0.0145 -0.2784 -0.1316
22998W        W41202  10.848   0.510   2.425 -0.1744 -0.2319 -0.5339
22999W        W41203   2.137   5.978   1.576  0.1092 -0.0697  0.0287
23000W        W41204   5.721  12.054  13.664 -0.3910  0.2429  0.0331
23001W        W41205   8.224   9.972  13.622 -0.0749 -0.0877  0.3241
23002W        W41206  14.382   2.249  14.524  0.1429  0.0035  0.0236
23003W        W41207   3.073   0.024  13.666  0.1385  0.2558  0.2220
23004W        W41208  14.014   4.662   1.142  0.0068  0.0067  0.0859
23005W        W41209  14.781  12.892  16.775 -0.0585  0.0436 -0.1317
23006W        W41210  13.322  13.886   4.244 -0.0295 -0.1980 -0.0745
23007W        W41211   7.688   2.783  12.847  0.1054 -0.1545 -0.1482
23008W        W41212  12.700  10.095   1.453  0.0899 -0.2210 -0.4572
23009W        W41213   5.819   1.472   0.247 -0.0896 -0.1790 -0.0645
23010W        W41214   5.544   9.896   1.483 -0.3867  0.1522  0.0241
23011W        W41215  13.133   8.700   5.221  0.2936 -0.0975  0.0381
23012W        W41216  11.504  11.187  12.269  0.0103 -0.1497  0.1727
23013W        W41217   3.794   1.043  16.969  0.0993 -0.1819  0.1170
23014W        W41218   0.513   1.046  16.138 -0.1347  0.0509 -0.1072
23015W        W41219  17.167  12.072   0.584 -0.2906  0.2905 -0.0457
23016W        W41220  10.305  12.118  14.465  0.0232 -0.2339  0.0100
23017W        W41221  15.957   2.776  16.950  0.0682  0.2662 -0.1252
23018W        W41222   7.956   8.225   4.733  0.0566  0.1370 -0.2011
23019W        W41223   1.765  11.170  15.496  0.3112 -0.0330  0.1216
23020W        W41224  15.709   1.716   3.278  0.0509  0.1726  0.0038
23021W        W41225  14.586  11.106   4.969 -0.1722 -0.0192  0.2763
23022W        W41226   0.690  16.443  13.343  0.0569 -0.0666 -0.1407
23023W        W41227  15.213   2.257  12.878  0.1196 -0.0563 -0.3646
23024W        W41228  13.373   2.987  16.283 -0.4649  0.1770  0.2299
23025W        W41229  15.475   9.922  17.458 -0.0934 -0.2426 -0.2079
23026W        W41230   1.091   8.100  16.368  0.0299  0.1468  0.1502
23027W        W41231   4.464   5.863  13.095 -0.0131 -0.0146 -0.1097
23028W        W41232  14.245   8.500  13.985  0.1093  0.1415 -0.1557
23029W        W41233   9.864   3.793   0.370  0.0490  0.1438  0.0849
23030W        W41234  17.005   4.134  16.826 -0.0120 -0.2403  0.2029
23031W        W41235  16.884  13.410  16.336 -0.0762 -0.0560 -0.3706
23032W        W41236   6.812  10.715  13.345 -0.0381  0.0380  0.0728
23033W        W41237   8.640   1.589  17.224 -0.0458  0.3223  0.2981
23034W        W41238  17.197   9.984  13.450 -0.1085 -0.0720 -0.0422
23035W        W41239   4.143   1.832  15.773  0.5331 -0.1235 -0.0095
23036W        W41240   8.552   0.153   2.170  0.0102 -0.0818  0.1351
23037W        W41241   7.166  12.971   4.297 -0.0447  0.0509  0.2521
23038W        W41242  12.118   3.742  15.782 -0.0304 -0.0512 -0.2419
23039W        W41243   1.557  13.534  14.955 -0.0533  0.0972  0.1081
23040W        W41244   3.167  17.182  15.928 -0.0396  0.0606  0.0535
23041W        W41245   2.967   6.037   3.555 -0.1114 -0.0534 -0.0504
23042W        W41246  12.872  16.158  14.527  0.2451 -0.1182 -0.0712
23043W        W41247   2.770  14.438  15.847 -0.0733 -0.1280 -0.2495
23044W        W41248   4.407   4.799  13.306  0.0424 -0.1792  0.0803
23045W        W41249  16.164  17.154   0.826 -0.0319 -0.1740 -0.0601
23046W        W41250   5.771   5.442  14.034  0.1239 -0.0784 -0.0616
23047W        W41251   0.173   2.326   2.323 -0.1402 -0.2012 -0.1354
23048W        W41252  13.801   2.712   5.134  0.1962 -0.3344 -0.0117
23049W        W41253   5.853   1.133  13.576  0.2100 -0.3602 -0.1726
23050W        W41254   4.991   3.056  14.002  0.0152  0.1465 -0.3850
23051W        W41255   0.630  10.397   0.170 -0.0719 -0.1330 -0.1790
23052W        W41256  14.463  15.548   1.109  0.1042 -0.5043 -0.0745
23053W        W41257   7.920  17.302   4.812 -0.1390 -0.0631  0.2830
23054W        W41258   8.502   2.267   2.385  0.1975 -0.0357 -0.2733
23055W        W41259  10.161  13.345  12.829  0.1745  0.2081 -0.2742
23056W        W41260  10.086  12.785   3.373 -0.1060 -0.2819  0.1226
23057W        W41261   4.230   4.321   4.011 -0.3089  0.2065 -0.0125
23058W        W41262  11.918  14.549   3.017 -0.0165 -0.3387  0.0166
23059W        W41263   7.299   8.608  16.436  0.0845 -0.0682  0.0110
23060W        W41264  11.571   1.791   0.631  0.0426  0.1444 -0.0636
23061W        W41265   7.877  11.350  16.199  0.0399 -0.0195  0.3245
23062W        W41266   5.708  15.323  13.563 -0.1756  0.4177  0.0209
23063W        W41267   2.827   0.539  17.130  0.0673 -0.0038  0.0116
23064W        W41268   2.838   0.130   2.022 -0.3325  0.2413 -0.1729
23065W        W41269  11.004   5.341  13.629 -0.0549  0.0415  0.2523
23066W        W41270   1.888   6.757  13.122 -0.1782 -0.2599  0.1014
23067W        W41271  13.952   5.595  17.516 -0.0001 -0.0201  0.2917
23068W        W41272  15.536   5.518  17.197 -0.0550  0.0365 -0.2515
23069W        W41273   6.607   4.444  17.295 -0.0200  0.0961  0.1783
23070W        W41274   3.965   1.577   1.374 -0.0216  0.0607  0.2033
23071W        W41275   7.757   1.064  12.342  0.1091  0.3164 -0.0672
23072W        W41276  16.864   8.190  16.318  0.0351 -0.3976  0.2709
23073W        W41277   1.369   5.049   1.351 -0.2433  0.1305 -0.0419
23074W        W41278   8.315   0.854  15.692 -0.2161  0.3059 -0.1806
23075W        W41279   6.765  16.266  15.215  0.1866  0.1008  0.1379
23076W        W41280   6.450   4.048   4.544  0.0527 -0.1709 -0.1387
23077W        W41281   1.812   9.253  14.048  0.1163 -0.0057  0.4908
23078W        W41282  15.396   9.972   4.227 -0.1227  0.1246  0.2024
23079W        W41283  17.264   8.526  16.651  0.1000 -0.3770 -0.1058
23080W        W41284  12.984   6.513   5.421  0.0161 -0.1419 -0.0224
23081W        W41285   3.565   6.534  16.950 -0.0777  0.0317  0.0884
23082W        W41286   6.630   5.969  15.182  0.0899  0.0222  0.2046
23083W        W41287   1.702   6.168  15.836 -0.0045  0.1285  0.0843
23084W        W41288  12.331   7.687   4.807 -0.0727 -0.0817 -0.3618
23085W        W41289  10.418  15.687  17.166  0.1800  0.0652  0.0592
23086W        W41290  11.534   3.343   4.778  0.1842  0.0256  0.1808
23087W        W41291   5.564  17.065  17.267 -0.3665 -0.0638 -0.0530
23088W        W41292   5.552   2.771  14.769 -0.0530 -0.2184  0.2409
23089W        W41293   7.191   0.399  15.678 -0.0533  0.2240  0.1524
23090W        W41294   0.125  14.645   1.260 -0.0438  0.2753 -0.0387
23091W        W41295  13.836   7.019   4.310  0.0700 -0.1863 -0.1231
23092W        W41296   1.550  13.576   0.588 -0.3828 -0.0610  0.2568
23093W        W41297  11.497  16.604   1.691  0.1675  0.1315  0.2079
23094W        W41298   6.563   6.529  15.156 -0.1934 -0.3633  0.0527
23095W        W41299  17.032   6.588  13.382 -0.0411  0.0397  0.2518
23096W        W41300   0.559   5.795  15.410 -0.1805  0.2208  0.3152
23097W        W41301   1.569   9.678   0.351  0.1207 -0.2988 -0.0395
23098W        W41302  16.417  12.286   1.880  0.1176 -0.0766  0.0673
23099W        W41303  14.814   3.179   1.483  0.0641 -0.0041 -0.0995
23100W        W41304   5.828   5.975   4.502 -0.1061  0.0076  0.2335
23101W        W41305  10.297   4.015  12.188  0.1070  0.0768 -0.2015
23102W        W41306   1.861   7.797  13.314  0.0140  0.2626 -0.0743
23103W        W41307   8.299  14.468   4.435 -0.0585  0.1437  0.1219
23104W        W41308   5.574  15.332   5.163  0.1615 -0.3081  0.2084
23105W        W41309   2.723   4.647  15.035 -0.1553  0.0039 -0.2404
23106W        W41310  11.812   2.395  17.402  0.0022 -0.2208 -0.2088
23107W        W41311  13.727   6.318  14.766  0.0319  0.1928  0.2880
23108W        W41312   9.584   5.030  12.213  0.2383 -0.2380  0.1748
23109W        W41313  12.312   1.079  17.525  0.2127 -0.1207  0.2249
23110W        W41314   9.810  15.874  14.482 -0.2362  0.1565 -0.0003
23111W        W41315  15.629   5.864  13.710 -0.1195 -0.1507 -0.0900
23112W        W41316   9.000   2.478  17.057  0.1978 -0.1502  0.2992
23113W        W41317  13.651  14.540   0.642 -0.0880  0.2044  0.6783
23114W        W41318  17.054   7.119  13.434  0.0942 -0.1654 -0.2328
23115W        W41319  16.674   9.864  13.521  0.0131 -0.0445  0.2239
23116W        W41320  16.766   2.427   4.780 -0.1125  0.0651 -0.0366
23117W        W41321   0.831   0.281   3.980  0.2678  0.4334 -0.0589
23118W        W41322   1.514  12.918   5.640 -0.4993 -0.2722  0.2605
23119W        W41323  10.312  13.856  15.273  0.0053  0.0770  0.0801
23120W        W41324   5.596  10.504   4.539  0.0420  0.0123 -0.0964
23121W        W41325   4.443   8.333  16.764  0.1766 -0.1975 -0.2424
23122W        W41326  12.028  10.440  17.458 -0.1387  0.0254 -0.0354
23123W        W41327  12.945  14.355   5.959  0.0983  0.0539  0.3965
23124W        W41328  13.517   6.708  13.324 -0.0126 -0.0065 -0.0009
23125W        W41329   6.775   8.186  16.512  0.1006 -0.2667  0.1032
23126W        W41330  14.078   0.930  17.003  0.2095  0.1462 -0.2616
23127W        W41331  11.854   0.885   1.056 -0.0406  0.0976  0.2992
23128W        W41332   4.421   0.006   3.053 -0.0944 -0.1196 -0.0186
23129W        W41333   7.090  10.866   1.832  0.1630 -0.1635 -0.3596
23130W        W41334  15.141  16.352  14.100 -0.1025  0.0868 -0.0695
23131W        W41335   4.309   1.841   5.215 -0.0866  0.0045 -0.3469
23132W        W41336   4.088   2.764   3.170 -0.1992  0.0393  0.1179
23133W        W41337   5.742   2.056  15.760  0.0199  0.4869 -0.1516
23134W        W41338   7.681   8.784   2.217  0.0690 -0.3433 -0.2160
23135W        W41339  13.981  12.885   1.249  0.1195 -0.0512  0.0691
23136W        W41340  14.390   4.891  17.138  0.0230  0.0271 -0.2324
23137W        W41341  13.280  11.785   1.159  0.1356  0.1260  0.1017
23138W        W41342   2.426   7.634  16.106 -0.1377  0.0991  0.1684
23139W        W41343   8.016   2.071  16.843 -0.2842 -0.1063  0.1204
23140W        W41344   6.724  11.181   2.028 -0.1838  0.3311 -0.2618
23141W        W41345   2.332   2.329  12.502  0.1790 -0.1764  0.2938
23142W        W41346  11.540   1.799  14.829  0.0907 -0.0829 -0.0693
23143W        W41347   0.326   2.560   4.368  0.1130  0.0983 -0.0959
23144W        W41348   3.222   3.522   3.642  0.1425 -0.0246 -0.1059
23145W        W41349   5.014   1.116  12.438  0.3391 -0.1813  0.2136
23146W        W41350   1.565   7.082   5.049  0.0119  0.1497  0.1530
23147W        W41351  16.401  17.130   4.201  0.0198  0.1801  0.1304
23148W        W41352   2.335   5.811   0.861  0.5517  0.0852 -0.0358
23149W        W41353  10.327   9.494   3.933  0.1790 -0.3240  0.0876
23150W        W41354  11.442   6.872  17.076  0.1961 -0.1721 -0.2014
23151W        W41355  10.273   4.983   2.585 -0.1068 -0.0614  0.0127
23152W        W41356  15.869  14.678  15.365  0.0763 -0.1689 -0.0747
23153W        W41357  10.838  12.692  15.920 -0.0427 -0.0528  0.0193
23154W        W41358   2.997  10.879  12.538 -0.3741  0.1653  0.1317
23155W        W41359  10.734   6.156  14.060 -0.1672  0.0332 -0.2530
23156W        W41360  14.400   3.434   1.701  0.0046  0.1355 -0.1106
23157W        W41361  13.941   4.340   4.453  0.1657 -0.1038  0.2734
23158W        W41362   3.278  14.347  17.500 -0.2997  0.0157  0.0804
23159W        W41363  12.783   5.527  15.366  0.1265  0.1083  0.0761
23160W        W41364  16.518  10.232   2.561 -0.0212 -0.1276  0.0415
23161W        W41365   4.622  13.744   5.363  0.1170  0.1893  0.0722
23162W        W41366   9.341   7.836   2.582  0.2528 -0.2812  0.0402
23163W        W41367   0.829   2.259  17.447  0.0034 -0.2563  0.1084
23164W        W41368   8.132   7.703  11.942  0.1356 -0.2025 -0.0694
23165W        W41369   5.121   1.670  15.239 -0.1414 -0.2436  0.1489
23166W        W41370   4.633   2.844   3.966  0.1293  0.2941  0.1724
23167W        W41371   7.201  14.112   3.689 -0.2544  0.0674 -0.1603
23168W        W41372   7.636   2.615   4.465 -0.0269  0.2434 -0.0384
23169W        W41373  13.489   5.742   4.073  0.1152  0.0077 -0.0551
23170W        W41374   6.469   4.134   0.423  0.2986  0.3664  0.1436
23171W        W41375   4.843  14.142  12.602 -0.1809 -0.1307  0.0254
23172W        W41376  11.525  16.226  14.188  0.0340  0.1939 -0.0662
23173W        W41377   3.756  14.660  16.115 -0.1943 -0.0652 -0.0637
23174W        W41378   4.363   1.604  12.730 -0.1444 -0.1304  0.0384
23175W        W41379   7.219   2.380  16.370  0.0559 -0.3393  0.0539
23176W        W41380   6.899  15.238  17.053  0.4331 -0.0673  0.3243
23177W        W41381  17.023   8.186  15.796  0.2360  0.1135 -0.1580
23178W        W41382  16.619  15.816  14.829  0.3378 -0.2094 -0.1428
23179W        W41383   0.537  11.578   1.267  0.1013  0.1269 -0.3041
23180W        W41384  11.907  11.892  13.816 -0.0185 -0.1101  0.3734
23181W        W41385  10.015   8.098  12.149 -0.0363  0.1827  0.1976
23182W        W41386  15.113   7.296   2.571  0.2628 -0.0910  0.1325
23183W        W41387  13.369  13.574  14.471  0.1256  0.2863  0.0744
23184W        W41388   6.515   6.433   1.214  0.1034  0.3988  0.1010
23185W        W41389  16.716   3.664   2.600 -0.2000 -0.2223 -0.0574
23186W        W41390   1.870   6.311  12.909 -0.0458  0.2116 -0.0560
23187W        W41391  17.060   9.129  15.528 -0.3384 -0.3343 -0.0619
23188W        W41392   3.023   5.702   3.934 -0.1569  0.0730 -0.3006
23189W        W41393   6.457   1.604  16.819  0.1806 -0.1798 -0.1134
23190W        W41394  15.594  13.630  16.512 -0.0310  0.0852  0.1649
23191W        W41395  13.275  16.772   2.796 -0.0507 -0.1773  0.0229
23192W        W41396  12.583  16.709  14.428  0.3709 -0.1204  0.1062
23193W        W41397   6.504   3.450   5.304  0.3265 -0.1653  0.1531
23194W        W41398  10.564   3.190  13.759 -0.0014 -0.2373  0.0687
23195W        W41399  17.279   5.925   2.215 -0.0390 -0.5492  0.3442
23196W        W41400   8.421   2.639  14.377  0.1678 -0.1097  0.2895
23197W        W41401   2.107  16.022   5.498  0.2477 -0.2521  0.0304
23198W        W41402  10.075   1.699   5.506 -0.0129 -0.1083  0.0548
23199W        W41403   3.055   4.215   2.905  0.2203 -0.0978  0.0516
23200W        W41404  13.296   2.736   4.964 -0.0196  0.0459 -0.2906
23201W        W41405   1.161   3.964   2.346  0.0111  0.2657 -0.0728
23202W        W41406   2.766   4.095  13.859 -0.1884  0.1882 -0.0333
23203W        W41407   5.836   7.756   0.336 -0.0214 -0.2461 -0.0232
23204W        W41408  13.065  13.011   0.773  0.0126 -0.1685  0.3640
23205W        W41409   9.896  13.796  16.113  0.0802 -0.3486 -0.1627
23206W        W41410   4.660  11.776  16.054 -0.2584 -0.1961 -0.0058
23207W        W41411  16.990   7.485   2.308  0.0607  0.1101 -0.2679
23208W        W41412   1.983   5.509  12.937 -0.1160 -0.0967 -0.0555
23209W        W41413   9.974  17.306  15.627 -0.0932 -0.0020 -0.0935
23210W        W41414  16.218   7.536   4.095  0.2702  0.0994 -0.0806
23211W        W41415   9.897  13.215  16.772 -0.0495 -0.2795  0.2204
23212W        W41416  16.226  14.760   4.224  0.0721 -0.0499 -0.2471
23213W        W41417   0.474   2.076  15.936 -0.3002  0.2867 -0.0120
23214W        W41418  13.582   4.995  11.921 -0.1328 -0.0937  0.0743
23215W        W41419   8.729  11.908   0.637  0.0803 -0.0012  0.0359
23216W        W41420   9.790  11.118  15.282 -0.3583  0.0794  0.1200
23217W        W41421   8.655   7.299   4.142 -0.1227  0.1863 -0.2327
23218W        W41422   7.720   0.883   5.492 -0.2030  0.0421 -0.3374
23219W        W41423  14.364   6.625  16.383 -0.2055  0.1642 -0.0124
23220W        W41424  10.768  11.109   0.140 -0.3159  0.3510  0.2017
23221W        W41425  15.612   6.052   4.915 -0.0706 -0.1174 -0.1688
23222W        W41426   2.001   6.806   0.215 -0.0776  0.1966 -0.2970
23223W        W41427  17.176  13.115   2.593 -0.1844  0.0441 -0.0456
23224W        W41428  11.534   0.566  12.781  0.3559 -0.1410 -0.0591
23225W        W41429  13.021   7.271  14.432  0.2963  0.1016 -0.1767
23226W        W41430   1.305  13.927  14.978 -0.2468 -0.0263  0.2543
23227W        W41431  10.930  10.383  16.505  0.0424  0.1216  0.0151
23228W        W41432  13.571  14.383   3.527  0.1596  0.1924  0.2061
23229W        W41433   6.080   8.474  12.701 -0.0506  0.1370 -0.1515
23230W        W41434  14.670   2.368   6.376 -0.0368  0.0677  0.2979
23231W        W41435  16.610  11.340   2.394  0.1238 -0.1728  0.0167
23232W        W41436  16.526   3.143  16.060  0.0680 -0.3051 -0.1461
23233W        W41437   0.425  12.490   0.464  0.2324 -0.3284  0.0584
23234W        W41438   0.825  14.831   0.317  0.1650 -0.1104  0.0520
23235W        W41439   0.235   1.830   3.046 -0.2456  0.3028  0.3854
23236W        W41440   5.148  12.069   3.396 -0.1290 -0.1091 -0.0219
23237W        W41441   9.889   4.139  13.170  0.2676  0.1364 -0.3596
23238W        W41442   2.322   4.277  14.981  0.2391 -0.0428 -0.0093
23239W        W41443   7.992  10.828  16.371 -0.3574 -0.2185  0.1202
23240W        W41444   8.496  15.866  14.334 -0.0262 -0.3348 -0.0735
23241W        W41445  12.417   3.847   4.130  0.1713 -0.2158 -0.0015
23242W        W41446   2.794  13.197   5.434  0.2215  0.1427  0.2862
23243W        W41447  16.259   1.508  14.827  0.3151  0.2625 -0.1108
23244W        W41448  11.074   3.293   2.488 -0.0561  0.2097 -0.0388
23245W        W41449  13.497  16.746  13.300 -0.0409 -0.0685  0.3707
23246W        W41450   9.806   9.346   4.889 -0.1878 -0.2448 -0.1719
23247W        W41451   6.659  11.210   3.777  0.2046  0.0825  0.0088
23248W        W41452   5.825   4.967   0.091 -0.1648 -0.2741  0.0158
23249W        W41453  15.940  11.075  13.813 -0.0145  0.0766  0.0236
23250W        W41454  14.218  13.693  12.779 -0.0231  0.0160 -0.2143
23251W        W41455   7.450  12.250  13.636  0.3165 -0.0115 -0.0081
23252W        W41456   1.881  15.730  12.784 -0.0231  0.0751  0.1997
23253W        W41457  13.825   8.758  14.160 -0.0651 -0.1377 -0.2385
23254W        W41458  10.387   2.123  13.769 -0.0802  0.2218  0.0642
23255W        W41459  11.105   2.562   4.540 -0.0751 -0.1383 -0.2156
23256W        W41460   3.296   7.787   1.300 -0.0971  0.0036 -0.3691
23257W        W41461  13.485   9.671  12.334  0.2170  0.0745 -0.2888
23258W        W41462  12.294  15.085  17.407 -0.0311 -0.0394  0.2770
23259W        W41463  10.082  15.692   1.718 -0.0758 -0.0432 -0.1823
23260W        W41464   3.481  15.073   4.927  0.1182  0.1434  0.0882
23261W        W41465   5.426   7.207   2.973  0.4502  0.2791 -0.1720
23262W        W41466  16.523  13.605  13.178 -0.2440  0.3811 -0.0711
23263W        W41467  12.314   0.423  12.252  0.0565  0.0723  0.1335
23264W        W41468   6.315   0.107   0.742 -0.0450  0.4492 -0.0396
23265W        W41469  14.489   2.277   4.005 -0.0719 -0.1129  0.1354
23266W        W41470   3.445   1.723   1.215  0.2089  0.4382  0.0631
23267W        W41471  14.371   2.642  12.777  0.1284 -0.0228 -0.3896
23268W        W41472  13.847  10.557   1.137  0.0668 -0.2918  0.1224
23269W        W41473  14.708  16.731   3.926 -0.1428  0.0474  0.0086
23270W        W41474  17.231   5.335  16.212 -0.1086 -0.1186  0.1634
23271W        W41475   5.831   9.884  12.152 -0.1774 -0.4088  0.1337
23272W        W41476  10.146   7.514   5.607  0.2121 -0.1025  0.2524
23273W        W41477   9.192   3.070   3.269 -0.0476  0.0652 -0.1507
23274W        W41478  16.054  12.733   4.339  0.3213 -0.1810  0.2121
23275W        W41479  14.954  16.171   3.397 -0.0604  0.3819 -0.2257
23276W        W41480   0.539  16.702   5.551 -0.0800 -0.4257 -0.1673
23277W        W41481   5.549   8.369   3.495 -0.0204 -0.0221  0.0754
23278W        W41482  12.821  10.406  13.691  0.0484  0.1123 -0.2042
23279W        W41483  15.194  16.671  16.788  0.1305 -0.0903 -0.1658
23280W        W41484   5.764   6.823  14.802  0.1609  0.3620  0.0984
23281W        W41485   5.523  14.493   1.324 -0.0737  0.2911 -0.2254
23282W        W41486  12.786   7.453  17.074 -0.2857  0.1270 -0.0466
23283W        W41487  13.248   7.934   3.263  0.0125 -0.0263 -0.0883
23284W        W41488   8.806  16.292  13.561 -0.0516 -0.1000  0.0018
23285W        W41489   8.903  13.624  16.320 -0.1679 -0.0281  0.1905
23286W        W41490  11.774  13.926   3.059  0.0950  0.1937 -0.0237
23287W        W41491  10.064  16.983  13.859 -0.0664  0.1012 -0.1974
23288W        W41492   4.153   7.218   5.412 -0.1999 -0.0517  0.0667
23289W        W41493   3.192   3.360   1.366 -0.1784  0.0501 -0.3026
23290W        W41494   6.914  10.071   4.442  0.2115  0.0191  0.0271
23291W        W41495   3.988   4.416   2.544 -0.0080 -0.2641  0.3011
23292W        W41496  11.930  16.438  13.352  0.1688  0.1245  0.0461
23293W        W41497  16.445  11.004   4.479 -0.0613  0.0016 -0.3392
23294W        W41498   5.184   3.451  12.553 -0.3824  0.2125 -0.1202
23295W        W41499   0.778  11.100   5.615  0.2559  0.3592 -0.0407
23296W        W41500  14.816   8.095   3.319  0.0572  0.3825  0.2812
23297W        W41501  13.111   1.324  13.976 -0.2684 -0.0643  0.1033
23298W        W41502  15.162   2.629  14.432 -0.3013  0.0387  0.1726
23299W        W41503   2.380  12.219  14.999  0.0928  0.1473 -0.0030
23300W        W41504   7.469  14.146  16.200  0.1470 -0.0002 -0.0727
23301W        W41505  12.836   3.337  13.258  0.0002  0.1374  0.5430
23302W        W41506  14.730   3.620  15.284  0.1763  0.0529 -0.1509
23303W        W41507  10.460   1.790  16.750 -0.1132  0.0521 -0.0989
23304W        W41508   1.481  11.415  12.985  0.0309  0.1316 -0.0012
23305W        W41509  17.071   6.352  15.764  0.0260  0.1237  0.0698
23306W        W41510   5.992  16.022  13.690  0.0462 -0.2994 -0.1799
23307W        W41511   2.785   2.605   2.613  0.2375 -0.2434 -0.1676
23308W        W41512   9.622   5.261   2.044  0.2553 -0.1891  0.0463
23309W        W41513  13.090   5.044  14.245 -0.1448  0.0841  0.0213
23310W        W41514  10.823   9.013  17.034 -0.4940 -0.1004 -0.0166
23311W        W41515  11.050   1.563   5.336  0.0740 -0.1984 -0.2214
23312W        W41516   1.477  14.329   2.842 -0.0797  0.0878  0.1285
23313W        W41517  16.837   3.622  13.143  0.4250 -0.0535  0.1538
23314W        W41518   0.903  11.418   4.807  0.0579 -0.0390 -0.0957
23315W        W41519   0.118   2.630  15.645  0.3565  0.1170  0.0071
23316W        W41520   8.817   3.102  15.896 -0.0541 -0.2085 -0.0966
23317W        W41521   2.676   1.974   2.840  0.0904 -0.1657 -0.0456
23318W        W41522  15.664  12.172   0.692 -0.1997  0.2626 -0.1268
23319W        W41523   6.571   9.035   0.833  0.0164  0.3028 -0.0644
23320W        W41524   3.301   7.279  16.193 -0.0917  0.2643 -0.0614
23321W        W41525   5.953   7.638  13.798 -0.0401 -0.1099 -0.0916
23322W        W41526   7.316   4.433  14.199  0.0507  0.0415  0.1807
23323W        W41527  13.122   5.239   2.638  0.0185 -0.0991 -0.0827
23324W        W41528  14.130   8.827  16.506 -0.0056  0.2374 -0.0560
23325W        W41529  14.374  12.806   2.341 -0.1357  0.2310  0.1199
23326W        W41530   5.256  10.148  12.402 -0.0424 -0.1547  0.0009
23327W        W41531   3.406  10.944   0.611  0.1790  0.0288  0.0983
23328W        W41532   0.423   8.281   5.218  0.0973 -0.0625 -0.2993
23329W        W41533   5.564   8.093  15.265  0.5840  0.2862  0.1543
23330W        W41534  16.229  13.283   0.644  0.2731 -0.2112 -0.1975
23331W        W41535   6.669   2.193   3.055  0.4519  0.0234 -0.0270
23332W        W41536   9.064   4.844   0.514  0.1050 -0.2636 -0.2404
23333W        W41537  16.716   7.743  15.442  0.2283  0.2559 -0.0347
23334W        W41538  17.323   9.181   1.703  0.1488 -0.4029 -0.1059
23335W        W41539  10.580  13.610   0.162  0.2661  0.3436  0.1793
23336W        W41540   6.163  10.214  14.935  0.2174 -0.2022 -0.0800
23337W        W41541   5.221  10.716  13.247  0.1228  0.0741 -0.1654
23338W        W41542  11.352   9.437  16.293 -0.3219  0.1485  0.2550
23339W        W41543   2.385   1.118   5.027 -0.4194  0.0827  0.1881
23340W        W41544  10.643   6.945  14.640 -0.0638 -0.1308 -0.1797
23341W        W41545   8.933   1.496   2.799  0.2711 -0.2156  0.2370
23342W        W41546   4.076   2.382  12.788 -0.0944 -0.1518  0.0652
23343W        W41547   6.859   9.904  13.620  0.1960  0.2363  0.1052
23344W        W41548  13.492   6.543   3.584  0.0923  0.1143  0.2533
23345W        W41549  14.760   1.153  12.603 -0.0052 -0.1613  0.0342
23346W        W41550  11.172  12.010  13.333  0.0001 -0.0473  0.0443
23347W        W41551   1.402  14.454   1.559  0.1433  0.1755 -0.1260
23348W        W41552  13.138  15.004  16.981 -0.2163  0.1246  0.2910
23349W        W41553   1.530  14.849  11.763 -0.2281  0.0902 -0.2365
23350W        W41554   0.957  14.411   4.106 -0.0931 -0.3321  0.0939
23351W        W41555  15.642   0.921  14.434  0.1113 -0.1676  0.0543
23352W        W41556   0.446  11.650   0.278 -0.3569  0.0995 -0.1803
23353W        W41557  11.309   5.990   5.370 -0.1875 -0.3389 -0.0835
23354W        W41558   8.310  12.272  16.922 -0.1856 -0.0834 -0.0164
23355W        W41559  17.271   7.977  16.558 -0.0039  0.2184  0.1966
23356W        W41560  15.100  16.327   3.906 -0.0184 -0.0128  0.4190
23357W        W41561  14.215   7.555   5.002  0.1323  0.0985 -0.2283
23358W        W41562   4.666   3.159  13.262  0.2618  0.0231 -0.2999
23359W        W41563   7.805   1.058   0.549  0.0521  0.1272  0.1970
23360W        W41564  12.067  12.884   2.797 -0.1859  0.2043  0.1339
23361W        W41565   8.671   5.579  14.135  0.2017 -0.1042 -0.1388
23362W        W41566   5.276   5.318  14.107  0.0135  0.0222 -0.0737
23363W        W41567  11.359  14.059   0.325  0.3044 -0.0674 -0.1619
23364W        W41568   9.267  15.425  15.678 -0.0870  0.0287 -0.3009
23365W        W41569   8.709   8.711   1.218 -0.1464  0.0295 -0.0358
23366W        W41570   6.962   0.245   2.173  0.0765  0.1673  0.0696
23367W        W41571   5.432   5.019   3.465  0.0708  0.2902 -0.0396
23368W        W41572   0.135  11.007   5.548 -0.0686 -0.0154  0.0687
23369W        W41573  11.896  14.920   3.954 -0.2155 -0.0138  0.0854
23370W        W41574   5.862  13.141  17.026 -0.1684 -0.0241  0.2663
23371W        W41575   4.044  11.639   2.689  0.2716 -0.1164  0.0350
23372W        W41576   6.371  10.408   2.539 -0.1862 -0.3596  0.0633
23373W        W41577   7.779  12.132   5.106  0.1254 -0.0976  0.1511
23374W        W41578  10.436   5.242  14.830 -0.0097 -0.3350 -0.2815
23375W        W41579   5.504  13.319   1.357  0.0587  0.2531  0.1116
23376W        W41580   0.605   0.288  17.476 -0.0477  0.3548 -0.0777
23377W        W41581  10.648   3.201   0.178  0.1346 -0.0263  0.1470
23378W        W41582   9.364  14.619  15.094 -0.0240 -0.1969  0.3862
23379W        W41583  14.930   5.777  12.840  0.2936 -0.1654  0.0264
23380W        W41584   6.590  10.041   2.265  0.2169  0.1729  0.1831
23381W        W41585   0.446  17.223  13.585 -0.0038 -0.1814 -0.1813
23382W        W41586   3.402  16.635  14.662  0.1446 -0.0028 -0.1323
23383W        W41587   8.783  11.957   0.114  0.2083  0.0863 -0.0598
23384W        W41588   5.107  12.518   3.206  0.1825  0.1865 -0.2141
23385W        W41589   2.459   7.435   1.512  0.2395 -0.3355  0.2137
23386W        W41590   9.343   3.062  12.250  0.0142 -0.2480 -0.0937
23387W        W41591  12.042  15.564  14.564  0.0757  0.0069 -0.1771
23388W        W41592  12.409   3.562   5.607 -0.1097  0.1081 -0.1678
23389W        W41593   7.279  16.569  15.584 -0.3014  0.0183  0.1213
23390W        W41594   7.525  17.146   2.963  0.1460 -0.2618  0.1026
23391W        W41595  14.854   0.317   3.453 -0.2100 -0.1909 -0.0431
23392W        W41596   5.944  14.132   1.389  0.0107 -0.1153 -0.1183
23393W        W41597   8.606   7.728  12.878  0.1509 -0.1936  0.0133
23394W        W41598  11.847   4.834  16.486  0.2034 -0.1912 -0.2225
23395W        W41599  10.225  13.762  15.741  0.0049  0.0618  0.0103
23396W        W41600   8.789   4.455  17.419  0.1919 -0.2438 -0.1034
23397W        W41601  16.263  10.318   5.326 -0.1502  0.0078 -0.2852
23398W        W41602  14.556  16.547  12.681  0.1320 -0.0635  0.2906
23399W        W41603  15.790   8.144   2.951  0.3119  0.2423  0.1750
23400W        W41604  12.799  15.560   3.313  0.2273  0.1566  0.0366
23401W        W41605  15.133   7.132  17.084 -0.0594 -0.3203  0.0128
23402W        W41606   4.610  13.170  17.217 -0.0371 -0.0568 -0.0012
23403W        W41607  11.583  11.748  17.418  0.2387  0.1640  0.0247
23404W        W41608   0.065   9.378  15.204  0.3393 -0.1429 -0.0099
23405W        W41609   8.472  12.033   1.101 -0.0970  0.0869  0.0989
23406W        W41610  14.384  15.257   0.084 -0.1388 -0.2998  0.0041
23407W        W41611   7.854  15.306   2.298 -0.0680 -0.0773  0.0603
23408W        W41612   1.932   6.361   4.470 -0.0967 -0.0630  0.1838
23409W        W41613   1.047   4.956   5.666 -0.0877  0.0523  0.0141
23410W        W41614  14.513   9.963  17.057  0.0332 -0.2451 -0.2051
23411W        W41615  15.358   9.814   6.188  0.0940  0.2730  0.0167
23412W        W41616  15.498  16.194  14.836  0.2574 -0.1049  0.1052
23413W        W41617  17.222   5.069  16.970  0.2779 -0.4589 -0.0539
23414W        W41618   7.173  10.341   3.004 -0.0984  0.4054  0.1532
23415W        W41619  11.027   6.394   1.257  0.0818  0.0012 -0.1356
23416W        W41620  10.226  15.241   1.941 -0.2709 -0.0761 -0.1325
23417W        W41621  10.954  10.846  15.032  0.0477  0.0948 -0.0512
23418W        W41622   3.596   0.353   2.778  0.0353 -0.1723 -0.0079
23419W        W41623  11.618  11.577   2.205 -0.2087 -0.0830  0.1222
23420W        W41624   0.255   3.383  12.026  0.1915 -0.2678  0.0140
23421W        W41625  14.635  14.833   0.804 -0.1239  0.1126 -0.2687
23422W        W41626   6.942   3.109  16.649 -0.0417  0.0163 -0.2985
23423W        W41627   7.079   6.668  12.710  0.0712 -0.0403  0.1187
23424W        W41628  11.382   2.767   0.409  0.0233  0.1109 -0.0323
23425W        W41629   1.614   9.243   4.144 -0.1559 -0.0456 -0.0287
23426W        W41630   6.094  11.861   1.903 -0.0836  0.2003  0.3375
23427W        W41631   2.323  14.099  16.021 -0.1111 -0.0200 -0.3446
23428W        W41632   2.997   2.111   5.455  0.1447  0.0147  0.1447
23429W        W41633  13.620   5.775   4.630 -0.1023 -0.3239  0.3891
23430W        W41634   8.453   7.585   4.749 -0.0938  0.1220 -0.1279
23431W        W41635   4.100   2.020   2.205  0.1362  0.2037  0.1061
23432W        W41636  16.931  12.442   1.583 -0.2318  0.1072  0.0805
23433W        W41637   2.188   3.205  14.854 -0.2798  0.0794  0.0831
23434W        W41638   2.967  10.920  16.360 -0.2125  0.1608  0.1636
23435W        W41639   6.506   7.164   1.263  0.2833 -0.1977 -0.0732
23436W        W41640   6.434  14.539   1.342  0.3063  0.3766 -0.0855
23437W        W41641  13.566  16.212   3.396 -0.2317 -0.0690 -0.3669
23438W        W41642   5.968   3.550   5.220 -0.0702 -0.0678  0.2669
23439W        W41643   6.809   3.724   1.122 -0.0557 -0.1883  0.1018
23440W        W41644   5.030   7.905  15.115 -0.0349 -0.0790  0.0805
23441W        W41645  17.097   8.331   1.139  0.2787  0.1494 -0.2978
23442W        W41646  12.803  16.599  14.994  0.0552 -0.0424 -0.0844
23443W        W41647   8.516  13.138  13.639 -0.0993  0.1383 -0.1947
23444W        W41648   6.668  15.990   1.525 -0.0713 -0.0563 -0.2395
23445W        W41649  11.486   6.630   3.475  0.1173 -0.1755  0.0243
23446W        W41650  12.901  10.782  17.229  0.0744  0.1447  0.0521
23447W        W41651  13.417   6.858  16.294  0.2095  0.1288 -0.0643
23448W        W41652   0.086  15.177   5.417  0.3882  0.1490 -0.2764
23449W        W41653  17.253  12.286  16.661  0.1983 -0.1480  0.4084
23450W        W41654   9.411   9.090  16.614 -0.1593  0.2503  0.3287
23451W        W41655  13.028  12.318  14.217 -0.2819 -0.0023  0.3857
23452W        W41656  15.150   8.398  16.884 -0.0994  0.1123  0.2945
23453W        W41657  14.008  11.120  13.640  0.4433  0.0498  0.0153
23454W        W41658   6.807   7.255  15.663 -0.0315  0.1249 -0.1554
23455W        W41659  14.376  10.742   4.721 -0.0066  0.1848 -0.0303
23456W        W41660  12.817  11.958   3.385  0.3614 -0.0323  0.0255
23457W        W41661   7.475   2.328  13.634  0.0640 -0.0266  0.0689
23458W        W41662  12.704  15.982  12.437  0.2221  0.0916  0.0568
23459W        W41663  15.978  13.872  14.292 -0.0531 -0.1802  0.1044
23460W        W41664   3.960  13.051   0.476  0.1399 -0.0329  0.3046
23461W        W41665   3.859  11.406  15.381 -0.0449  0.0378 -0.0974
23462W        W41666  14.986  12.690   1.581  0.0834 -0.2959 -0.0213
23463W        W41667  17.257   5.342   4.524 -0.2490 -0.2857 -0.2363
23464W        W41668  10.327   9.832  14.567 -0.0958  0.0769 -0.2264
23465W        W41669  12.816   8.642   0.184  0.3175  0.1729  0.0040
23466W        W41670  16.603  16.903   2.396  0.0865  0.2383  0.0944
23467W        W41671  11.216   6.656   4.361 -0.2334 -0.0485 -0.0283
23468W        W41672  12.858   8.066   1.652 -0.0623 -0.0138 -0.2905
23469W        W41673   9.092  16.036  12.231 -0.3182  0.0151  0.0245
23470W        W41674  14.574   3.851   4.741 -0.0781  0.0949  0.2140
23471W        W41675   9.370   2.488   0.041  0.0594 -0.3051 -0.0353
23472W        W41676  13.707   3.604   0.560  0.1963  0.1975 -0.1362
23473W        W41677  14.634   7.388  16.923  0.0136 -0.0140 -0.3986
23474W        W41678   4.184   0.289   5.202 -0.0065  0.0366 -0.0691
23475W        W41679   5.221  14.146  16.411 -0.1479 -0.1508  0.2744
23476W        W41680   5.419  16.579  17.333 -0.1790 -0.1306  0.0620
23477W        W41681  15.753   4.935  13.716  0.3289  0.0361 -0.0290
23478W        W41682   4.609  11.777  14.021 -0.1609  0.0727  0.1167
23479W        W41683   5.582  16.025   4.487 -0.2219  0.3223 -0.0653
23480W        W41684   9.856  14.655  15.312  0.1935  0.2512  0.0098
23481W        W41685  13.117   3.709   1.932  0.0256  0.0708 -0.1250
23482W        W41686  14.077  15.958  16.967  0.2497  0.0169  0.4064
23483W        W41687   1.506  15.864  13.551  0.2356 -0.1741 -0.0976
23484W        W41688   7.284   0.767  13.655 -0.4441 -0.1440 -0.0048
23485W        W41689   9.965   3.092   5.278 -0.0682 -0.1585 -0.1759
23486W        W41690  14.338   0.697  15.964 -0.0235  0.0182 -0.1457
23487W        W41691  16.879  14.774  13.627  0.1098  0.2542 -0.1513
23488W        W41692  11.755   7.410  15.757  0.1139  0.1541 -0.2391
23489W        W41693   7.412   1.996  12.351 -0.2021  0.1714  0.1298
23490W        W41694   6.632   7.260   0.783  0.1120 -0.1151  0.1490
23491W        W41695  13.498   8.942   1.953 -0.0378 -0.0077 -0.0422
23492W        W41696   0.316   7.104  16.670  0.0119  0.0961 -0.3789
23493W        W41697   7.883  15.187  14.760  0.0343  0.2356  0.0623
23494W        W41698  16.003   0.610   4.127  0.0996  0.2923  0.0211
23495W        W41699  11.372   7.784   0.502 -0.0517 -0.0500  0.3677
23496W        W41700   0.664  10.832  16.313  0.0602  0.1837  0.2925
23497W        W41701   0.295  13.942   1.095  0.1007 -0.1083 -0.2702
23498W        W41702   3.999  14.829  16.932  0.3083 -0.1938 -0.0205
23499W        W41703   2.985  15.559  15.293  0.3867  0.1132  0.0003
23500W        W41704   3.139  10.263   2.145  0.0677 -0.2250  0.1405
23501W        W41705  11.774  16.050   2.024 -0.3728 -0.1426 -0.0462
23502W        W41706  10.264   0.037  13.102  0.0342  0.2793  0.0100
23503W        W41707   9.463   8.177  16.923 -0.0424  0.1327 -0.0012
23504W        W41708   5.094  11.282  17.090  0.2826  0.2978 -0.2316
23505W        W41709  11.430  10.063  15.610 -0.0348 -0.2922 -0.0201
23506W        W41710   5.038   2.352   3.131  0.0708  0.0493 -0.0320
23507W        W41711   9.901   6.986  15.920 -0.0172 -0.1984 -0.3435
23508W        W41712   2.622   4.540   3.037  0.0616 -0.0081 -0.2567
23509W        W41713   6.303   7.677  17.380 -0.2678 -0.1083 -0.0478
23510W        W41714   2.499  15.051  17.288 -0.1916 -0.2276  0.0517
23511W        W41715  13.324   7.472   3.761 -0.0368 -0.0735 -0.0694
23512W        W41716  13.240   3.798  12.182  0.1389  0.2719  0.1602
23513W        W41717   0.140   4.083  14.360  0.1399 -0.1909 -0.1816
23514W        W41718   8.400   8.974   4.875 -0.1838  0.3452 -0.2993
23515W        W41719  12.166   4.694   2.064  0.0931  0.1887  0.0319
23516W        W41720   0.890  14.347   4.672  0.0193 -0.1382 -0.0188
23517W        W41721   6.136   3.176  16.205 -0.0775 -0.3075 -0.0340
23518W        W41722   4.897  12.908   5.049  0.0182 -0.2659 -0.0117
23519W        W41723  10.604  10.551   4.711  0.1288 -0.0038 -0.2233
23520W        W41724  11.796   7.419   4.773 -0.2558 -0.0548  0.0407
23521W        W41725   1.086   7.968   4.139 -0.1126  0.1099  0.0288
23522W        W41726  11.546  14.785  12.621  0.1133  0.4150  0.0156
23523W        W41727   3.262  16.296   1.234 -0.1438 -0.1389  0.1331
23524W        W41728   5.582   7.371   3.421  0.1014 -0.1351  0.0477
23525W        W41729   7.211  13.572  16.521 -0.3357  0.4138 -0.1563
23526W        W41730   9.613   4.139  12.678  0.0243 -0.0516 -0.3288
23527W        W41731   4.515   5.635   1.139 -0.0551  0.1290  0.2893
23528W        W41732   2.564   1.173   3.216 -0.0361  0.1973 -0.3867
23529W        W41733   8.737   2.006   1.911  0.2903 -0.2252  0.1078
23530W        W41734  13.893   2.233   5.170 -0.0033 -0.3679  0.1845
23531W        W41735   9.865   0.020   2.096  0.1518  0.1369  0.2410
23532W        W41736   0.703  15.237   0.629  0.1292 -0.1592  0.3622
23533W        W41737   1.261   0.646  15.496  0.0757 -0.1426 -0.2216
23534W        W41738  12.168   6.478  14.974 -0.1149  0.3376 -0.0849
23535W        W41739   1.481   0.355   4.713  0.0074  0.1133  0.1099
23536W        W41740  16.533  10.404  14.837  0.0402  0.1197 -0.3000
23537W        W41741   0.632   0.094  13.170 -0.0490 -0.1861 -0.0704
23538W        W41742  12.641   5.300  16.298 -0.1081 -0.1568 -0.0522
23539W        W41743   5.741   5.233   0.467  0.0777 -0.0298 -0.2264
23540W        W41744   6.888  10.795   3.745  0.0598 -0.0179 -0.4241
23541W        W41745   0.967   5.852  12.756  0.1095  0.2313 -0.0156
23542W        W41746   1.224   8.435  16.011  0.1700  0.3782  0.2440
23543W        W41747  13.618  11.121   1.582 -0.2873 -0.2289  0.3382
23544W        W41748  12.011  16.039  14.505  0.0244  0.0112  0.1615
23545W        W41749   1.612  15.110  15.068  0.3411 -0.0822 -0.2066
23546W        W41750  15.289   7.027   4.064 -0.2249 -0.2814  0.1088
23547W        W41751  11.035  13.101   1.738  0.1934 -0.2218 -0.0513
23548W        W41752  15.913  16.532  12.578  0.0589  0.1213 -0.1383
23549W        W41753  16.171  10.808   1.390 -0.2482 -0.0255 -0.1625
23550W        W41754   8.861  15.443   3.095 -0.0867 -0.0129 -0.1817
23551W        W41755   3.997   3.688   3.045  0.4320 -0.0653  0.1763
23552W        W41756  14.404   5.823  14.653  0.0173  0.0543  0.0743
23553W        W41757   1.353  16.399  14.576 -0.3499 -0.0700 -0.1102
23554W        W41758   4.797   8.518  13.519  0.0554  0.0527  0.0100
23555W        W41759   6.258   3.564  17.277  0.3121 -0.0092 -0.0238
23556W        W41760   4.070  12.336   5.336 -0.0447 -0.2186 -0.2261
23557W        W41761   5.001   5.222  16.815 -0.0008 -0.0071 -0.2925
23558W        W41762   1.808   0.516  14.524 -0.0678  0.1919 -0.1698
23559W        W41763   1.539   0.748  14.043  0.1334 -0.5688  0.1247
23560W        W41764   1.728  16.009   1.722 -0.0720 -0.0388 -0.1994
23561W        W41765   7.275   2.209   4.522  0.2809  0.0763 -0.0275
23562W        W41766  16.272   2.931   3.528 -0.0152 -0.1747  0.2639
23563W        W41767   8.418   9.087  14.763  0.0063  0.3073 -0.2964
23564W        W41768   1.912   7.049  17.252 -0.0448 -0.1003 -0.1918
23565W        W41769  12.890  14.087   4.054 -0.2767  0.0461 -0.1580
23566W        W41770   4.948  14.801   0.729  0.3198 -0.3275  0.1866
23567W        W41771  16.948   0.904  15.856  0.1873  0.2944 -0.0060
23568W        W41772   0.014   7.622   2.767  0.0566 -0.0513  0.1759
23569W        W41773   9.286   0.791   5.289 -0.1587 -0.1314  0.2760
23570W        W41774   5.635  16.477  14.350 -0.0377 -0.2109  0.2003
23571W        W41775   0.369   2.509   3.755 -0.1998 -0.3182 -0.1820
23572W        W41776   2.087   5.018   2.505 -0.1590 -0.1042 -0.3657
23573W        W41777   4.930  14.161   5.493 -0.1116 -0.0818 -0.1345
23574W        W41778  10.931  17.080  16.573 -0.2000 -0.0474  0.3917
23575W        W41779   0.187  10.779   1.488  0.0578 -0.1828  0.0010
23576W        W41780  14.205  14.130  13.858  0.0270  0.2364  0.0844
23577W        W41781  13.102   2.090   3.804  0.1360  0.1068 -0.0664
23578W        W41782   1.592   2.572  13.763 -0.0992  0.2416 -0.0163
23579W        W41783   4.963  10.944  15.569 -0.0743 -0.1317  0.0422
23580W        W41784   5.074   5.064  12.982  0.0053 -0.0826 -0.0396
23581W        W41785   0.226   9.977   2.264  0.1977 -0.1701 -0.4755
23582W        W41786  12.929   3.760  14.006 -0.0799 -0.0635  0.3370
23583W        W41787   0.859  11.377   0.179 -0.0797  0.0724 -0.1358
23584W        W41788  14.507  13.174  13.461 -0.0395  0.1315 -0.2241
23585W        W41789  17.013   2.515  15.975 -0.0376 -0.0366 -0.1244
23586W        W41790   2.910   4.513  17.092 -0.0149 -0.4133  0.3350
23587W        W41791  16.689   3.504   0.115  0.1297  0.2813  0.1413
23588W        W41792   5.480   4.020   0.117  0.2842 -0.0903  0.2702
23589W        W41793   2.398  15.710  13.007  0.1728  0.0506  0.2991
23590W        W41794   1.309  14.419  16.728  0.2232 -0.3090 -0.2782
23591W        W41795  14.041  14.578   5.803  0.0201  0.2361 -0.1427
23592W        W41796   3.959  15.677   1.594  0.1971  0.1996  0.1594
23593W        W41797   2.275  13.525   0.864  0.0500  0.0152  0.2254
23594W        W41798   2.600   5.103  15.112 -0.2144  0.1318 -0.0066
23595W        W41799  16.320  13.131  15.472  0.1878 -0.1314  0.1260
23596W        W41800   9.386  13.633  13.429 -0.1349 -0.0209 -0.0302
23597W        W41801   6.917   3.115   4.911 -0.1873  0.2561 -0.2445
23598W        W41802   2.269   2.421   3.018  0.0359  0.2519 -0.1986
23599W        W41803  11.726  11.423  14.750  0.0730 -0.1413 -0.1205
23600W        W41804  10.827  13.657  12.476 -0.1160  0.2893  0.0327
23601W        W41805   0.632  12.536   1.446 -0.1392  0.0102 -0.0054
23602W        W41806   0.716   1.564  16.898 -0.2726  0.2858  0.1148
23603W        W41807   2.175  12.820  12.162  0.0393 -0.1495  0.0244
23604W        W41808   5.355   7.395   2.492  0.0120 -0.2133 -0.1988
23605W        W41809   2.055   6.830  12.660  0.1949  0.1588  0.0977
23606W        W41810   6.577   2.216  15.745 -0.2695  0.0457 -0.2940
23607W        W41811  11.470  15.561   4.180  0.1984 -0.0530  0.2399
23608W        W41812  14.968   6.402   0.426 -0.2949 -0.1239 -0.2935
23609W        W41813   7.038  13.595  12.701  0.1042 -0.1323 -0.1576
23610W        W41814   7.887   0.743  16.821  0.1685  0.0454  0.2450
23611W        W41815   6.916  11.937   0.766 -0.1818 -0.0343 -0.3898
23612W        W41816  14.825   0.947  14.852 -0.0564 -0.0598  0.2415
23613W        W41817   1.839  16.396   1.213 -0.1386 -0.0114  0.0288
23614W        W41818  17.248   7.564  12.665 -0.0515 -0.1514  0.0616
23615W        W41819   4.618   9.051  16.784 -0.1993 -0.0798  0.1318
23616W        W41820  15.332   5.808   5.271  0.1957  0.2317 -0.0982
23617W        W41821   3.641  11.078   1.241  0.0741 -0.0368  0.3127
23618W        W41822  11.937   1.515   0.784 -0.3025 -0.1204 -0.1633
23619W        W41823  12.327   7.677   2.770  0.4367 -0.3628  0.0302
23620W        W41824   7.816  12.594  13.688  0.2041 -0.2800 -0.2332
23621W        W41825  11.012   0.352   4.998 -0.0289  0.1091  0.0245
23622W        W41826  10.964   7.144   2.403 -0.0970  0.0739 -0.1909
23623W        W41827  11.328  14.985   0.018 -0.3518 -0.0966  0.1701
23624W        W41828   6.472  10.272  16.408 -0.0644  0.0415 -0.0033
23625W        W41829   3.018   1.201  13.331 -0.1420 -0.1966 -0.1551
23626W        W41830  14.291   8.745  14.408  0.1985  0.3341 -0.1416
23627W        W41831   5.743  13.179   4.916 -0.2786  0.0554  0.0904
23628W        W41832   9.690   6.354  12.654 -0.0216  0.2242 -0.2903
23629W        W41833   2.227  14.681  14.805 -0.0276 -0.1088  0.0083
23630W        W41834   6.131   1.362   1.471  0.1248  0.1074 -0.2318
23631W        W41835   7.903   1.659   5.057  0.1952 -0.3707 -0.0815
23632W        W41836   1.116   1.247   1.309  0.1293 -0.2658  0.0691
23633W        W41837   3.088   0.027   4.568 -0.3429 -0.1336 -0.0982
23634W        W41838   9.685   6.903   5.516  0.1683 -0.1111 -0.0160
23635W        W41839  11.230   4.668   5.498 -0.1988 -0.2822  0.0432
23636W        W41840   3.581   5.296   1.113  0.0336 -0.0010 -0.1178
23637W        W41841   4.963  14.759   5.144 -0.3066  0.2473  0.0227
23638W        W41842   0.449   4.340   0.596 -0.0242  0.3239 -0.0793
23639W        W41843   9.322   5.384  13.113  0.1221  0.1106  0.0248
23640W        W41844   7.299  16.126   4.709  0.1299 -0.2447 -0.0941
23641W        W41845  14.114  14.567  17.334 -0.1651  0.1870  0.1376
23642W        W41846   4.014  16.540  15.839 -0.0031  0.2552  0.1518
23643W        W41847   1.825  16.671   0.322 -0.1710 -0.3527  0.2125
23644W        W41848   7.911  11.221   1.550  0.1715 -0.0702 -0.1539
23645W        W41849   4.159  14.778  14.005 -0.4110  0.1257  0.0097
23646W        W41850   5.262  12.450   4.698 -0.3016 -0.0176  0.0068
23647W        W41851  12.439  10.566  14.941 -0.1571  0.3336  0.0745
23648W        W41852  13.742  12.451   5.014  0.0255  0.0570 -0.0612
23649W        W41853  12.199   6.968   1.791 -0.2296 -0.2231 -0.0006
23650W        W41854   4.766  15.986  16.300  0.1134  0.0370  0.3210
23651W        W41855   0.990   0.755   2.279  0.0242  0.0072 -0.1294
23652W        W41856   2.972   6.367   1.619 -0.2598 -0.0199 -0.2018
23653W        W41857  11.521   3.057   3.656 -0.0431  0.0848  0.1713
23654W        W41858  10.557   3.417   2.409 -0.1904  0.1975 -0.0078
23655W        W41859   2.668  13.950  13.047  0.1114  0.1923 -0.2676
23656W        W41860   2.301  12.922   1.390 -0.0240  0.1175 -0.0124
23657W        W41861  15.950   3.466  13.462 -0.1912  0.0719  0.2879
23658W        W41862  10.305  14.590  13.173 -0.3021  0.1699 -0.0271
23659W        W41863  10.862   3.139   2.008  0.2262 -0.1783 -0.0687
23660W        W41864  13.764  13.632  13.626  0.1481  0.1316  0.2023
23661W        W41865   3.318   5.305  13.668 -0.0136 -0.0102 -0.1375
23662W        W41866   6.423   5.173  12.098  0.0853 -0.3939 -0.0214
23663W        W41867   4.761  11.746  14.893  0.0322  0.1043  0.0789
23664W        W41868   6.639   1.106   5.047 -0.0476  0.2306 -0.2454
23665W        W41869  10.036   0.412  17.377  0.0976 -0.3547  0.2258
23666W        W41870   1.086   6.477   1.838 -0.0935  0.0925  0.2314
23667W        W41871   4.772   9.556   0.539  0.0498  0.1288  0.0945
23668W        W41872   0.936   9.565   3.341 -0.1435 -0.1476  0.1842
23669W        W41873  10.680   5.919   0.034 -0.1284  0.0519 -0.0936
23670W        W41874   7.673   2.849   0.989  0.0636 -0.3278  0.0480
23671W        W41875   7.240  11.879  15.341 -0.3482 -0.0002 -0.0369
23672W        W41876   2.525  16.645   3.001 -0.1228 -0.0744  0.2017
23673W        W41877  12.441  12.934  15.849 -0.2838 -0.0367  0.1342
23674W        W41878  16.311  17.279   1.307 -0.1201 -0.1244 -0.3197
23675W        W41879  11.863  13.403   2.812  0.2607 -0.2758 -0.0484
23676W        W41880   0.301   9.186  13.906 -0.0757 -0.0081  0.1605
23677W        W41881  17.207  15.274   2.334 -0.0792 -0.0141 -0.1803
23678W        W41882  10.828   3.642  14.695  0.2371 -0.1102 -0.0810
23679W        W41883   1.935   4.227  16.581 -0.4294  0.0422  0.1291
23680W        W41884  15.867  12.667   2.484  0.2301 -0.2110 -0.2571
23681W        W41885   9.514  15.645   5.422 -0.0884 -0.3880  0.0756
23682W        W41886   9.204   3.776   1.150 -0.2230  0.5015  0.1288
23683W        W41887   2.711   2.699   3.242  0.1615  0.1664 -0.4234
23684W        W41888   0.932   8.783  16.208  0.0184  0.0317  0.1188
23685W        W41889   3.509   4.270  14.442  0.0632 -0.0839 -0.0385
23686W        W41890   7.474  10.980   3.661  0.0565  0.0592  0.0798
23687W        W41891  10.995  10.376  16.038 -0.2144  0.1959  0.3588
23688W        W41892  11.595   1.175   2.270  0.1536  0.1287  0.4028
23689W        W41893  11.433   0.228   5.204  0.0225 -0.2652  0.2756
23690W        W41894  11.262   3.231   6.481  0.0374  0.1666  0.0368
23691W        W41895   3.598   8.311   3.788  0.1221  0.2524  0.1824
23692W        W41896   7.031   8.749  12.703  0.0676 -0.1208  0.1551
23693W        W41897  14.015   5.371   2.369 -0.0086 -0.1539 -0.0834
23694W        W41898   4.275   5.650   5.141  0.2847  0.1379 -0.0259
23695W        W41899  12.855  13.651   3.723 -0.1563  0.0886  0.0279
23696W        W41900  15.515  15.629  14.892  0.0446 -0.0102 -0.0291
23697W        W41901   0.698  17.210  12.328  0.0710 -0.3087  0.2406
23698W        W41902   1.816  10.193   0.947 -0.2303  0.2846  0.0274
23699W        W41903  12.571   0.664   3.199 -0.2744 -0.2939 -0.1205
23700W        W41904  10.502   0.536   0.240 -0.2653  0.2198  0.2767
23701W        W41905   8.155  14.046   3.138  0.2601 -0.0756 -0.2980
23702W        W41906   0.558   0.329  12.056 -0.2066  0.1767 -0.0807
23703W        W41907   2.700  16.048   2.276  0.1340  0.2957 -0.1941
23704W        W41908  12.958   5.521   1.183  0.0448 -0.0621 -0.3861
23705W        W41909   6.282   8.042  16.360 -0.1029  0.2497  0.0446
23706W        W41910   9.278  10.758  13.533 -0.2490 -0.2977  0.0625
23707W        W41911  11.868   1.436  14.481 -0.2149 -0.1075  0.0763
23708W        W41912   1.457  15.864   2.873 -0.0347  0.1558  0.1777
23709W        W41913   7.730  14.751   3.714 -0.0526 -0.3271  0.3892
23710W        W41914   8.315   8.566  12.513  0.0859  0.1967  0.2993
23711W        W41915   1.065  13.267   3.227 -0.0761  0.0388  0.1302
23712W        W41916  13.936   2.593  12.005 -0.0672  0.0044  0.0993
23713W        W41917   1.134  13.220  14.496 -0.3373 -0.1380  0.1238
23714W        W41918   2.329   6.426  12.872 -0.0280 -0.2226  0.0255
23715W        W41919  15.737   6.675  13.281 -0.0370 -0.0364  0.2862
23716W        W41920   4.685   4.913  15.895  0.3016  0.2564 -0.2366
23717W        W41921  14.827  11.766  16.607  0.3209 -0.0298 -0.1098
23718W        W41922  16.887  11.257   4.377  0.1890  0.1399 -0.5637
23719W        W41923   0.925   0.336  15.686 -0.2772  0.1530  0.0845
23720W        W41924  11.557   7.426   1.839 -0.1253  0.0236 -0.0330
23721W        W41925   4.462  16.686  15.601  0.0909  0.0131 -0.0203
23722W        W41926  12.097  15.793   3.927 -0.3762 -0.2311 -0.3010
23723W        W41927   7.863  10.928   4.034  0.3392 -0.3179  0.1768
23724W        W41928  14.062  15.433  16.742 -0.0659 -0.0053 -0.2858
23725W        W41929  11.917   1.474   4.542  0.1259 -0.1399  0.3572
23726W        W41930   5.485  12.557   1.836  0.2335 -0.2480  0.2581
23727W        W41931  15.854  14.729   2.333 -0.0380 -0.2789 -0.2882
23728W        W41932   0.761   6.627   1.469 -0.0107  0.0053  0.0325
23729W        W41933   5.024   7.069   2.657 -0.2135 -0.1899  0.0859
23730W        W41934  13.647   0.549  12.644 -0.1169  0.2620 -0.1360
23731W        W41935   8.940   0.794  14.071  0.0041 -0.0059  0.0494
23732W        W41936   2.106  15.357  17.337  0.0848  0.0011  0.0433
23733W        W41937   2.650   0.641   2.224  0.3439  0.0062  0.0424
23734W        W41938  16.985  12.457  13.852 -0.0879 -0.3534 -0.0083
23735W        W41939   2.393  14.809   3.057 -0.1526  0.2472 -0.0475
23736W        W41940  10.808   7.358  12.634  0.1889  0.0996 -0.3414
23737W        W41941   5.985   7.730   4.664  0.0487  0.1272  0.0610
23738W        W41942   4.782   0.888   4.081 -0.0420  0.2680 -0.2251
23739W        W41943  12.914   9.662  16.341  0.0981  0.1147  0.0714
23740W        W41944   6.784   3.119   2.040 -0.0220 -0.1397 -0.1030
23741W        W41945   2.799   4.416   4.749 -0.0523 -0.1408 -0.0291
23742W        W41946   4.452  13.234   5.262  0.2590 -0.1155 -0.4207
23743W        W41947   2.546   0.551   2.834 -0.1081 -0.3459  0.0366
23744W        W41948   4.327  13.661   0.636  0.1342 -0.1025  0.0094
23745W        W41949   5.351  14.075  13.776 -0.0341  0.0258  0.0348
23746W        W41950  15.200   9.482  17.238  0.1846 -0.1780  0.2641
23747W        W41951   7.079  14.775   5.049 -0.2397  0.1781 -0.1065
23748W        W41952  12.392  12.707  13.754 -0.1309 -0.0756  0.1882
23749W        W41953  16.410   1.041   0.518  0.1179 -0.1756  0.0668
23750W        W41954   3.008   6.666   4.583 -0.0545 -0.1895 -0.2169
23751W        W41955  15.277   6.250  14.465  0.0135  0.0952 -0.1998
23752W        W41956   5.467  15.953   4.977  0.1000 -0.1830 -0.0780
23753W        W41957   7.574   1.487   3.382  0.2178  0.3176  0.2058
23754W        W41958   7.921   1.110   3.152  0.1872  0.0465  0.5580
23755W        W41959   5.938   6.573   5.070  0.0694  0.3354  0.0504
23756W        W41960   2.087   4.305   1.039 -0.1784  0.0516  0.2118
23757W        W41961  16.611   4.146  16.518 -0.0778 -0.2599 -0.0018
23758W        W41962  14.014  16.352  14.640 -0.3451  0.1693 -0.0239
23759W        W41963  13.412   4.905  16.122 -0.2680 -0.1787  0.1460
23760W        W41964   0.215   3.435  12.956 -0.1691 -0.1209  0.2212
23761W        W41965  13.910   3.630   4.578 -0.1573 -0.2153 -0.2006
23762W        W41966   3.920  12.544   0.317 -0.0451  0.4544 -0.3550
23763W        W41967   9.399   7.014   3.226  0.1794 -0.1432 -0.0490
23764W        W41968  10.671  14.015   3.895 -0.0382 -0.4483  0.1364
23765W        W41969  12.925  10.584  12.180  0.0872  0.0399  0.0403
23766W        W41970   3.385   1.853   5.678 -0.0448 -0.0772  0.1138
23767W        W41971  12.287  10.182   1.156  0.0069  0.1257  0.1283
23768W        W41972   6.238  17.199   3.307 -0.2854 -0.1981  0.2852
23769W        W41973  10.477   5.624   2.892 -0.1235 -0.1215 -0.0953
23770W        W41974  12.659  12.604   4.451 -0.0796 -0.1948  0.1866
23771W        W41975  12.139  10.324   6.461  0.0528  0.0974  0.1712
23772W        W41976   6.826  14.100  14.867 -0.3540 -0.1941  0.3116
23773W        W41977  10.816  12.992   4.343 -0.1302  0.1936  0.0934
23774W        W41978   1.087   7.103   3.161 -0.2650 -0.1404  0.3085
23775W        W41979   5.529  11.824  13.010 -0.0530  0.0766  0.0457
23776W        W41980   7.956   1.693  15.171  0.1904 -0.0768 -0.2195
23777W        W41981   2.555   5.672   1.293  0.0440  0.0398  0.4122
23778W        W41982   2.510  12.821  16.924 -0.0511 -0.1427 -0.1408
23779W        W41983   8.983  14.613   0.219 -0.2324 -0.1206  0.0469
23780W        W41984   9.891   5.998  15.208  0.1068 -0.1130  0.0356
23781W        W41985   8.767   3.035   0.968  0.2764 -0.0240  0.1891
23782W        W41986  10.424  10.562  13.676  0.0647 -0.1137 -0.0310
23783W        W41987  16.700  15.724   4.398 -0.2123  0.1046  0.2220
23784W        W41988  15.265   8.859   1.370 -0.0595  0.1444 -0.0419
23785W        W41989   9.698  13.295  16.272 -0.0133  0.0079 -0.1015
23786W        W41990  10.913  16.215  17.275  0.0655 -0.0852 -0.1161
23787W        W41991  15.523   7.729   4.672 -0.0535 -0.3021  0.0488
23788W        W41992  15.910   9.859   0.817 -0.0970 -0.3219  0.0534
23789W        W41993  16.882   0.515  15.553  0.0435  0.1023  0.0635
23790W        W41994  10.813   0.423   1.081  0.4741  0.0205  0.2263
23791W        W41995  14.405  17.288   6.737 -0.1234 -0.4126 -0.0222
23792W        W41996   9.998   6.351  12.257 -0.0925  0.0279  0.0839
23793W        W41997   5.973   3.591   1.644 -0.1180  0.0557  0.0045
23794W        W41998  16.972   4.872   1.718  0.2092  0.1234  0.1581
23795W        W41999   5.324   9.916   4.277  0.0866 -0.1434 -0.1876
23796W        W42000   9.188   8.678   3.149 -0.1744 -0.2123  0.1610
23797W        W42001   0.753  14.705  16.067 -0.1437  0.0066  0.0695
23798W        W42002  12.042   0.166  17.287  0.2692 -0.0344  0.1044
23799W        W42003   4.143   5.143  12.517 -0.0104 -0.0510  0.2017
23800W        W42004   7.165  15.204   1.477 -0.1184 -0.0216  0.1390
23801W        W42005   7.200   7.046   3.208 -0.1663  0.2942 -0.0596
23802W        W42006   9.427  16.406  14.842  0.0259  0.2809  0.0410
23803W        W42007  10.063  10.287  16.736  0.0810  0.1654 -0.1681
23804W        W42008   4.694   8.643   3.645 -0.1605  0.0183  0.0563
23805W        W42009   2.540   1.744   2.372  0.1388 -0.3236  0.4952
23806W        W42010  14.769  15.568  14.654  0.1494  0.1134  0.2620
23807W        W42011   2.376   9.675   3.903 -0.0962 -0.1002  0.5352
23808W        W42012  13.079  15.938  12.831  0.2991 -0.1744  0.1910
23809W        W42013  13.770  13.727  14.156 -0.2776  0.2803  0.1499
23810W        W42014   2.609   8.844   5.056 -0.0950  0.0564 -0.1202
23811W        W42015   3.123  10.383  12.511 -0.2396 -0.1720  0.1868
23812W        W42016  16.816  12.432  15.775 -0.4678 -0.1354 -0.2774
23813W        W42017  15.357  12.770  13.422 -0.0189 -0.0917  0.1613
23814W        W42018   1.345  16.307  15.422  0.1443  0.0698 -0.4015
23815W        W42019  16.923  16.996  15.893  0.0815  0.2365 -0.1567
23816W        W42020  11.625   4.145   0.871 -0.2861 -0.0339 -0.2586
23817W        W42021  10.506   9.175   0.369 -0.4623 -0.0864 -0.2368
23818W        W42022   4.137   7.008   1.191  0.1859 -0.1110  0.1207
23819W        W42023   3.496   2.984   2.658  0.0117  0.0089  0.1487
23820W        W42024   9.567  16.414   1.646 -0.1129  0.0679 -0.0054
23821W        W42025   7.755  14.318  12.709 -0.2181 -0.1291  0.1242
23822W        W42026   3.786  13.333  14.262 -0.1792  0.0955  0.2558
23823W        W42027  13.095   9.349   1.827  0.1497  0.1361 -0.2895
23824W        W42028   2.811  14.277   0.590  0.2699 -0.2968 -0.0404
23825W        W42029  16.128   4.007  16.457  0.1502  0.0540 -0.1493
23826W        W42030   7.160  11.060  17.370  0.0305 -0.0422  0.1910
23827W        W42031   9.252   1.318   1.059  0.1591 -0.1962 -0.2649
23828W        W42032  14.380   1.806  16.186 -0.0295  0.4294 -0.1390
23829W        W42033  12.798  11.633   1.691 -0.2841  0.1214  0.1764
23830W        W42034   2.505  15.308   2.722  0.0356  0.2287  0.1571
23831W        W42035   8.373   8.266   1.180  0.3423 -0.1379  0.1284
23832W        W42036  13.635   9.509  13.623 -0.0223  0.2372 -0.1363
23833W        W42037   0.439   0.875  14.459  0.0176 -0.1135 -0.0584
23834W        W42038   8.132  11.197   2.776 -0.3290  0.1822 -0.1322
23835W        W42039   2.495  11.419  14.195  0.1779  0.2431  0.0240
23836W        W42040  13.899  12.829   0.742 -0.3581  0.3194 -0.3374
23837W        W42041  12.892  15.018   1.422 -0.2443  0.2542 -0.0162
23838W        W42042  12.870  12.463   3.095  0.2025  0.0164 -0.1279
23839W        W42043   4.577   5.915  12.113  0.2357 -0.0326  0.0666
23840W        W42044   2.835   4.649  15.513 -0.0398  0.0492  0.2992
23841W        W42045   5.749  14.944  14.449 -0.0754  0.0551  0.1632
23842W        W42046   8.939   8.446  14.745  0.1951  0.1246 -0.0525
23843W        W42047  11.297  16.740  13.985  0.1289 -0.2250  0.0649
23844W        W42048   3.919  11.885  15.189 -0.0487  0.1922  0.1023
23845W        W42049  13.195   0.493   1.150  0.1739 -0.1258  0.1515
23846W        W42050   5.660   3.677   0.514  0.0653  0.2545  0.2717
23847W        W42051  16.465   5.566  14.034 -0.1361  0.0196 -0.0005
23848W        W42052  11.484   0.677   5.587  0.1256 -0.2080  0.0592
23849W        W42053  13.803   5.047  14.514 -0.0501 -0.0166  0.0381
23850W        W42054   4.064   9.702  17.258 -0.0124 -0.0984 -0.0128
23851W        W42055   2.403   7.066   2.830  0.2126 -0.0483  0.0448
23852W        W42056   9.782  16.035   5.216 -0.1567 -0.0473  0.1858
23853W        W42057  15.768   0.293   4.894  0.2328 -0.0938  0.2227
23854W        W42058   8.631   8.696  13.853  0.2558  0.0982  0.0996
23855W        W42059  10.217  14.675   3.419  0.2785 -0.0029 -0.0109
23856W        W42060   1.628   1.880   4.406 -0.0283 -0.1723  0.0464
23857W        W42061   9.701   3.105   2.962 -0.2014 -0.1494  0.1643
23858W        W42062   4.483  13.272  12.990 -0.1890 -0.1514 -0.2068
23859W        W42063  12.512  14.380   4.179  0.1464 -0.2325  0.1697
23860W        W42064   7.502   1.254   2.740  0.2232  0.1469 -0.1805
23861W        W42065  14.003   8.349  15.311  0.1765 -0.0413 -0.0112
23862W        W42066   6.559   1.415   3.725  0.1922  0.0833  0.0652
23863W        W42067   0.476  14.412   2.637 -0.1383 -0.3819  0.0054
23864W        W42068  13.689   1.412   0.203 -0.2363 -0.2721  0.0716
23865W        W42069   7.930   4.572   1.270 -0.2292  0.1748  0.0187
23866W        W42070   4.096  12.179  17.137 -0.1041 -0.2838  0.0124
23867W        W42071   9.632   1.797   3.949 -0.0128 -0.1448 -0.0065
23868W        W42072   7.544   0.730  14.048  0.0200 -0.2514  0.3035
23869W        W42073  11.030  11.255   0.994  0.1821  0.3595  0.0289
23870W        W42074   5.195   0.329  12.214 -0.0080 -0.2596  0.0006
23871W        W42075   6.379   8.199  13.192 -0.2011  0.0160  0.1291
23872W        W42076  11.017   7.509   2.061 -0.0320 -0.0801  0.1325
23873W        W42077   8.370  12.795   5.283  0.0815 -0.0269  0.1989
23874W        W42078  11.834   8.333   0.017  0.0933  0.0387  0.2697
23875W        W42079  14.713   6.966   2.663  0.1718 -0.1943 -0.0932
23876W        W42080   3.425   2.400  16.966  0.1432  0.0927  0.0301
23877W        W42081  15.136  10.790   0.050 -0.2356  0.1980  0.3188
23878W        W42082   3.189   7.086   4.805  0.0843 -0.1044  0.3805
23879W        W42083   4.967  13.282   1.468  0.3039  0.2945  0.0695
23880W        W42084   1.389   6.838   2.845  0.0264 -0.0825 -0.3141
23881W        W42085  12.438   0.788  14.720  0.1472 -0.0045  0.0316
23882W        W42086  10.704   2.458   1.092  0.1677  0.0950 -0.0176
23883W        W42087   1.316  10.295  16.655 -0.0620 -0.0658 -0.0484
23884W        W42088   9.074   4.030   5.392  0.2286  0.3157  0.0400
23885W        W42089   3.526   1.682  15.234 -0.0364 -0.0563  0.0929
23886W        W42090   8.640  16.114  15.596  0.0218  0.1101  0.2541
23887W        W42091   2.743   1.424   1.985  0.1593 -0.1999 -0.2264
23888W        W42092  13.927   5.039   4.528  0.2679 -0.0526  0.1187
23889W        W42093  10.255   3.753   2.662  0.0630 -0.2070  0.0381
23890W        W42094   3.844   2.091   1.226  0.0716  0.0002 -0.1710
23891W        W42095   1.168  11.847   4.998 -0.1315  0.1541  0.0173
23892W        W42096  15.596   3.026   2.959 -0.0043 -0.3049 -0.0848
23893W        W42097   8.562   0.222  13.229  0.1440 -0.1898 -0.0037
23894W        W42098   5.426  13.687  12.040  0.0169 -0.0618 -0.2756
23895W        W42099  15.774  15.482  17.169  0.0187  0.2255 -0.0494
23896W        W42100  17.283  11.775   5.414 -0.3495  0.0785 -0.1092
23897W        W42101  14.649   9.528   5.711  0.1487 -0.1686 -0.2055
23898W        W42102  11.489   9.093  12.332  0.0829 -0.0254  0.0144
23899W        W42103  15.420  12.214  12.767  0.1220 -0.0005 -0.0318
23900W        W42104   2.599   5.795  13.998 -0.0388  0.2095 -0.0264
23901W        W42105   7.203  14.734  14.137  0.0854  0.1012  0.0657
23902W        W42106  10.396  14.131   3.298 -0.1745  0.2493  0.0306
23903W        W42107   4.561   6.532   4.990 -0.4514 -0.0314  0.1504
23904W        W42108  10.333  15.594   0.878 -0.0991 -0.3678 -0.1469
23905W        W42109  12.235   2.689   1.750  0.0997 -0.1597 -0.1437
23906W        W42110   8.355   2.242   4.342 -0.1706  0.1035  0.0044
23907W        W42111   0.116  15.181  17.412  0.1186 -0.1357  0.0076
23908W        W42112   9.973   9.301  13.165  0.0078 -0.1804  0.1741
23909W        W42113   5.277   0.797  14.743  0.2138 -0.1850  0.0439
23910W        W42114   5.452  14.672  14.766 -0.1484  0.0214  0.0594
23911W        W42115  11.179  11.990  15.489  0.1473 -0.1301 -0.0983
23912W        W42116  13.584  15.169  15.217 -0.3657 -0.2587  0.2499
23913W        W42117  13.882   1.075  12.677  0.2862 -0.2702 -0.0785
23914W        W42118   9.112  16.760  15.134  0.1992 -0.0674 -0.0943
23915W        W42119   2.033   7.366  14.672  0.0105  0.1243  0.0584
23916W        W42120  14.253  10.211  13.507  0.2232 -0.0833  0.1660
23917W        W42121   8.034   1.943   2.639 -0.1918  0.1098  0.4168
23918W        W42122   3.410   0.883   0.778  0.1297 -0.3574  0.0209
23919W        W42123   2.441  15.299   1.999 -0.0986  0.0495  0.0214
23920W        W42124   4.206   5.176  15.837  0.1022 -0.0604 -0.2688
23921W        W42125  10.335   2.809   0.231  0.0744  0.0248  0.0865
23922W        W42126   7.634  16.535   2.113 -0.0453  0.0544 -0.0223
23923W        W42127   8.680   2.550   4.116 -0.0274  0.0516  0.0657
23924W        W42128  16.644   3.836  15.681  0.0293  0.0934  0.1446
23925W        W42129  14.930   2.406  16.242  0.0565 -0.2669  0.1818
23926W        W42130  17.341  10.635  12.967 -0.2428 -0.1704  0.1078
23927W        W42131  13.824  12.929  16.421  0.0836  0.2313  0.2955
23928W        W42132   4.700   6.146   0.155 -0.0581 -0.3706 -0.0638
23929W        W42133   1.850  12.641  12.903 -0.2076 -0.1043 -0.1044
23930W        W42134  17.142  10.577   3.875 -0.3483 -0.0744 -0.1266
23931W        W42135  14.938  13.030   4.346  0.0142  0.0754  0.1304
23932W        W42136  10.265  10.603  15.471  0.2157 -0.1033 -0.1855
23933W        W42137   5.011   0.543  16.483 -0.0218  0.1015 -0.1658
23934W        W42138   5.111   5.904  15.306 -0.0724  0.0223 -0.2360
23935W        W42139  12.651   0.062   3.997  0.0662 -0.1061  0.0128
23936W        W42140   7.912  12.207   0.592  0.0221  0.1768 -0.4625
23937W        W42141  13.576   2.564  16.334 -0.0421  0.0946 -0.0098
23938W        W42142  12.656  13.193   4.586 -0.0031 -0.2247 -0.2406
23939W        W42143   3.007   4.357  14.235 -0.2482  0.0680 -0.2592
23940W        W42144  16.079   1.097   4.292  0.2762 -0.0991  0.0554
23941W        W42145  11.426   0.272   1.671  0.1288  0.0803  0.1379
23942W        W42146   1.878   7.275   1.180 -0.2821  0.1612  0.1578
23943W        W42147   8.601  10.479  14.803  0.2120  0.0817 -0.3111
23944W        W42148   7.588  17.016   0.137  0.0436 -0.1646  0.1950
23945W        W42149   6.424   3.857   3.574 -0.2285 -0.3174 -0.2451
23946W        W42150   7.290  16.535  17.134 -0.2653  0.0011 -0.1905
23947W        W42151   4.617  12.467   5.237 -0.0334  0.2688 -0.3098
23948W        W42152   2.869  12.701   1.374 -0.1806 -0.2491  0.0673
23949W        W42153   9.073  12.790  13.279  0.1981  0.0590  0.0601
23950W        W42154  16.582   5.900   1.873 -0.0052 -0.2858 -0.0051
23951W        W42155   0.151  16.844   3.916 -0.1688 -0.1622  0.1326
23952W        W42156   9.394   6.246   4.787 -0.0086 -0.1390  0.1663
23953W        W42157   9.808   6.156   4.433  0.0673  0.1754 -0.1484
23954W        W42158   0.959   1.699  12.794 -0.1408 -0.0029 -0.1297
23955W        W42159   9.435   8.015   6.220 -0.1505  0.1135 -0.1073
23956W        W42160  10.162  14.327   2.266  0.3023 -0.1518  0.1108
23957W        W42161   2.999   6.114  14.426 -0.0166 -0.2267 -0.0450
23958W        W42162   4.267   9.448  16.145 -0.1161 -0.1643 -0.2485
23959W        W42163  14.349  13.539   0.378 -0.2777 -0.0208 -0.0197
23960W        W42164   3.732  17.015   1.943  0.0543  0.1260 -0.2020
23961W        W42165   3.434   7.818   0.329  0.0030 -0.2071  0.0544
23962W        W42166  17.341  14.644  13.552  0.1788 -0.0957 -0.1375
23963W        W42167  10.189  17.134   1.593 -0.1588  0.2428 -0.0296
23964W        W42168   5.513  17.131  16.183  0.1074  0.1369 -0.1063
23965W        W42169  11.252   3.587  14.288  0.1939 -0.0897 -0.0758
23966W        W42170   3.236   4.092   0.851  0.0012 -0.1230  0.0294
23967W        W42171   8.929   2.828  13.164 -0.2709 -0.2893 -0.0167
23968W        W42172  15.856  15.088   4.414  0.3760  0.0874 -0.1233
23969W        W42173   1.964  15.254   0.639 -0.2396 -0.1026  0.0414
23970W        W42174   6.591  15.394  17.412 -0.1519  0.1334 -0.0895
23971W        W42175  14.032   9.191  12.798 -0.0817 -0.1631 -0.1008
23972W        W42176   7.201  14.368   4.313 -0.3722 -0.3535 -0.0896
23973W        W42177  10.225   8.017   3.032  0.0820  0.0526  0.2364
23974W        W42178   0.849   4.677   5.077 -0.2502 -0.2703 -0.1698
23975W        W42179  14.281   0.691  16.505  0.3400  0.4513  0.0592
23976W        W42180   1.214   2.681   3.341 -0.0146  0.0292 -0.1174
23977W        W42181  15.446   9.131   2.768  0.0677 -0.0096 -0.2290
23978W        W42182   8.293  17.189   0.197 -0.0064 -0.2038  0.0870
23979W        W42183   9.752   8.232   1.909 -0.2448 -0.3361 -0.0033
23980W        W42184  14.446  14.928  15.740 -0.1141  0.1717 -0.0807
23981W        W42185   2.334   4.027   1.874 -0.0162  0.3479  0.0645
23982W        W42186   4.112   6.842  12.981  0.1535  0.1383 -0.0384
23983W        W42187  11.712  12.569   2.031 -0.2430  0.4542 -0.2115
23984W        W42188   5.108   7.686   3.460  0.0743  0.0375  0.2353
23985W        W42189  12.720  15.144   3.768 -0.2680  0.3016  0.0724
23986W        W42190  11.117   9.269   4.466  0.0990 -0.1813  0.2240
23987W        W42191   0.762   1.836  13.724 -0.0461 -0.0470 -0.0690
23988W        W42192  13.137  16.900   0.804  0.0555 -0.3838 -0.3483
23989W        W42193   0.851   2.162  15.493  0.0529 -0.2914  0.0646
23990W        W42194   4.917  13.848  17.332 -0.0527 -0.1620  0.2000
23991W        W42195  15.126   1.084   4.137 -0.1849  0.0961  0.0869
23992W        W42196  12.025  16.973   1.472 -0.0211 -0.0830  0.1185
23993W        W42197   4.702  11.962   0.240  0.0182  0.0802 -0.2626
23994W        W42198   9.132   9.787   3.954 -0.0367  0.0377 -0.3722
23995W        W42199  11.454  10.082  15.048  0.1025  0.1246 -0.0830
23996W        W42200  12.101   5.651  14.947  0.0575  0.1014 -0.1572
23997W        W42201  11.136  15.041  16.246 -0.3457 -0.0673  0.1070
23998W        W42202   9.356  12.133  11.511  0.0188  0.1353  0.0719
23999W        W42203  10.104   9.599   5.433  0.0551 -0.0984 -0.1874
24000W        W42204   2.547  13.466   4.679  0.2507 -0.2366 -0.1568
24001W        W42205  12.381  13.428   1.347 -0.0626  0.3312 -0.1338
24002W        W42206   3.318   0.574  17.374 -0.1122 -0.0359 -0.0591
24003W        W42207   2.871   8.047   1.151 -0.0240 -0.1151  0.1166
24004W        W42208  16.844   0.881  13.232 -0.2427  0.2840  0.1373
24005W        W42209  14.011   3.311  16.844  0.2730 -0.2894  0.1061
24006W        W42210   9.010   6.475   0.819  0.1257 -0.0086  0.0162
24007W        W42211   7.607   8.625  14.692  0.3007 -0.0182 -0.1891
24008W        W42212  15.756  15.048  16.913 -0.0817  0.3758 -0.0112
24009W        W42213   1.715   6.919   4.197 -0.1301 -0.3068 -0.1467
24010W        W42214  16.834   4.269  13.288 -0.0048 -0.0849  0.2601
24011W        W42215   5.973  13.990   0.344 -0.0648 -0.0143 -0.2348
24012W        W42216  11.363   5.836   2.671 -0.1785 -0.0532 -0.0364
24013W        W42217  11.025   3.517   0.465  0.0958 -0.5188 -0.1064
24014W        W42218  13.195   7.599   4.603 -0.3069 -0.1066 -0.1658
24015W        W42219   8.427   2.708   2.739  0.0004 -0.0337 -0.1764
24016W        W42220   2.913  15.205   0.013 -0.0791 -0.0584 -0.2870
24017W        W42221  11.640   8.017  11.717 -0.1568  0.0608 -0.2768
24018W        W42222  10.330  12.965   4.555  0.0571 -0.0936  0.2345
24019W        W42223  16.624  17.074   5.449  0.4002  0.1035  0.0437
24020W        W42224  10.880  13.946   1.227  0.2293 -0.2221 -0.2212
24021W        W42225   6.813   2.850   1.044 -0.1205  0.1345  0.1145
24022W        W42226  13.489  11.994   4.323 -0.0607  0.1044  0.2467
24023W        W42227  10.400  12.818   3.829  0.0670 -0.0203  0.0332
24024W        W42228   8.577  16.655  15.758 -0.2302  0.4212 -0.0162
24025W        W42229   6.313  16.553   0.052  0.0511 -0.0425  0.1653
24026W        W42230  14.179  11.493  15.324  0.0853  0.3016  0.2086
24027W        W42231  12.220  15.576   1.133 -0.2059 -0.1720 -0.0215
24028W        W42232  12.472   7.214   2.587  0.0460 -0.0857 -0.0696
24029W        W42233   1.640  13.966  14.557  0.1334  0.1677  0.1082
24030W        W42234  11.490   6.269   3.900  0.1731  0.4501  0.1161
24031W        W42235  11.311   3.089  17.052  0.1965 -0.0999 -0.1306
24032W        W42236   1.331   6.052   0.025 -0.2273 -0.1266 -0.0054
24033W        W42237  13.315   1.140   0.591  0.0524  0.1705 -0.2705
24034W        W42238   8.229  17.054  15.049  0.1467 -0.0309  0.3662
24035W        W42239   9.673  14.090   0.029  0.0010 -0.1021 -0.1124
24036W        W42240   2.019  11.326   2.714 -0.0073  0.1438 -0.0344
24037W        W42241   8.877   9.410  12.962 -0.0328 -0.0683  0.1780
24038W        W42242  13.312   5.083   1.096 -0.0820 -0.2823  0.2089
24039W        W42243   1.189   2.728  14.948  0.0647 -0.5172  0.2068
24040W        W42244   0.949   0.050  14.392 -0.1871 -0.0046  0.3593
24041W        W42245   0.840  13.122   4.927  0.1811  0.3931 -0.3222
24042W        W42246  10.810   2.162  16.205 -0.0937 -0.0303  0.1239
24043W        W42247   6.227  13.223  16.447  0.2559  0.0063 -0.1480
24044W        W42248  12.545  15.809   4.894 -0.1719 -0.0799  0.3025
24045W        W42249   9.304  12.909   5.615  0.2461  0.3715  0.1844
24046W        W42250   2.362   3.784  16.733  0.0670 -0.1970 -0.2732
24047W        W42251  10.660   2.856  14.399  0.1529  0.0675 -0.1429
24048W        W42252  14.442  13.503  16.427  0.0678  0.1500 -0.1205
24049W        W42253  11.185   9.270   1.050  0.1668 -0.1802  0.1561
24050W        W42254   0.046   7.352  13.065  0.2549 -0.0875 -0.4807
24051W        W42255   5.542   8.125   4.821  0.1452 -0.3484  0.0116
24052W        W42256   6.093  13.449   3.463 -0.0796  0.0450  0.1943
24053W        W42257   0.703   0.485  15.245 -0.1419  0.1150  0.2699
24054W        W42258   7.981  13.463  13.747  0.0101 -0.2776  0.2434
24055W        W42259   1.762   3.911   4.567  0.2208 -0.0395 -0.5197
24056W        W42260   8.741  13.077   3.292  0.4038 -0.0347  0.1347
24057W        W42261  15.291  13.988   1.881  0.0994 -0.5498  0.0694
24058W        W42262   5.575   8.012  13.799 -0.2610 -0.0975  0.1217
24059W        W42263   5.870   8.416   0.884 -0.0216  0.2645  0.1454
24060W        W42264  12.509   5.095   1.664  0.2884  0.1176 -0.1286
24061W        W42265  16.245   9.096   3.525  0.1493 -0.0832 -0.1028
24062W        W42266  13.436  10.739   1.397  0.2092  0.0497 -0.2004
24063W        W42267   6.605   2.432  17.179 -0.2882  0.0665 -0.0876
24064W        W42268   1.404  12.285  14.609  0.1777 -0.0260  0.0263
24065W        W42269   2.428  10.092   6.193 -0.1595 -0.1315  0.2162
24066W        W42270   9.523  14.173   3.302  0.0075 -0.1762 -0.0640
24067W        W42271   4.724  14.585   1.811 -0.0546  0.0960 -0.0251
24068W        W42272   6.986  15.742   0.774  0.1702  0.1372  0.2741
24069W        W42273   6.625   8.962  14.712  0.1315 -0.1433  0.1695
24070W        W42274  13.439  15.788   0.912 -0.2738 -0.1705 -0.0652
24071W        W42275   8.230  13.944   3.638  0.0845 -0.1168  0.1854
24072W        W42276   4.720   5.558  14.587  0.3897 -0.0726  0.0744
24073W        W42277  17.132   8.997   3.423  0.0160  0.1157 -0.1752
24074W        W42278  11.446   4.559   0.024 -0.0268  0.0451 -0.2431
24075W        W42279  13.761  12.912   3.078  0.2978 -0.1296 -0.0641
24076W        W42280   4.700  14.994   4.715  0.2117 -0.1055 -0.0517
24077W        W42281   9.923  13.950   3.089  0.2989  0.0671  0.2141
24078W        W42282   5.095   5.044   0.524 -0.2688 -0.0148  0.1706
24079W        W42283  11.848   6.939   4.952  0.2411 -0.2709  0.0476
24080W        W42284   8.749   5.014   1.310  0.1702 -0.1509 -0.0796
24081W        W42285   4.444   6.714   0.901  0.0527 -0.1812 -0.0383
24082W        W42286  15.181   1.132   4.719 -0.1175 -0.1169 -0.0003
24083W        W42287   1.812   8.997  14.966  0.0424 -0.2316 -0.2727
24084W        W42288   3.915   7.286  17.207  0.1436  0.0555 -0.1494
24085W        W42289  16.692  14.669   4.524  0.0365  0.0145  0.1770
24086W        W42290  13.495  11.537   4.034  0.0793  0.2504 -0.4068
24087W        W42291   9.348  11.065  12.990  0.0338 -0.0509 -0.0580
24088W        W42292   2.014   0.265   0.623 -0.0542 -0.0826  0.1344
24089W        W42293  16.642  10.622  16.592  0.0811  0.1608  0.0632
24090W        W42294   7.696   0.602   3.264 -0.4362 -0.1652  0.0278
24091W        W42295   2.650  15.343   4.547 -0.1477  0.4837 -0.1081
24092W        W42296   1.060  17.157   3.819 -0.1352 -0.2256  0.1887
24093W        W42297   6.115  13.594  17.251  0.2313 -0.0202 -0.1922
24094W        W42298   8.896   7.848   4.885  0.1643 -0.1123 -0.1358
24095W        W42299  12.296   3.704   5.154  0.0862 -0.1647 -0.0219
24096W        W42300   8.260   7.936   3.710 -0.0123  0.0131 -0.0550
24097W        W42301   6.598   3.237  13.221  0.1008  0.0125  0.0501
24098W        W42302   6.308   0.256   2.971 -0.1672  0.3204 -0.0705
24099W        W42303   4.866   3.888  15.501 -0.0435 -0.0607  0.0815
24100W        W42304   5.604  16.020  14.177 -0.1890 -0.0929 -0.2199
24101W        W42305   4.496  10.621  15.424 -0.2968 -0.2612 -0.1977
24102W        W42306   3.502   5.138   0.501  0.1738  0.0535  0.1317
24103W        W42307   3.803  13.813  15.166 -0.1603  0.1788  0.1295
24104W        W42308  10.719  10.247   2.676  0.1378  0.0806  0.1178
24105W        W42309  16.268   4.099  16.006  0.2651  0.0195 -0.0101
24106W        W42310   5.344   0.858  11.979  0.2065 -0.1081  0.0224
24107W        W42311  10.034  14.079   0.970 -0.0295  0.0205  0.1805
24108W        W42312  14.643   0.314  13.160 -0.2228  0.1634 -0.0390
24109W        W42313   1.838   7.795   3.163 -0.0801  0.1031 -0.0462
24110W        W42314   8.876  10.677  12.701 -0.3041 -0.4351  0.1498
24111W        W42315   4.435   0.981  13.902 -0.0203 -0.0245 -0.0340
24112W        W42316  14.657  11.540  13.299 -0.2314  0.0578 -0.1522
24113W        W42317  17.317  16.154   2.056 -0.0992 -0.0681 -0.0143
24114W        W42318  11.323   8.515  14.812 -0.1939  0.0316  0.0657
24115W        W42319   8.012   5.817   1.729  0.0408  0.3303  0.2363
24116W        W42320  11.316   0.962   0.999  0.0841 -0.1604  0.0783
24117W        W42321  10.913  12.350   0.582  0.4661 -0.3203  0.0402
24118W        W42322  10.376   7.042  15.782 -0.0213  0.0599  0.0930
24119W        W42323   8.785  12.955   2.172  0.0224 -0.2263  0.0325
24120W        W42324   8.939   5.952   2.055  0.0533  0.3337 -0.0449
24121W        W42325   1.309  13.070  12.326  0.0086  0.1668  0.2224
24122W        W42326  12.058  14.145   0.708 -0.0500  0.2149  0.1914
24123W        W42327  15.678   0.547   0.859 -0.0183  0.1227 -0.1037
24124W        W42328   8.485   7.605  15.247 -0.0256 -0.1422  0.1888
24125W        W42329  13.610  10.811   3.575  0.0688 -0.4351 -0.0499
24126W        W42330  13.563  13.692   2.746  0.0394  0.0166 -0.2466
24127W        W42331   3.273   3.149   0.448  0.2818 -0.3130  0.2971
24128W        W42332   6.268   5.988   4.263  0.0127  0.0044  0.2016
24129W        W42333   4.357  12.271   5.729  0.1408  0.1762 -0.1159
24130W        W42334  11.789   6.158  15.978 -0.1244 -0.1547  0.2190
24131W        W42335  14.583   2.187  12.681 -0.0149 -0.0010 -0.2664
24132W        W42336  15.391   6.468   0.748  0.2973 -0.1795 -0.4388
24133W        W42337   5.925  10.248   0.611  0.1120 -0.2708  0.2988
24134W        W42338  16.781   8.410  12.847  0.2287  0.1805  0.0310
24135W        W42339   2.589   7.390   3.105  0.1304  0.0640  0.2375
24136W        W42340   3.981  11.037  17.408  0.3580  0.0106 -0.0255
24137W        W42341  14.488   3.898  16.448  0.2125 -0.1207 -0.0836
24138W        W42342  15.124  15.843   4.807 -0.2829  0.0541  0.1014
24139W        W42343   2.676  15.849   4.498 -0.2817 -0.0094  0.0484
24140W        W42344   6.174   2.565   4.250 -0.2245 -0.1394  0.1096
24141W        W42345   3.842   4.786  17.184 -0.2332 -0.2262 -0.0598
24142W        W42346   0.567  12.391   5.109 -0.2758  0.2335  0.1939
24143W        W42347  15.717   6.578   2.253 -0.1237  0.0108  0.3212
24144W        W42348   1.078   9.050   4.156 -0.0252  0.2064  0.1114
24145W        W42349   0.247   8.484  14.433 -0.0043 -0.2267 -0.0043
24146W        W42350   0.173   5.766   1.459 -0.0391  0.0284 -0.0852
24147W        W42351  15.748  14.218   1.029  0.2684 -0.0463 -0.2532
24148W        W42352   3.324  17.108   0.576 -0.2796 -0.0508  0.0507
24149W        W42353  13.488  16.394  14.512  0.0174  0.0336 -0.0365
24150W        W42354  14.740  16.361   0.676 -0.1307 -0.0412  0.0604
24151W        W42355   3.554  16.460  16.040 -0.2430 -0.2083  0.0344
24152W        W42356   3.646  13.883   4.064  0.2390  0.0594  0.0198
24153W        W42357   9.604   5.486   3.686 -0.3370  0.0226 -0.0830
24154W        W42358  16.498   3.484  12.763  0.0002 -0.0428 -0.0088
24155W        W42359  12.972  11.459   4.766  0.1042 -0.0254 -0.1736
24156W        W42360  11.441   0.822   4.612  0.1049 -0.1709  0.1804
24157W        W42361   0.037   0.268  16.830  0.0264 -0.1897  0.0538
24158W        W42362   6.069  12.093   3.495  0.1356  0.0764  0.2194
24159W        W42363  15.674  14.452  15.760  0.2790 -0.1568  0.0797
24160W        W42364  12.029  13.029  16.078 -0.3847  0.1430 -0.3326
24161W        W42365  11.258   7.610  12.816  0.1776  0.1802  0.1160
24162W        W42366   3.568   9.594   4.659  0.0189 -0.0324 -0.0981
24163W        W42367   4.658   7.562   4.207 -0.2739 -0.4639 -0.0879
24164W        W42368  13.390   6.217  13.267  0.1028  0.1037  0.0815
24165W        W42369  17.050   4.552  14.839  0.2488 -0.0265  0.2548
24166W        W42370   1.801   6.268   2.026  0.0621 -0.0040  0.1208
24167W        W42371   6.576   1.169  17.191 -0.1611 -0.2066  0.1221
24168W        W42372  11.346   8.126  12.804 -0.1032 -0.1053 -0.2897
24169W        W42373   1.333  16.491  15.894 -0.0518  0.1962 -0.1368
24170W        W42374  17.208  15.734  12.914 -0.0934 -0.0354  0.0024
24171W        W42375   4.096   3.252  13.840  0.1197  0.0672 -0.2028
24172W        W42376  10.766   5.985   4.676 -0.0533 -0.2582  0.0187
24173W        W42377   6.625   5.388   1.912  0.0196  0.0832  0.0205
24174W        W42378   1.787  10.499  17.207  0.0712 -0.0525 -0.1007
24175W        W42379  12.201   7.116   3.502 -0.1132 -0.0743 -0.0638
24176W        W42380   6.177  10.503   3.103 -0.0943  0.1939  0.0220
24177W        W42381  10.380  13.215   0.985 -0.0475 -0.0081  0.0683
24178W        W42382   2.626   8.301  16.616  0.1034 -0.0661  0.0620
24179W        W42383  12.223   3.764   0.689  0.1061 -0.0692  0.0370
24180W        W42384  13.309   3.187  11.703 -0.1674  0.0903 -0.0090
24181W        W42385  14.057  16.166   2.577 -0.0693  0.4027 -0.1750
24182W        W42386  11.531  17.097   5.081  0.0999  0.1043  0.0719
24183W        W42387   3.733  16.253  14.559 -0.2163  0.2389  0.0079
24184W        W42388   8.771  14.007   5.096 -0.1900  0.1325  0.1316
24185W        W42389   1.349   3.043   5.634 -0.1957 -0.2831 -0.0599
24186W        W42390   5.782   5.738  17.207  0.4818 -0.1027  0.0166
24187W        W42391  12.494   0.933   2.574 -0.0819  0.0681 -0.1975
24188W        W42392   6.860  10.859  12.873  0.1830 -0.2144 -0.2384
24189W        W42393  10.113   4.349  14.777 -0.0310  0.1498 -0.0423
24190W        W42394  11.709  12.160   1.091 -0.2591 -0.3171 -0.0337
24191W        W42395  11.885  12.432  13.812 -0.1222  0.3816 -0.1113
24192W        W42396  16.427  17.320  12.510  0.2204 -0.0728  0.3081
24193W        W42397   1.099   0.343   4.400 -0.1392 -0.0899  0.0362
24194W        W42398   5.807  13.401   2.315  0.2491 -0.0315  0.0869
24195W        W42399  12.326   2.175  15.193 -0.1048  0.3222  0.0839
24196W        W42400   4.150  11.936   1.027  0.0305 -0.4371 -0.3069
24197W        W42401   0.142   4.657  14.538 -0.0055  0.1033 -0.0040
24198W        W42402   9.281   7.329   1.702  0.0113 -0.3649 -0.2203
24199W        W42403   0.829   1.397  16.299  0.2650 -0.0638  0.1484
24200W        W42404   1.242   9.480   4.985 -0.0584  0.1754  0.1370
24201W        W42405   0.474   4.047  15.139  0.1066  0.0562 -0.3074
24202W        W42406   3.701   3.391   3.730 -0.1381  0.0297  0.0932
24203W        W42407   2.792  13.136  14.692 -0.0134  0.2273 -0.3848
24204W        W42408   5.918   7.343   0.004 -0.2157 -0.1708  0.0161
24205W        W42409   0.908  10.293   5.468  0.1353  0.0738 -0.0506
24206W        W42410   0.916   4.309  15.154 -0.3324  0.0067 -0.0382
24207W        W42411   1.715   5.151   4.963  0.0509  0.0215  0.1803
24208W        W42412  10.086   4.397  12.597 -0.1830 -0.0623  0.0423
24209W        W42413  16.679  11.578  17.248 -0.2050 -0.2625  0.2454
24210W        W42414   7.993   1.131  13.943 -0.1920 -0.0490  0.1543
24211W        W42415   7.041  12.296  13.947  0.1385 -0.0865 -0.1954
24212W        W42416   2.507  11.452   0.597 -0.0816 -0.0649  0.0403
24213W        W42417  10.687  15.020   3.383 -0.0249 -0.1114  0.1358
24214W        W42418  16.054  16.440  14.518  0.2141  0.0025  0.1649
24215W        W42419  15.409   1.025  15.012  0.0245  0.4439 -0.0926
24216W        W42420  10.155  16.786   2.750  0.2474  0.0523 -0.0922
24217W        W42421  12.596   9.823   3.218  0.0615  0.3139 -0.0459
24218W        W42422  17.155   9.831  14.430  0.0720 -0.0350 -0.0388
24219W        W42423  13.864   5.012   1.858  0.0366 -0.1244 -0.0468
24220W        W42424   8.716   0.480  16.211  0.1005  0.1601  0.1511
24221W        W42425   8.416  16.247   1.032  0.0020  0.0820 -0.1338
24222W        W42426  12.172  16.618   1.168 -0.1364  0.0346 -0.2797
24223W        W42427   1.616  11.196   4.777  0.0932  0.0781 -0.0023
24224W        W42428  12.337   5.412  16.989 -0.1582  0.0812 -0.0879
24225W        W42429   2.757   3.350  16.098  0.3746 -0.2392 -0.1509
24226W        W42430  10.456   0.532   4.090  0.1158  0.0428 -0.1359
24227W        W42431  11.459   2.647   4.029 -0.1146 -0.2084 -0.1812
24228W        W42432  14.727  14.326  16.664 -0.1077  0.0417  0.0647
24229W        W42433  11.551  13.664  13.534  0.0742 -0.2702  0.0201
24230W        W42434   9.896   8.263   0.844 -0.1737 -0.1836 -0.3818
24231W        W42435   6.805  16.325  17.091  0.1168 -0.2513  0.1738
24232W        W42436  12.773  13.990   4.703 -0.0072  0.0433 -0.1742
24233W        W42437  15.095  12.450  13.090  0.3011 -0.0112 -0.1300
24234W        W42438  10.539   4.145   2.925  0.0591  0.0114 -0.0271
24235W        W42439   2.159  16.819   6.109 -0.3757  0.3941 -0.2132
24236W        W42440   8.257  13.955   2.094  0.1572 -0.1073 -0.0672
24237W        W42441   4.703  11.298   1.982 -0.0429 -0.1175  0.2931
24238W        W42442   6.146   6.875  15.045  0.1419 -0.4067  0.1637
24239W        W42443   0.398  11.721   1.747  0.1019 -0.0888 -0.0287
24240W        W42444   8.910   3.030  12.646 -0.1239  0.0252 -0.2200
24241W        W42445   7.688  11.399   3.323  0.0968 -0.2542  0.1301
24242W        W42446  16.234   9.939  15.731  0.1930 -0.0131  0.1374
24243W        W42447   6.472   4.887   1.772  0.0073  0.0798  0.0189
24244W        W42448   3.482   1.869  13.808  0.0977 -0.1951 -0.0601
24245W        W42449   9.508   0.820   0.958 -0.0090  0.2315 -0.1240
24246W        W42450  17.321   3.100  12.635  0.2356 -0.2082 -0.3326
24247W        W42451  13.898  13.188   5.178 -0.3817  0.0042  0.0052
24248W        W42452  13.280  15.866  15.063 -0.4075 -0.2548  0.3808
24249W        W42453   2.417   8.798  14.674  0.1179 -0.2323  0.0626
24250W        W42454  10.774   2.602   4.985 -0.1822 -0.0934 -0.1985
24251W        W42455   0.965  14.626   2.682 -0.0803 -0.2176 -0.3060
24252W        W42456  11.158   8.909   3.849 -0.1026  0.2252  0.0164
24253W        W42457   7.484   7.949   0.572  0.0771 -0.3069 -0.0123
24254W        W42458   7.944  15.925  12.416 -0.1672  0.1417  0.3534
24255W        W42459   1.381   4.918   4.668 -0.1483  0.2519 -0.2942
24256W        W42460   3.127   6.895  16.909  0.1145 -0.1897  0.1564
24257W        W42461   9.078  13.346   2.983  0.0457 -0.2289 -0.0584
24258W        W42462  17.098   3.491  17.336 -0.1374 -0.1762 -0.2348
24259W        W42463  10.600  14.974  13.061 -0.0151  0.2577  0.1153
24260W        W42464  12.111  11.387  17.181 -0.0156  0.0793  0.1593
24261W        W42465   7.791   6.408  17.329  0.0906 -0.0170 -0.1415
24262W        W42466   5.823  14.992   0.764 -0.1583  0.3353  0.0793
24263W        W42467  14.847   2.677  12.541  0.1728 -0.1847  0.0423
24264W        W42468  11.669  15.343  14.010 -0.0586  0.0712  0.0805
24265W        W42469  15.235   1.993   4.987 -0.1741 -0.2573 -0.1214
24266W        W42470   5.618  13.186  12.138 -0.0042  0.0783  0.2069
24267W        W42471  14.183   4.272  16.365  0.1602 -0.0507  0.1889
24268W        W42472   5.700   4.114   4.148 -0.0025 -0.2027  0.0747
24269W        W42473  12.179  10.005  12.910  0.1428  0.1737 -0.1734
24270W        W42474  14.840   6.641   5.127 -0.1108 -0.0671 -0.3738
24271W        W42475   5.474   7.082  15.719  0.0588 -0.0527 -0.1206
24272W        W42476   1.678   8.175  12.493 -0.1056  0.0697 -0.3002
24273W        W42477   1.739   3.433   5.518 -0.0465 -0.1337 -0.0994
24274W        W42478   7.196  12.901  13.101  0.0114  0.0109  0.1234
24275W        W42479   0.151   1.152   5.023 -0.0692  0.0234 -0.0159
24276W        W42480  15.096   7.520  14.719  0.2668 -0.0279  0.3675
24277W        W42481  17.073   2.077   4.914  0.0204  0.2182  0.6332
24278W        W42482   3.232  12.891   5.308 -0.0387  0.0757 -0.0120
24279W        W42483   5.585   9.491   1.213  0.0461 -0.1484  0.1742
24280W        W42484  14.017   8.101   2.777 -0.1040 -0.1187 -0.1143
24281W        W42485   7.622   6.662   1.930  0.1213  0.2499 -0.2750
24282W        W42486   4.637  13.300   3.574 -0.1280  0.0396  0.2785
24283W        W42487  11.210  15.668  13.087  0.1066  0.1594  0.2425
24284W        W42488   5.170  13.282  17.353 -0.0191  0.3341 -0.0563
24285W        W42489   9.854   5.958  14.588  0.1719  0.0280 -0.0819
24286W        W42490  16.401   7.767  12.301 -0.1748  0.1076  0.1635
24287W        W42491  11.215  15.433  14.174  0.1596 -0.2410  0.0815
24288W        W42492   5.492  11.428  14.422  0.1472  0.0655 -0.1013
24289W        W42493  16.564  14.076   2.200  0.1620 -0.0453  0.0369
24290W        W42494   6.321   7.870  14.103 -0.0699  0.1992 -0.2291
24291W        W42495  13.852  10.371  16.906  0.2780  0.1610 -0.0275
24292W        W42496   5.620   6.879   3.345  0.0144  0.1328  0.1338
24293W        W42497   5.167   1.254  14.485 -0.1292 -0.0202 -0.2287
24294W        W42498   2.901  13.384   0.146 -0.0729  0.0841 -0.1068
24295W        W42499   2.197   7.151  14.191  0.1319  0.0951 -0.0301
24296W        W42500   9.203   2.918   0.133  0.1531 -0.3487 -0.3514
24297W        W42501  14.386   2.922  13.849 -0.0287 -0.1270 -0.0054
24298W        W42502  13.225   5.383  16.248 -0.3824 -0.3231 -0.2812
24299W        W42503  15.765   8.782  14.441 -0.1114 -0.2621 -0.2357
24300W        W42504   7.551  16.704   0.530  0.3027  0.2613  0.3891
24301W        W42505   9.893   8.564  16.912  0.2400  0.0302  0.1875
24302W        W42506  16.852   5.042  11.913  0.0792 -0.0386  0.1139
24303W        W42507   7.495  14.734  16.042  0.2821  0.1928  0.0589
24304W        W42508   1.088  12.068  14.910  0.0629  0.0502 -0.0643
24305W        W42509  12.201  10.074   1.642 -0.0053  0.0178 -0.1362
24306W        W42510   1.051  16.860  16.049  0.1148  0.1891 -0.0623
24307W        W42511  11.409   9.750  12.964 -0.0312 -0.0179  0.2580
24308W        W42512   0.733   4.864   1.888 -0.0929  0.0675  0.0809
24309W        W42513  10.606   5.628   2.385  0.2585 -0.0768  0.0103
24310W        W42514   7.639   7.437   3.913 -0.0781 -0.0807  0.1085
24311W        W42515   2.151  15.285   2.390 -0.3516  0.3270 -0.0685
24312W        W42516   2.989   9.125  16.033  0.1272 -0.0739 -0.1242
24313W        W42517   2.259   9.612  16.627  0.0480  0.2232 -0.0727
24314W        W42518   4.410   3.041  15.462  0.1532 -0.0272 -0.0285
24315W        W42519   4.755   6.558  14.758  0.2273  0.0246 -0.1102
24316W        W42520   8.717  15.191   2.145 -0.0395 -0.0222 -0.1413
24317W        W42521   1.954  14.159   2.721 -0.2477 -0.0891  0.1934
24318W        W42522  16.560   2.098  17.505  0.0902  0.1858  0.1929
24319W        W42523   3.994   4.449   0.044 -0.3199 -0.3655 -0.4292
24320W        W42524  12.674   9.612  15.237 -0.0350 -0.1344  0.2442
24321W        W42525  11.652   6.741   4.099  0.1341  0.1739 -0.0526
24322W        W42526   4.481   3.427   3.997  0.0450  0.2229 -0.4051
24323W        W42527  16.513   4.773   1.895 -0.0914 -0.0631  0.2036
24324W        W42528   8.383  11.221  13.715 -0.0182 -0.1464 -0.1363
24325W        W42529   8.347  16.203  12.937  0.2277  0.0237  0.0427
24326W        W42530   2.732   3.165   1.448 -0.0249  0.1471  0.2049
24327W        W42531  13.203   6.957  13.652 -0.0490  0.0750 -0.3948
24328W        W42532   9.381   8.262  14.619 -0.4267 -0.0321  0.0496
24329W        W42533  12.684   0.951  16.567 -0.0441 -0.2659 -0.1463
24330W        W42534  13.746   0.932  13.708  0.1084 -0.0130 -0.2383
24331W        W42535   6.386  10.324  15.354  0.0698  0.0111 -0.0221
24332W        W42536   2.134   9.596   1.528 -0.0632 -0.0962  0.2783
24333W        W42537  13.111   5.644   3.756  0.0361 -0.0366  0.1840
24334W        W42538   5.804  14.925   3.473 -0.0305  0.2656  0.0359
24335W        W42539   5.286   2.454   3.736 -0.1899  0.2363 -0.4847
24336W        W42540   5.229   0.979   4.001  0.1596  0.1694  0.0807
24337W        W42541   1.682   0.310   1.086  0.1588 -0.2057 -0.0587
24338W        W42542  17.010   4.374   3.107  0.0844 -0.1379  0.2747
24339W        W42543   6.514  15.042  16.092  0.1930  0.0474  0.0986
24340W        W42544   6.852   7.686   4.756  0.2958 -0.1265 -0.3438
24341W        W42545  14.101   7.811   3.959 -0.0164 -0.0584  0.0033
24342W        W42546   2.896  11.106   0.537  0.0503 -0.0158 -0.0979
24343W        W42547   7.584  12.701   2.025  0.2522  0.1139 -0.1065
24344W        W42548   0.623  10.969   0.122 -0.3844 -0.1696 -0.4041
24345W        W42549   4.529   7.927  15.063  0.1013 -0.1030 -0.0453
24346W        W42550   2.637   3.776  12.548  0.0862 -0.5006  0.0780
24347W        W42551   7.044  14.938  15.995 -0.0265  0.0942 -0.2270
24348W        W42552   5.353   5.938   2.277  0.3753 -0.0555 -0.0555
24349W        W42553   6.272  11.360   2.817  0.2744 -0.0341 -0.0637
24350W        W42554   2.477   0.258  12.785  0.0884 -0.1063 -0.0028
24351W        W42555   7.841   2.178  13.895 -0.1027 -0.0615 -0.1089
24352W        W42556  12.917  15.258   2.921  0.0101  0.1060  0.1032
24353W        W42557   5.063   2.739  15.871 -0.3811 -0.0630 -0.1397
24354W        W42558  16.566   9.646  15.426 -0.0355 -0.0722  0.0824
24355W        W42559  12.851   8.367   4.389  0.0106 -0.1894 -0.5207
24356W        W42560  13.082   5.326  17.276  0.1434  0.2606  0.0881
24357W        W42561   8.037   5.726  16.182  0.4001 -0.0916 -0.1124
24358W        W42562   2.189  17.290   4.592 -0.0364  0.0215  0.0934
24359W        W42563  11.175  10.705   2.360 -0.0007 -0.0522 -0.1815
24360W        W42564  14.546  10.532   3.706 -0.2019  0.3128  0.1138
24361W        W42565   2.938   9.252   3.145 -0.0691 -0.1161  0.1831
24362W        W42566   8.739   5.409   2.182 -0.0643 -0.3123  0.4673
24363W        W42567   1.331   4.435  17.087  0.0715 -0.1668  0.1142
24364W        W42568  16.510   7.218   0.786  0.0522  0.0691  0.0583
24365W        W42569  13.682   2.427  15.861 -0.0252 -0.2628 -0.0070
24366W        W42570   0.715   5.345   0.631 -0.0196 -0.2181 -0.0889
24367W        W42571   6.127   4.820   1.404  0.1795 -0.0317 -0.0861
24368W        W42572  16.069   6.995   3.435 -0.2903 -0.3045 -0.1509
24369W        W42573   7.499  12.618  16.768  0.0149  0.0406 -0.2386
24370W        W42574   9.055   1.901  13.842 -0.2774  0.2831 -0.2031
24371W        W42575  14.344   0.738   4.204 -0.2789  0.2673  0.0669
24372W        W42576  10.526   0.007  14.549 -0.0398  0.0446 -0.1210
24373W        W42577   3.136   6.387  14.849 -0.3368  0.1240 -0.3279
24374W        W42578  10.115  12.010   1.831  0.1656  0.0187  0.0058
24375W        W42579   8.255  15.676  12.711 -0.1691  0.0445 -0.1155
24376W        W42580  15.467   6.803   3.186  0.0801 -0.1141  0.1407
24377W        W42581   9.310  14.913  15.474 -0.0189 -0.1444 -0.0756
24378W        W42582   0.663  11.061  13.519 -0.1626  0.2208 -0.2039
24379W        W42583  11.289  16.140  15.435 -0.1734 -0.1912  0.0663
24380W        W42584  13.032   4.252   5.358 -0.0644  0.2910 -0.0290
24381W        W42585   0.887   8.166   5.357 -0.0579  0.1083  0.0686
24382W        W42586  15.799   7.469   3.313 -0.0476  0.2528 -0.0102
24383W        W42587  14.907  14.878  15.866 -0.1902 -0.2937 -0.0906
24384W        W42588  10.771  12.754  12.407 -0.0269  0.1931 -0.0652
24385W        W42589  15.327  11.801  16.441  0.2245  0.0227  0.1632
24386W        W42590   3.956   2.976   1.718 -0.0357 -0.2121 -0.1351
24387W        W42591  13.605   8.800  15.835 -0.0739  0.2648  0.1828
24388W        W42592  10.795  15.414   3.884  0.1587  0.0048  0.2542
24389W        W42593  14.159   3.774   0.777 -0.3407 -0.1263 -0.0938
24390W        W42594   5.377  16.583  15.360 -0.0055 -0.3738  0.0707
24391W        W42595   1.033  16.864  14.659  0.0373  0.2643  0.0192
24392W        W42596   3.113  16.369   2.304  0.2142 -0.1920 -0.1038
24393W        W42597  10.171  15.041   3.096  0.3232  0.1161 -0.1549
24394W        W42598  13.662   8.307   4.698  0.2851 -0.0781  0.2962
24395W        W42599  11.521   2.276   4.619 -0.0358  0.0376 -0.0417
24396W        W42600   5.448  12.494   2.841 -0.0478  0.0122 -0.1748
24397W        W42601   6.574  16.406  14.170  0.1770  0.1336  0.2069
24398W        W42602   5.190  14.530  12.482 -0.1768 -0.0733  0.2294
24399W        W42603   5.248  10.427  16.427  0.1095  0.2077 -0.1184
24400W        W42604  13.089  15.997  13.676 -0.2455  0.0222  0.1098
24401W        W42605   2.916   2.521   1.101 -0.4226 -0.0317  0.5573
24402W        W42606   0.840   0.693   3.465  0.1768  0.3554  0.1452
24403W        W42607  15.748   4.468   5.481  0.1750  0.0797 -0.0184
24404W        W42608   8.610  11.888  16.606 -0.1497 -0.0644  0.0289
24405W        W42609   0.733  10.478  14.513  0.0879  0.4068  0.0289
24406W        W42610  14.343  12.264  12.753  0.4358 -0.1524  0.3990
24407W        W42611   1.003   8.347   3.037  0.0419 -0.0933 -0.1466
24408W        W42612   3.572  16.607   1.606  0.0673  0.2308  0.1587
24409W        W42613  11.072   4.111  12.292  0.1396  0.2210  0.3246
24410W        W42614   3.914   6.733   2.188 -0.1203 -0.2191 -0.2170
24411W        W42615   3.952   8.770  17.281  0.0898  0.1954  0.0255
24412W        W42616  13.112   7.116   4.443 -0.2151  0.2266 -0.0363
24413W        W42617   6.653  15.534  13.868  0.1470 -0.1710 -0.1833
24414W        W42618   9.247   4.304   1.628  0.0151  0.0234 -0.0743
24415W        W42619   6.945  11.464  15.310  0.0750 -0.1004 -0.2255
24416W        W42620   7.780  10.036  13.359  0.1549 -0.0443  0.1696
24417W        W42621  16.554  15.911   2.398 -0.1880  0.0136 -0.1155
24418W        W42622   8.123  16.615   4.892  0.2202  0.0770 -0.0902
24419W        W42623  15.017  11.644   0.207 -0.0290 -0.3694 -0.0991
24420W        W42624  10.747   3.676   4.608 -0.2262 -0.4538 -0.1826
24421W        W42625  13.345   9.928  16.881 -0.2292  0.2865 -0.2133
24422W        W42626   8.922   9.887   0.362 -0.1632  0.1996  0.1755
24423W        W42627   1.198   3.217  13.053  0.0701 -0.1482 -0.1153
24424W        W42628  11.865  10.949  13.776  0.1708 -0.1826  0.0787
24425W        W42629   0.258   5.695  16.124  0.3900  0.0038  0.1847
24426W        W42630   1.731   0.575  15.533  0.0281  0.0816  0.0343
24427W        W42631   4.945  13.336  12.610  0.1916 -0.0970 -0.2076
24428W        W42632   9.195   5.956   2.473 -0.0519 -0.1586  0.1194
24429W        W42633   3.198   3.118  14.550  0.0239 -0.2787 -0.2562
24430W        W42634   6.729   6.432  13.705  0.0681 -0.4441  0.1258
24431W        W42635   5.798  14.296  14.898 -0.2386 -0.0217 -0.1704
24432W        W42636   8.887   7.297   3.704 -0.0125 -0.1288  0.0001
24433W        W42637  14.604   0.176  17.375  0.2606  0.0997  0.2170
24434W        W42638   0.105   6.323  13.694  0.0419  0.0654  0.3101
24435W        W42639   4.262  15.371  16.336 -0.0260 -0.0527  0.3724
24436W        W42640   8.561  12.313  12.376 -0.0481  0.0132  0.2585
24437W        W42641   7.369   1.905   4.140  0.0082  0.0879 -0.0766
24438W        W42642   2.662  11.547   0.150 -0.1312 -0.2824  0.0729
24439W        W42643   3.089  11.660  13.256  0.0236 -0.0661 -0.2158
24440W        W42644   1.472   7.770  16.112 -0.1491 -0.0732  0.0146
24441W        W42645   5.404   9.053  12.927 -0.4430  0.0809  0.1013
24442W        W42646   0.237   7.806  15.156  0.0237 -0.1372  0.2387
24443W        W42647   1.814  14.577  16.877 -0.2894  0.1279 -0.1261
24444W        W42648   0.913   7.187  17.250 -0.0414  0.0888  0.0489
24445W        W42649   9.697  12.318   5.107 -0.1940 -0.1394  0.1706
24446W        W42650  17.253  12.102  15.861 -0.0335  0.1500  0.1881
24447W        W42651   7.974   5.253  15.949 -0.0071 -0.1335  0.1256
24448W        W42652  11.601   0.717  15.169 -0.0545  0.1172 -0.2348
24449W        W42653   0.897  17.294   5.053 -0.1678  0.2241  0.2333
24450W        W42654   3.012   1.253   3.533  0.0277  0.1259 -0.2307
24451W        W42655   1.057   5.639   5.258 -0.0217  0.4279 -0.3299
24452W        W42656   3.885  15.019   6.519 -0.0237  0.1376 -0.1501
24453W        W42657  14.257  13.285   1.386  0.0004  0.0647 -0.3333
24454W        W42658   9.042  15.840  14.209  0.0060 -0.2377  0.0234
24455W        W42659   2.455   3.175   3.376 -0.2065 -0.0580 -0.1420
24456W        W42660  17.045   2.009   2.283  0.0584  0.1059 -0.2092
24457W        W42661  12.332  14.689  12.362 -0.2088  0.1607  0.0458
24458W        W42662   3.422   1.202  12.995  0.1774 -0.0829 -0.0328
24459W        W42663   6.119  16.105  17.437  0.1179  0.1269 -0.3863
24460W        W42664   2.071  14.965  16.383  0.0637 -0.1569 -0.2267
24461W        W42665   6.594  12.674  15.206  0.0105 -0.1904 -0.3723
24462W        W42666   4.179  10.571   2.906 -0.1858  0.0256 -0.0598
24463W        W42667   3.529  10.696   1.583 -0.1850  0.1538 -0.0297
24464W        W42668   2.868   9.773   2.140 -0.0179  0.1623  0.1138
24465W        W42669  13.089   5.905   1.630  0.1049 -0.1534 -0.4622
24466W        W42670   2.451   9.521   1.948 -0.0349 -0.2654 -0.0269
24467W        W42671  11.624   1.220   3.886  0.0099 -0.0646 -0.0832
24468W        W42672  12.282  15.734   3.435 -0.0522 -0.1175  0.1563
24469W        W42673   3.176  16.940  15.100  0.2694  0.0119  0.0916
24470W        W42674  11.471   4.971   4.195  0.0651  0.0889 -0.1348
24471W        W42675   2.225  12.990  15.674 -0.1586 -0.1136  0.1206
24472W        W42676  13.132   8.781  13.474 -0.1308 -0.0397 -0.0991
24473W        W42677   1.004   0.571  13.565  0.1387  0.1610  0.1837
24474W        W42678   9.361   0.237  12.707  0.0617  0.1204  0.0395
24475W        W42679   9.846   5.792   0.593 -0.4470 -0.4364  0.1320
24476W        W42680   7.514  15.534   4.048 -0.2104 -0.0187 -0.1845
24477W        W42681  15.483   6.495   0.221 -0.1235 -0.2051  0.0820
24478W        W42682  13.140  15.722   2.436  0.0749  0.2209  0.1699
24479W        W42683  15.056   4.980   3.062 -0.1550 -0.0536  0.0849
24480W        W42684   7.106  14.958   1.914 -0.0522  0.0554  0.0569
24481W        W42685   6.083   8.323  13.721 -0.1057 -0.1739  0.1694
24482W        W42686   7.124  17.266  16.520 -0.0401  0.2498 -0.0951
24483W        W42687   6.566  13.167   3.118 -0.0762  0.1795  0.0315
24484W        W42688   1.320   6.500  16.126  0.1218  0.0215 -0.3977
24485W        W42689   1.001  16.147   3.267 -0.1417 -0.0673  0.1230
24486W        W42690   2.820   8.205   2.073 -0.2101  0.0374  0.0566
24487W        W42691  10.918  15.113   5.433 -0.0739 -0.2162  0.1166
24488W        W42692  13.790   3.172   3.258 -0.0244  0.0918 -0.0321
24489W        W42693   5.252  14.411   1.827  0.2690  0.0989  0.3132
24490W        W42694   0.019   0.557   1.555 -0.0933 -0.0095  0.2534
24491W        W42695   2.023   5.299   1.999  0.0761  0.0944  0.1635
24492W        W42696   7.879   7.945   0.283 -0.0931  0.2626  0.0680
24493W        W42697  16.620  17.194  14.019  0.1922  0.1927  0.1582
24494W        W42698  13.874   7.860  12.878 -0.0719  0.1907 -0.2426
24495W        W42699  16.467  12.722  13.419 -0.0462  0.0153  0.0403
24496W        W42700   6.989   4.853  14.184  0.0459  0.2910 -0.0869
24497W        W42701   0.164   2.913  13.960 -0.1947 -0.1135 -0.1486
24498W        W42702   2.256   0.514  16.466 -0.0750 -0.3099 -0.0743
24499W        W42703  17.006   9.655  13.121 -0.2359  0.2339  0.0660
24500W        W42704   8.180   8.641  14.540  0.1202  0.1060  0.0361
24501W        W42705  17.078  14.788   5.515  0.0039  0.1171 -0.0439
24502W        W42706  10.275  16.033  16.478  0.0309  0.1034  0.0429
24503W        W42707   7.019   1.375   4.771 -0.2304  0.1727  0.3541
24504W        W42708   8.753  13.723   2.883 -0.0222 -0.1903  0.0403
24505W        W42709   9.571   5.755  12.817  0.1301 -0.0604  0.1484
24506W        W42710  14.139   8.770  13.133 -0.0186 -0.2215  0.3070
24507W        W42711   9.854   9.925   1.482  0.0805 -0.0703  0.0460
24508W        W42712   1.170   2.457  17.095 -0.1154  0.1904  0.2420
24509W        W42713  11.005  16.880   4.879  0.2530  0.1029 -0.1163
24510W        W42714  11.279  12.422  15.958  0.1012 -0.0562  0.1656
24511W        W42715   4.707  12.356   3.434  0.2158 -0.0284  0.3832
24512W        W42716  10.233  12.845   2.088  0.1308 -0.0286  0.4318
24513W        W42717  15.700   7.835   3.719 -0.1195 -0.0351  0.2650
24514W        W42718   9.299   4.109   4.147 -0.3269 -0.2353  0.1184
24515W        W42719   8.713  10.575   2.343  0.3466  0.4120 -0.0151
24516W        W42720   9.245   4.616   0.103 -0.1074  0.1648  0.2541
24517W        W42721  14.359   6.754   5.102 -0.0537 -0.0741  0.0013
24518W        W42722   4.621  13.962  16.872 -0.1397  0.0481  0.0022
24519W        W42723   0.911   4.241   4.651  0.0947  0.1607  0.1805
24520W        W42724   6.776   2.648  16.739  0.0441  0.0043  0.0003
24521W        W42725   8.643   7.791  17.503 -0.0017 -0.0393  0.1159
24522W        W42726  15.105   4.479  12.488  0.1755  0.1916 -0.2036
24523W        W42727   6.704   8.753  15.786 -0.0480 -0.1528  0.1435
24524W        W42728  10.563  15.176   4.227  0.0461  0.2186 -0.1778
24525W        W42729  14.764   9.411   2.638  0.0987 -0.2580  0.1146
24526W        W42730   5.427  13.471  12.559 -0.1182 -0.0223  0.2202
24527W        W42731  11.313   5.197   5.613 -0.0228 -0.0510 -0.0480
24528W        W42732   4.950  12.445  13.345  0.3021  0.1346  0.1489
24529W        W42733   4.563  12.819   3.256 -0.0855  0.1502  0.1097
24530W        W42734   7.737  15.278   0.113  0.2096 -0.1300  0.0415
24531W        W42735   2.893   4.244  12.598  0.0888 -0.0537  0.0593
24532W        W42736   3.775  10.904   4.884 -0.0294 -0.0209 -0.0396
24533W        W42737  10.779  13.060   4.950 -0.0929  0.1513  0.1787
24534W        W42738   0.551  10.477  14.036 -0.3253 -0.0920  0.0635
24535W        W42739   9.420  11.601   3.809  0.2316 -0.3058  0.1388
24536W        W42740   7.653  15.201   1.218 -0.0679 -0.0402  0.1221
24537W        W42741  12.785   2.795   0.987 -0.1951 -0.1555 -0.0004
24538W        W42742   6.646   7.841   1.686 -0.1701 -0.0166 -0.2006
24539W        W42743   6.807   0.561  11.882 -0.2282  0.0280 -0.1809
24540W        W42744  12.340  10.366   2.924 -0.2880  0.2317  0.1863
24541W        W42745   7.551  12.873   3.844  0.2425 -0.0505 -0.1726
24542W        W42746   0.898  10.249  13.135 -0.4148  0.3612  0.1538
24543W        W42747   9.399  12.481  13.630 -0.0046  0.1149 -0.0501
24544W        W42748  15.472   6.964  16.725 -0.1264 -0.0298  0.0190
24545W        W42749  11.495   8.448   5.487 -0.2566 -0.0948  0.0942
24546W        W42750   7.399   8.873   0.222 -0.0015 -0.2202 -0.1378
24547W        W42751   0.638  12.140  15.090  0.1588  0.2636 -0.1650
24548W        W42752  10.667  13.110   2.072  0.3719  0.2542 -0.2496
24549W        W42753   5.785  13.727  13.789  0.0264 -0.1504  0.1660
24550W        W42754  11.847   9.603   2.801 -0.1909  0.1401 -0.2502
24551W        W42755  11.744   5.787  12.229 -0.1294  0.0865  0.0885
24552W        W42756   2.830  11.385   1.540  0.1938 -0.0553 -0.1238
24553W        W42757  14.704   4.408  16.445  0.1763 -0.2264  0.3085
24554W        W42758  16.510   9.819   2.157 -0.0081 -0.0792  0.1167
24555W        W42759   8.403  17.098   2.489  0.0018  0.0733 -0.2299
24556W        W42760  16.370  13.127  14.407 -0.2241 -0.1031  0.1188
24557W        W42761   7.554  15.181   4.387  0.0633  0.3471 -0.0249
24558W        W42762   2.949   3.429  13.107 -0.2131 -0.0891 -0.1655
24559W        W42763   2.282   9.235  13.909  0.1251 -0.0901  0.0340
24560W        W42764   8.337   0.904   4.877 -0.1543 -0.1418 -0.4036
24561W        W42765   7.232   6.119  14.592  0.1353  0.4082  0.2659
24562W        W42766  10.526  10.656   2.899 -0.2107  0.1107 -0.0059
24563W        W42767  15.057   3.570  14.394  0.0276 -0.0207 -0.2085
24564W        W42768   5.268  12.633  12.178 -0.0123  0.2117 -0.0822
24565W        W42769   1.145   8.104   4.852 -0.0382  0.2290 -0.0449
24566W        W42770   2.267  13.628  16.008 -0.1777 -0.0635  0.2218
24567W        W42771  15.166   8.926  13.653  0.1066  0.1005  0.1159
24568W        W42772   5.735  12.680   4.545  0.0285  0.4324  0.1272
24569W        W42773  10.821  11.593   2.807 -0.4372 -0.0586 -0.0517
24570W        W42774   2.932   5.445  13.320  0.1378  0.0878  0.5910
24571W        W42775   3.121  15.568  13.796  0.1871 -0.4657 -0.1520
24572W        W42776   1.480  16.674   5.733  0.0244  0.0890  0.0377
24573W        W42777   2.350  12.955   4.739  0.0584  0.1109  0.1486
24574W        W42778  15.541   4.245  13.350 -0.2818 -0.1748  0.1167
24575W        W42779  11.811   2.249   0.364 -0.0923 -0.0094  0.0422
24576W        W42780   3.843   0.658  17.474  0.1053 -0.0581 -0.1061
24577W        W42781  15.169   9.901  14.397  0.1493  0.1623 -0.1871
24578W        W42782  14.527   1.736   1.857 -0.3047  0.2903  0.1470
24579W        W42783  15.019   3.923  11.687  0.2200 -0.2788 -0.2882
24580W        W42784   1.671   7.055  12.462  0.0368  0.0377  0.0681
24581W        W42785   7.198  13.263  13.459  0.0038  0.0319  0.1225
24582W        W42786  12.590  13.880  13.063 -0.1836 -0.0873  0.0411
24583W        W42787   8.416  10.609  16.109  0.2244  0.1875 -0.1130
24584W        W42788   0.959   8.337  15.446 -0.0021 -0.2325 -0.1419
24585W        W42789   8.237  12.549  14.501 -0.3854 -0.0898 -0.0707
24586W        W42790  13.880   3.647   3.062  0.1167  0.1365  0.0119
24587W        W42791  15.885  13.426   4.123  0.0500 -0.3683 -0.1387
24588W        W42792   5.318   4.069  13.349 -0.0811 -0.0860 -0.1025
24589W        W42793   1.016  13.285   4.039  0.0757 -0.2531 -0.0204
24590W        W42794   9.861  12.265   1.481 -0.0608  0.0760  0.0447
24591W        W42795   4.142  17.018  15.984 -0.1398  0.0364 -0.2497
24592W        W42796  12.602   6.893  13.285  0.1863 -0.1831 -0.0282
24593W        W42797  10.396  10.703  14.188 -0.3404  0.0293 -0.3950
24594W        W42798   4.604   9.235  14.187 -0.1499  0.0915  0.0244
24595W        W42799   8.485  12.884   4.265 -0.0174 -0.1852  0.2393
24596W        W42800   8.362  13.469   3.114  0.1642 -0.2298 -0.0156
24597W        W42801   3.417  10.166  15.968  0.2981  0.0670 -0.0313
24598W        W42802   0.224  15.127   4.454  0.0136  0.1101  0.2399
24599W        W42803   9.551  15.226   2.349  0.1014  0.2038 -0.1036
24600W        W42804  15.252  12.316  16.396  0.2441 -0.3426 -0.1996
24601W        W42805   1.814  11.875   3.146 -0.1082  0.1857 -0.1449
24602W        W42806  14.581   8.085  17.106 -0.2050 -0.0170 -0.0911
24603W        W42807  11.984   1.375   2.716  0.0169  0.1701  0.4689
24604W        W42808  11.359   7.138   4.122  0.0963  0.1010  0.1411
24605W        W42809   5.337  16.984   3.253  0.1587  0.0877  0.1216
24606W        W42810  12.302  10.930  12.883  0.3335 -0.2168  0.0698
24607W        W42811  11.204  10.323   2.724 -0.2093  0.3586 -0.2523
24608W        W42812  11.265   4.480   3.110 -0.0704  0.3074 -0.0883
24609W        W42813   4.490  15.374   2.791  0.0522 -0.0287 -0.0577
24610W        W42814   2.633  11.826   1.612  0.0788 -0.0570 -0.0218
24611W        W42815  12.386   7.908   3.617  0.2442 -0.1634 -0.0368
24612W        W42816   9.735  12.593  15.356  0.0427 -0.0837  0.1236
24613W        W42817   5.562  16.514   4.682  0.3361 -0.1351  0.1001
24614W        W42818   8.334   0.109  16.025 -0.0564 -0.2093 -0.1203
24615W        W42819   5.059  16.887  13.937  0.1989  0.2434  0.0712
24616W        W42820   3.699   3.962  14.038 -0.0206 -0.0268  0.1857
24617W        W42821   3.677   3.479  15.919  0.1944  0.3185 -0.1686
24618W        W42822  15.115   9.232  12.554 -0.2922  0.0954 -0.0887
24619W        W42823   2.503  13.423  14.998 -0.2678 -0.2501 -0.1328
24620W        W42824  15.130  16.915  14.262  0.1759  0.2547  0.4495
24621W        W42825   1.008  17.333  11.377 -0.0143  0.0028  0.0102
24622W        W42826   6.160  10.900   1.837 -0.0042 -0.0561 -0.2690
24623W        W42827  12.354  11.314   1.933  0.3031  0.0117 -0.0969
24624W        W42828   1.464  10.174   0.511  0.1136 -0.3803 -0.0260
24625W        W42829  15.834   6.152  13.021  0.0461 -0.0125  0.0219
24626W        W42830   4.647  17.016   3.770 -0.0367 -0.0418  0.0138
24627W        W42831   5.019  12.257   4.301 -0.0086  0.2070 -0.3010
24628W        W42832  13.087  14.501  17.453  0.4094  0.2214  0.4175
24629W        W42833   8.391   6.412   1.112 -0.2112  0.0890  0.1059
24630W        W42834   0.196  16.454  16.364 -0.2364 -0.2095  0.2440
24631W        W42835   8.893  16.812  12.815  0.2231  0.0006 -0.3332
24632W        W42836   1.696   8.164  15.888  0.0039  0.0445  0.2059
24633W        W42837   9.210   6.385  12.437  0.4437 -0.0362  0.1050
24634W        W42838   8.975   7.147   2.132 -0.2927  0.1029 -0.0682
24635W        W42839   6.492  14.347   0.341  0.4392 -0.0985  0.1162
24636W        W42840  12.842  15.100  13.075  0.4362  0.1438 -0.0358
24637W        W42841   8.511   7.549  12.320  0.0452 -0.1053  0.2567
24638W        W42842   8.108   1.583   3.214 -0.2459 -0.0196  0.0950
24639W        W42843   0.340  11.313  13.215 -0.0485  0.2786  0.0159
24640W        W42844  15.779   6.047   0.306 -0.0255  0.4489 -0.2185
24641W        W42845   9.380   9.556  16.555  0.1250  0.3971 -0.0160
24642W        W42846   6.164   1.228  14.874 -0.0843 -0.1363  0.2139
24643W        W42847   6.124   5.304  15.464  0.2049 -0.1484  0.1735
24644W        W42848  13.047   4.128   1.688 -0.2359 -0.0539  0.0945
24645W        W42849  13.608   3.676   5.568 -0.1313 -0.2694 -0.3770
24646W        W42850   4.910   8.757  14.929 -0.2335 -0.0736  0.2453
24647W        W42851   3.381   3.423  13.461 -0.1279 -0.4283 -0.1403
24648W        W42852   1.834  10.618   3.141  0.0395  0.2092 -0.0432
24649W        W42853  14.110  16.988   4.425 -0.1762 -0.1218 -0.0885
24650W        W42854   6.110  12.557   3.802  0.0159  0.1032  0.1858
24651W        W42855  13.413   7.869  12.993  0.0098 -0.3003  0.0466
24652W        W42856   5.604  15.928  13.052 -0.0727 -0.1288 -0.1790
24653W        W42857  10.510   1.225   1.333 -0.0590 -0.0269 -0.1594
24654W        W42858   3.125  16.812   1.435  0.1159 -0.0477  0.2586
24655W        W42859  15.957   0.006   1.655 -0.4497 -0.0220  0.0606
24656W        W42860   2.930   0.395   4.006 -0.2169  0.0122 -0.3275
24657W        W42861   3.989   7.118  12.034 -0.2299  0.0868  0.1588
24658W        W42862   1.288   9.237   1.027 -0.3011  0.1202 -0.1039
24659W        W42863  14.689  16.599  16.659  0.1791  0.0735  0.3536
24660W        W42864   5.234   4.004   2.661 -0.1165  0.0301  0.0433
24661W        W42865   9.119   4.477  15.374  0.2518 -0.0491 -0.0116
24662W        W42866   2.686  16.145   1.384  0.1061 -0.1724  0.1291
24663W        W42867  12.350  14.867   4.113  0.1028  0.0813  0.0974
24664W        W42868  11.870  13.662   5.250 -0.0143 -0.0234  0.0887
24665W        W42869  15.663   8.511  12.611 -0.0431  0.1942  0.1644
24666W        W42870   3.643   3.255  14.692 -0.0095  0.0000 -0.0091
24667W        W42871   8.058   8.649   5.573  0.1815 -0.3469 -0.0815
24668W        W42872   3.955   8.182   4.144  0.3990 -0.0270  0.0902
24669W        W42873  10.628   1.864  14.172  0.1043 -0.0172  0.1757
24670W        W42874   9.103  14.384   4.853 -0.0740 -0.0468 -0.0175
24671W        W42875   3.433   8.242  15.682 -0.4308  0.2881 -0.0671
24672W        W42876   0.937   5.455  13.087  0.2857 -0.3419 -0.2432
24673W        W42877  16.885   0.966   0.394  0.1411 -0.4563 -0.1271
24674W        W42878   3.966   3.234   2.222  0.0601  0.1463 -0.0234
24675W        W42879   3.139  10.733   3.637  0.2281  0.4098 -0.2687
24676W        W42880  16.261  16.907  12.786  0.1913 -0.0463  0.0756
24677W        W42881  10.982  16.464  12.224 -0.2114 -0.0628 -0.1752
24678W        W42882   1.367   2.570   1.432 -0.0451 -0.0585  0.3821
24679W        W42883   2.715  15.536   2.340 -0.0095 -0.0383 -0.1711
24680W        W42884   3.129   0.550   1.172  0.1709 -0.3052  0.1787
24681W        W42885  14.836   7.258   0.923 -0.2721  0.0376  0.1523
24682W        W42886   4.308  17.115  12.192  0.0877  0.1263  0.0510
24683W        W42887  12.644   7.785  17.454 -0.1214 -0.0046 -0.2226
24684W        W42888   2.960   9.531   2.609  0.0487  0.0512  0.1395
24685W        W42889   1.156  11.067  12.801  0.1629  0.0659 -0.1795
24686W        W42890   0.139  10.200   3.701  0.2662 -0.0039  0.1873
24687W        W42891   8.805  15.562   4.384 -0.2756 -0.1420 -0.1170
24688W        W42892   3.917   5.775  13.063 -0.2046  0.0418 -0.1497
24689W        W42893   5.614  16.783  13.963  0.1127 -0.1572  0.0636
24690W        W42894  11.682   7.126   3.745  0.0723  0.0154  0.0838
24691W        W42895  10.279  14.334  15.905 -0.1090 -0.0082 -0.0267
24692W        W42896   6.568   0.136  17.232  0.0926 -0.2037 -0.0082
24693W        W42897   9.601  12.911   0.398 -0.2593  0.3272 -0.0246
24694W        W42898   5.660   8.977  13.386  0.0257  0.0446 -0.0012
24695W        W42899  15.273   2.825  13.641 -0.1343  0.1894  0.3166
24696W        W42900   8.619  11.561   4.431 -0.0413  0.2381  0.4371
24697W        W42901   3.783  12.885  13.867 -0.2131  0.1228  0.3876
24698W        W42902  15.651   7.016  15.891  0.0755 -0.2295 -0.2720
24699W        W42903  15.120  12.792  16.383  0.1632 -0.2571 -0.0367
24700W        W42904   5.896  16.685   5.457  0.0355 -0.0976 -0.1119
24701W        W42905   7.754   0.403   0.940 -0.1693  0.2251  0.3427
24702W        W42906   0.555   7.627   0.299  0.1095  0.2228  0.1317
24703W        W42907  16.373   0.318   1.729  0.1752 -0.0719  0.1519
24704W        W42908  10.159   3.672  13.082  0.2909  0.1926 -0.0924
24705W        W42909   2.474   4.614   3.564 -0.1212  0.4027 -0.0287
24706W        W42910   8.997   3.939   4.554  0.0761  0.2190 -0.0069
24707W        W42911   1.503  15.749  16.816  0.1366  0.2014  0.0571
24708W        W42912  15.691   5.251  13.023 -0.1649  0.2631 -0.2201
24709W        W42913  16.333   7.931  12.797 -0.0038  0.4267 -0.0725
24710W        W42914   6.055  11.825   2.864  0.0175 -0.0037  0.2512
24711W        W42915   0.882  16.264   3.806  0.0591  0.1755 -0.1802
24712W        W42916  11.471  15.028  15.656 -0.1150 -0.0517  0.1081
24713W        W42917   6.139   7.001   0.317 -0.1056 -0.2415  0.4580
24714W        W42918  14.895   7.739  16.619  0.3331  0.2251  0.3033
24715W        W42919   2.721  13.142   1.681 -0.0837  0.0232  0.4230
24716W        W42920   1.122  11.547  14.774 -0.2969 -0.1712 -0.0725
24717W        W42921  10.006  12.016   4.828 -0.0982 -0.0900  0.1937
24718W        W42922   8.826  17.220  15.952  0.0616  0.0105 -0.0951
24719W        W42923  15.267   8.262   3.019  0.0536 -0.0246  0.1722
24720W        W42924   8.309   8.468  16.920  0.0815  0.1674 -0.0017
24721W        W42925   6.478   4.131  12.395  0.1037  0.0782  0.0446
24722W        W42926   5.889   8.934  12.547  0.1353  0.0552 -0.1381
24723W        W42927   4.608   2.998  15.983 -0.3534  0.3102 -0.1715
24724W        W42928   1.176  16.010  15.787  0.0594  0.1065  0.0681
24725W        W42929  12.042   5.487  12.517 -0.1498  0.0432 -0.0997
24726W        W42930  15.003   7.427  16.174 -0.3123  0.1477 -0.1455
24727W        W42931  11.126   3.779   5.347  0.0085 -0.0709  0.3950
24728W        W42932  15.168   6.002   0.991  0.0144  0.1765  0.0660
24729W        W42933  13.218   6.441  14.359  0.0988 -0.0293 -0.2702
24730W        W42934   0.870   7.919   2.710  0.1433  0.1386 -0.1457
24731W        W42935  13.588   9.460  12.844 -0.0949 -0.0788  0.2836
24732W        W42936  15.790  16.154   3.373 -0.0307  0.0088  0.0710
24733W        W42937   2.323  12.217  16.220  0.1079 -0.3147  0.1260
24734W        W42938   6.317  11.252   1.315  0.0354  0.2371 -0.1226
24735W        W42939   2.032  10.981  12.659  0.2126 -0.0400 -0.1975
24736W        W42940   1.920  14.829  17.309 -0.3342  0.2695  0.0566
24737W        W42941   3.909  17.005  13.215 -0.2065 -0.0187  0.0029
24738W        W42942  17.029  17.064  13.030  0.0653 -0.2782  0.1566
24739W        W42943   0.195   3.871   2.602 -0.0660 -0.0221  0.1918
24740W        W42944   2.337  10.546  11.520 -0.2431 -0.1255  0.2015
24741W        W42945  14.306  11.528   5.094 -0.1445 -0.4240  0.1448
24742W        W42946  16.844  15.658   0.131  0.0768 -0.0679  0.1360
24743W        W42947   8.993   0.241  13.531 -0.2586 -0.0156 -0.1421
24744W        W42948  13.383   8.422   4.161 -0.1846  0.1057  0.0397
24745W        W42949   2.089   3.304   0.936  0.0203 -0.1112  0.0838
24746W        W42950   9.271  16.325  13.874  0.0354 -0.1334 -0.1716
24747W        W42951   8.477   2.990   1.871 -0.2852 -0.2555  0.0617
24748W        W42952   8.822  15.019  14.795 -0.1215  0.1865  0.0513
24749W        W42953   2.393  15.552   4.054  0.0768 -0.1157 -0.0493
24750W        W42954  10.451   1.875  17.280  0.0405 -0.1745 -0.1289
24751W        W42955  13.024   4.951   0.048  0.2795 -0.1572 -0.1291
24752W        W42956   7.004  15.033   0.244 -0.0608  0.0310 -0.3790
24753W        W42957  14.705   7.907  16.163  0.0256 -0.1022  0.2803
24754W        W42958  16.374   2.112  12.981 -0.1495 -0.3837 -0.0155
24755W        W42959   4.789  14.864  15.428  0.1169 -0.0533  0.0411
24756W        W42960   3.115  12.248  14.216  0.0190 -0.0624 -0.1335
24757W        W42961   1.118   0.519  15.031 -0.0291  0.1464  0.2845
24758W        W42962   0.087  13.553  13.120 -0.0921  0.0234 -0.0078
24759W        W42963   5.951  10.656   4.169  0.1375  0.0150 -0.2126
24760W        W42964  10.452  11.381   3.649  0.1017 -0.1688  0.2637
24761W        W42965   3.220   3.205  16.169 -0.4678 -0.1877 -0.2038
24762W        W42966   7.727  17.180   4.340 -0.1464 -0.2159  0.2326
24763W        W42967  14.303   3.735  11.930  0.0822 -0.1119  0.1687
24764W        W42968  10.934   7.572   3.635  0.2958 -0.1671 -0.0199
24765W        W42969  15.692  15.156  14.856  0.1016  0.4156  0.3303
24766W        W42970  12.568   2.732   4.533  0.0310 -0.3049 -0.1730
24767W        W42971  13.444  10.075  15.557 -0.0533  0.0844 -0.0614
24768W        W42972   1.110  10.883   4.791 -0.0649  0.3729  0.0114
24769W        W42973  14.144   0.115  13.494 -0.0052 -0.0392 -0.2183
24770W        W42974  15.223  15.221  14.936 -0.4632  0.1368  0.1920
24771W        W42975   1.017   6.255   0.574 -0.2133 -0.1380 -0.2755
24772W        W42976   7.128   7.637   1.715 -0.0387 -0.1659 -0.4332
24773W        W42977   5.578   6.180  13.690 -0.2077 -0.2677 -0.0128
24774W        W42978   6.063   5.432  14.922 -0.1210 -0.0580 -0.1402
24775W        W42979   7.045   2.595   3.280  0.0227  0.2088 -0.3553
24776W        W42980   1.112  10.521   0.128  0.2037 -0.1559  0.2388
24777W        W42981  11.321   5.835   1.851 -0.0495  0.1383  0.0589
24778W        W42982  13.370  13.770  15.316  0.0080 -0.0347 -0.1694
24779W        W42983  13.349  13.911   3.705  0.0723 -0.3178  0.0598
24780W        W42984  15.784   7.405  14.519 -0.0349 -0.0100  0.2231
24781W        W42985   0.076   8.631   0.183  0.0257  0.0160 -0.1698
24782W        W42986  16.084   9.010   0.227  0.1416  0.2170 -0.0972
24783W        W42987  16.179   2.791  15.250 -0.1671 -0.3011 -0.1948
24784W        W42988   4.261  11.292   0.445  0.0372 -0.1507  0.1558
24785W        W42989   7.500   1.907   3.603 -0.1092 -0.1067  0.3574
24786W        W42990  16.461  11.100  14.855  0.2190 -0.3201  0.1612
24787W        W42991   3.961  14.219  12.441  0.1794 -0.0100  0.0310
24788W        W42992   2.541   4.420   2.033  0.1980 -0.0993 -0.3351
24789W        W42993  15.829   3.365   4.287  0.3472  0.1793  0.0638
24790W        W42994   8.678  11.007  15.174 -0.1521 -0.2779 -0.0081
24791W        W42995   6.519  14.726   2.042  0.0001  0.1286 -0.0879
24792W        W42996  14.100  16.737   2.420  0.0002  0.0732  0.1267
24793W        W42997   5.092   7.312  16.605  0.0701  0.1564  0.1082
24794W        W42998   3.758   8.517   1.389 -0.0200  0.5859 -0.1758
24795W        W42999   5.506   0.024   2.409  0.1958 -0.2353 -0.1498
24796W        W43000  13.807   9.985   4.156 -0.1524  0.1035 -0.1853
24797W        W43001   9.903   8.785   3.655  0.0372 -0.1921 -0.0502
24798W        W43002   7.317   9.768   4.682 -0.0799 -0.4207 -0.3841
24799W        W43003  12.750   8.449  12.058  0.0891  0.0051 -0.1204
24800W        W43004   0.792  14.527  15.259  0.0904  0.0270  0.1799
24801W        W43005   2.803   1.527   5.351 -0.0060 -0.0292  0.1767
24802W        W43006  12.158  15.532  12.883  0.0570 -0.2912  0.0693
24803W        W43007  16.037   8.006   1.988 -0.1394  0.0427  0.3261
24804W        W43008   1.970   5.567   5.038  0.0511  0.2966 -0.1426
24805W        W43009   1.507  12.166   5.193  0.1054 -0.1311 -0.2859
24806W        W43010   4.264   2.378   1.029 -0.0252  0.1185  0.0258
24807W        W43011   3.618  12.623   0.833  0.0799 -0.1504 -0.1047
24808W        W43012   6.209  11.207  14.219 -0.1556 -0.0533  0.0186
24809W        W43013   0.927  12.201   2.308  0.4283 -0.1761  0.1201
24810W        W43014   2.906  11.055  15.106  0.3607  0.0599 -0.1215
24811W        W43015  11.340   5.452   0.323 -0.1195  0.1221  0.1683
24812W        W43016  17.003  15.175   2.838  0.1625  0.0344 -0.1404
24813W        W43017   7.422   7.867  17.052  0.2540  0.2081 -0.0577
24814W        W43018  15.245   3.928  17.503  0.0796  0.3684 -0.0341
24815W        W43019   5.519   2.666   0.494  0.1581  0.0765 -0.2654
24816W        W43020  15.464   6.164   1.861  0.1232  0.1001  0.2903
24817W        W43021   6.015   6.853   4.616  0.0217 -0.2882 -0.0708
24818W        W43022   8.673  11.670   3.185  0.1208  0.0293 -0.1448
24819W        W43023   0.047   2.659   5.345 -0.4081 -0.0498  0.2750
24820W        W43024  16.881   9.512  15.014  0.0709 -0.3530 -0.1432
24821W        W43025   7.067   3.554  15.749  0.2594 -0.0113 -0.0696
24822W        W43026  13.970   1.554  16.019  0.1777  0.1661  0.2031
24823W        W43027   8.755   8.826  12.320 -0.2618 -0.1095 -0.0144
24824W        W43028  16.952  11.704   0.242  0.1149  0.0843 -0.1133
24825W        W43029  12.028  13.634   3.414 -0.2810  0.2779  0.2657
24826W        W43030   0.602  10.222   4.539  0.0454  0.0939 -0.0281
24827W        W43031   4.514  12.711  16.026  0.1721  0.0068  0.2454
24828W        W43032  10.672  14.403  17.129  0.1031 -0.0321 -0.1510
24829W        W43033   8.595   7.710  16.558  0.1171  0.0996 -0.1259
24830W        W43034   4.474  11.354  14.754 -0.0214  0.2147 -0.2567
24831W        W43035   0.950   7.531  16.536 -0.0498 -0.0653 -0.1774
24832W        W43036  13.146   4.977   5.003  0.0693  0.0283  0.1750
24833W        W43037   6.726  10.456   1.389  0.1943  0.1042 -0.1684
24834W        W43038  14.739   0.360   2.031 -0.4462 -0.2500 -0.2336
24835W        W43039   7.594   1.135  16.704 -0.3981 -0.0739  0.2718
24836W        W43040   0.120   5.208  12.982  0.1251  0.4865 -0.0144
24837W        W43041   2.189   7.251   2.269 -0.0677 -0.1453 -0.1073
24838W        W43042   2.113  14.819   0.288  0.2027 -0.1981  0.0159
24839W        W43043  13.843   0.448   0.208  0.2787 -0.1053  0.4553
24840W        W43044   4.625   3.868  13.658  0.2274 -0.1149  0.2924
24841W        W43045  12.627   3.449   1.537 -0.1686 -0.3076  0.1854
24842W        W43046  15.418  15.252  14.472 -0.1676 -0.1305  0.1957
24843W        W43047   3.373  12.744   0.416  0.2874 -0.2178 -0.3067
24844W        W43048  16.777   9.989   3.016  0.0191 -0.3060  0.0620
24845W        W43049  16.311   0.713   5.707  0.1394 -0.4030 -0.2290
24846W        W43050   7.417   6.980   3.714 -0.1684 -0.2465  0.1251
24847W        W43051  15.812   7.913  16.025 -0.1172 -0.1119 -0.1375
24848W        W43052  11.009   7.825  14.314  0.0763  0.1075  0.0320
24849W        W43053  10.467   5.441   4.570 -0.3082  0.1466 -0.1469
24850W        W43054   2.312  14.955   1.487  0.1700 -0.0264 -0.1358
24851W        W43055   7.431   9.871  14.144  0.1795  0.0944  0.1070
24852W        W43056  11.024   1.272   1.368 -0.0149  0.0826  0.0473
24853W        W43057   6.087   0.437  12.441 -0.3366 -0.0859 -0.0950
24854W        W43058   6.860  16.377   1.246  0.1336 -0.1517  0.1567
24855W        W43059  13.665   7.135  15.888 -0.0250 -0.0244 -0.1011
24856W        W43060   6.634   6.025   4.755  0.0700 -0.0477 -0.0769
24857W        W43061   3.906  11.440   3.229  0.1485 -0.0772 -0.2026
24858W        W43062   3.576   1.741  14.709  0.4253  0.0821 -0.1402
24859W        W43063   1.736  11.854   2.051  0.3263 -0.0038 -0.2716
24860W        W43064  13.010  12.876  12.805 -0.1218  0.0079  0.2899
24861W        W43065   7.082  14.173   3.187  0.2345  0.0489  0.2534
24862W        W43066  13.737  15.456  13.044  0.0738  0.0680 -0.0744
24863W        W43067  12.618   4.504  17.090 -0.2089 -0.3760  0.2584
24864W        W43068   4.195  11.464   4.126 -0.3300 -0.2162  0.0499
24865W        W43069   9.877   7.853   0.453 -0.2453 -0.0541  0.0835
24866W        W43070   7.235   8.689  16.938  0.0354  0.1203  0.2034
24867W        W43071  12.482  17.289  17.224 -0.2276  0.0662  0.0355
24868W        W43072   8.221  15.115  16.597 -0.0164 -0.2330 -0.0577
24869W        W43073  11.542   2.330  12.209  0.0670  0.1394 -0.1484
24870W        W43074   8.521  10.366   2.859  0.1408  0.1780  0.2521
24871W        W43075   4.496   6.901   2.429  0.2122 -0.4008 -0.0583
24872W        W43076   2.563  16.699  16.968  0.0030  0.1976 -0.0177
24873W        W43077   8.629   5.106  13.333 -0.1063 -0.1232  0.0212
24874W        W43078   5.509  14.037   1.071 -0.4640 -0.1241 -0.2080
24875W        W43079   5.395   4.167  14.723  0.0571  0.0876 -0.4081
24876W        W43080  10.261   2.511   4.216 -0.2760 -0.0530  0.5015
24877W        W43081  11.882   9.011   2.081 -0.3424  0.2868  0.1009
24878W        W43082  16.787   5.438  11.601 -0.0825 -0.0993  0.0843
24879W        W43083  15.954  12.441   3.421 -0.0516  0.0772 -0.3398
24880W        W43084  10.972   4.728   2.347  0.1618 -0.1427  0.0919
24881W        W43085   0.030   4.894  12.186  0.0538 -0.2452 -0.2314
24882W        W43086   5.443  13.132   4.197 -0.1385 -0.0619  0.0162
24883W        W43087   3.848   2.457  16.386  0.2007 -0.2077  0.1753
24884W        W43088   5.477  16.777   4.179 -0.0269  0.1004  0.0976
24885W        W43089   7.566   6.509  14.415  0.1708 -0.1624  0.0374
24886W        W43090  15.251  15.938   2.065  0.2367 -0.3647 -0.0938
24887W        W43091  12.237  12.081  16.023 -0.0764 -0.0256  0.1000
24888W        W43092   5.391  11.536  16.662  0.0051 -0.0145  0.0823
24889W        W43093  11.887   5.139  12.817 -0.1048 -0.1051 -0.1576
24890W        W43094  12.971   4.586  13.940 -0.1573  0.1085 -0.3196
24891W        W43095   6.984   0.868   1.896 -0.1035  0.0513 -0.3589
24892W        W43096  10.964  12.598   3.826  0.0953 -0.2240 -0.1926
24893W        W43097   7.020   0.643  12.769 -0.0944 -0.0264 -0.0195
24894W        W43098  14.247   4.228   2.577  0.0982  0.3301 -0.0491
24895W        W43099   7.226  14.789  13.485 -0.0339  0.1360 -0.2638
24896W        W43100  14.582   2.709   1.931 -0.1085  0.0031 -0.1980
24897W        W43101   6.048   5.722   1.478  0.3458 -0.0845  0.1712
24898W        W43102  13.933   1.797   0.398 -0.0870  0.1716 -0.1269
24899W        W43103  14.407   4.871   2.644 -0.4519 -0.0305  0.0126
24900W        W43104  12.010   8.869  16.411 -0.0283 -0.1476 -0.1969
24901W        W43105   6.192  16.889  13.847 -0.0376 -0.0169 -0.1099
24902W        W43106   5.748  12.933   2.828  0.0259 -0.1476 -0.3365
24903W        W43107   6.726   7.574  14.062 -0.1861 -0.0115  0.1201
24904W        W43108   0.374   7.353  15.442  0.1198  0.1762  0.0774
24905W        W43109  13.207  13.982  17.345  0.0721 -0.1513  0.4346
24906W        W43110   5.270   6.413  11.540 -0.0287  0.2656  0.0189
24907W        W43111   5.095   3.181   1.181 -0.1966  0.1944 -0.0944
24908W        W43112   4.453  13.376  16.705 -0.0224  0.3503  0.1354
24909W        W43113  13.195   8.874  15.111 -0.0456  0.1260 -0.0826
24910W        W43114  16.151   4.630  13.500 -0.4348  0.1481 -0.0829
24911W        W43115   4.054  16.362  16.848 -0.1472  0.0235 -0.0645
24912W        W43116  13.422   8.237  13.344  0.0888 -0.0622  0.2037
24913W        W43117   3.062  10.793   4.206 -0.1164  0.1297  0.1238
24914W        W43118  11.865   9.376  13.606 -0.3134  0.1046 -0.2639
24915W        W43119  11.229   2.418   5.015  0.1448  0.0978  0.1026
24916W        W43120   0.459   6.636  16.059 -0.1057  0.0863  0.0161
24917W        W43121   4.470   1.598   0.703 -0.0296 -0.0282  0.1114
24918W        W43122  13.774   7.117  13.331 -0.3246  0.0580 -0.0098
24919W        W43123   0.514  14.042  13.782  0.2088  0.1601  0.2375
24920W        W43124   8.857   0.427  17.216 -0.1603 -0.0634  0.1060
24921W        W43125  12.588  12.039   4.315  0.0515  0.2921 -0.1240
24922W        W43126   9.297  17.211  16.848  0.1243  0.0757  0.1512
24923W        W43127   6.915  15.739  15.307  0.1707 -0.0243 -0.1063
24924W        W43128  10.742   1.643  14.607 -0.5478 -0.0057  0.3246
24925W        W43129  14.192  16.574  15.719 -0.0455  0.0389  0.1278
24926W        W43130   7.800  16.636  17.448  0.0097 -0.2466  0.0611
24927W        W43131   5.146   4.529   0.804  0.0229 -0.2885  0.0871
24928W        W43132   9.158  16.104   1.796 -0.1085  0.1111 -0.2373
24929W        W43133  15.874  16.905   4.060  0.1191  0.1255  0.3244
24930W        W43134  16.310   3.031  12.708  0.3172  0.3677 -0.1925
24931W        W43135  13.916   8.745   2.369  0.0462  0.1416  0.1045
24932W        W43136   4.335   2.484  16.633  0.0074  0.0570 -0.1327
24933W        W43137   8.948  11.716  15.449  0.0618 -0.1095  0.0946
24934W        W43138   0.504  11.193   4.264 -0.0714  0.0917 -0.0755
24935W        W43139   8.805   0.995  17.095  0.0273 -0.4251  0.1531
24936W        W43140  12.320   6.545   2.779 -0.1765 -0.0882 -0.2602
24937W        W43141   4.400   4.794  14.141  0.1684 -0.2807  0.1369
24938W        W43142   6.370  11.448  13.803  0.0035  0.3462  0.1269
24939W        W43143  16.590   0.819  16.275 -0.1564  0.4887 -0.2536
24940W        W43144   9.976   3.815  12.592 -0.0021  0.1872 -0.0276
24941W        W43145   5.225   7.155  14.267  0.0974 -0.0364  0.0256
24942W        W43146  16.548   9.836  17.258 -0.3166 -0.0942  0.1300
24943W        W43147  14.165   9.674   2.027 -0.0789 -0.4039  0.0931
24944W        W43148  15.408   0.386   5.267 -0.0585 -0.1234  0.2808
24945W        W43149   2.091   6.068   4.838  0.0311 -0.0530 -0.0450
24946W        W43150   4.755   8.204  15.472  0.0346  0.1850 -0.1737
24947W        W43151  17.199  16.995  12.197  0.1148 -0.0636  0.1453
24948W        W43152   3.045   2.032   4.138  0.0432  0.1390  0.3486
24949W        W43153  11.108   6.283   3.506  0.0344 -0.1548 -0.1637
24950W        W43154  13.838  12.289   1.844 -0.2255 -0.1097 -0.2225
24951W        W43155  13.931  10.684   2.481 -0.1225 -0.0951 -0.1086
24952W        W43156   6.843   6.164  12.888  0.1674  0.2198 -0.2671
24953W        W43157   7.858  10.203   5.149  0.0134 -0.1411 -0.3636
24954W        W43158   1.613  16.631  16.823 -0.0468  0.1826 -0.5299
24955W        W43159   3.311  16.103   0.241  0.2750 -0.0002  0.3319
24956W        W43160  13.669   1.384  15.165  0.1615  0.1715 -0.1583
24957W        W43161  14.539   7.665   4.255  0.3492  0.1012 -0.0869
24958W        W43162   0.040  12.135   1.686  0.0396 -0.2944  0.0746
24959W        W43163   6.433   8.034   2.189  0.4188  0.3632  0.0877
24960W        W43164   4.762   0.631  17.070 -0.2573  0.4756  0.1587
24961W        W43165   4.745  16.509   3.649 -0.1319  0.4136 -0.1629
24962W        W43166  12.933  12.500   1.680 -0.1101  0.2328  0.0136
24963W        W43167   3.806   7.909  12.487  0.0300  0.1714 -0.0302
24964W        W43168   7.616  15.213  15.786 -0.2256 -0.3582 -0.0514
24965W        W43169  16.232   7.103   1.276  0.0370  0.2590  0.1647
24966W        W43170  12.360   6.687  13.678  0.0523 -0.2574  0.0174
24967W        W43171  11.377  15.256   1.316 -0.1545  0.1326 -0.1924
24968W        W43172  11.476  13.407   5.456  0.2092  0.1864  0.1994
24969W        W43173  14.058   3.339  15.880  0.0297 -0.0629  0.0511
24970W        W43174   9.820  12.533   0.682  0.4651 -0.0635 -0.0712
24971W        W43175   4.258  10.998   4.163 -0.1325 -0.0328  0.0851
24972W        W43176   2.279   5.146  12.103 -0.0509 -0.0311 -0.1706
24973W        W43177   5.805   3.389  17.031 -0.3034  0.0941 -0.2502
24974W        W43178   2.497  13.031   0.222  0.1494  0.3912  0.0428
24975W        W43179  12.801   0.301   3.514 -0.0113 -0.1715  0.1174
24976W        W43180   5.484  14.253  16.788 -0.0234 -0.1139  0.2046
24977W        W43181   0.535  14.290  16.115  0.2428 -0.2153  0.0260
24978W        W43182  16.062   3.800  14.398 -0.1440 -0.1433 -0.0193
24979W        W43183   6.996  11.151  12.380  0.1456 -0.0719 -0.4341
24980W        W43184  10.619  13.402   4.534 -0.1080 -0.0705 -0.1882
24981W        W43185  16.694  14.314  12.586 -0.0342 -0.5912 -0.0795
24982W        W43186   0.027  15.811  16.245  0.2653 -0.0483 -0.2452
24983W        W43187   7.556  15.731   1.082 -0.2728 -0.2681  0.1763
24984W        W43188   8.897   8.064  16.135  0.0683  0.0775 -0.1336
24985W        W43189  11.214   0.903  11.879  0.0797  0.1049  0.0894
24986W        W43190   2.896   7.738   5.411 -0.1634 -0.0037 -0.0381
24987W        W43191  15.226  16.875   3.800  0.0839 -0.2260 -0.4795
24988W        W43192  15.917   7.611  15.570 -0.0264 -0.0591 -0.2336
24989W        W43193  15.159   9.879  13.179 -0.1585  0.1849 -0.0521
24990W        W43194   6.637   7.661  16.354 -0.0862  0.1149  0.0274
24991W        W43195  13.057   2.507  14.449 -0.1987 -0.0373  0.2180
24992W        W43196   1.731   1.152  17.507  0.4968 -0.3525  0.0379
24993W        W43197   6.925   3.177  15.257 -0.0027  0.0558 -0.1664
24994W        W43198   6.577  10.025  16.019  0.2623  0.4103  0.1420
24995W        W43199   4.798  12.365  16.254 -0.2488 -0.1563 -0.1551
24996W        W43200   3.835  16.416   3.628 -0.0290 -0.5832  0.0135
24997W        W43201  14.673  11.433   2.450  0.1618 -0.2370  0.3250
24998W        W43202   3.310   3.674   0.569  0.1065 -0.0598 -0.0757
24999W        W43203  11.149   7.771  16.450  0.1696  0.1361 -0.0169
25000W        W43204  10.447   0.678   1.391 -0.1058 -0.2402 -0.2253
25001W        W43205   6.771  11.861  15.522  0.1337 -0.2103  0.0614
25002W        W43206   8.129   0.709  16.151  0.0838 -0.0772  0.1133
25003W        W43207   8.554   9.078  16.320  0.3620  0.0381 -0.2669
25004W        W43208   8.011  12.439   2.178  0.0642  0.0309 -0.1307
25005W        W43209   4.434  16.030  17.010  0.0553  0.2341  0.1114
25006W        W43210  10.678  15.216  16.419 -0.0956 -0.0866  0.1255
25007W        W43211   8.377  15.989   3.704 -0.0934 -0.4181 -0.1568
25008W        W43212  10.920   6.993   1.083  0.0983  0.2001  0.0546
25009W        W43213  17.323   9.842   3.075 -0.3392 -0.0187 -0.1585
25010W        W43214   3.971  12.341   3.198  0.3723 -0.0819 -0.0379
25011W        W43215   8.202   4.285   4.932  0.2202  0.2303 -0.0668
25012W        W43216   1.051   8.909  12.696  0.2256  0.1383 -0.3510
25013W        W43217   5.062   3.637  16.834 -0.4051  0.3474 -0.1397
25014W        W43218   7.341   7.107   1.826  0.4110 -0.3810 -0.0138
25015W        W43219   1.938   4.047  12.890  0.0893 -0.0973  0.1316
25016W        W43220   6.272   7.545   1.986  0.1967 -0.0047  0.3792
25017W        W43221  10.944   2.687   4.035  0.0768 -0.1103  0.1281
25018W        W43222  10.412  11.904   3.571  0.1414  0.0603  0.1221
25019W        W43223   0.122   9.332   4.684  0.0500 -0.2955 -0.0418
25020W        W43224  12.369   9.111  17.229 -0.2717 -0.1418 -0.0924
25021W        W43225  10.744  14.761  13.877 -0.1971 -0.0529 -0.2104
25022W        W43226   0.154  15.739  14.318 -0.3848  0.0075  0.4107
25023W        W43227  15.508   2.093  17.505  0.1553 -0.1172  0.0348
25024W        W43228  17.130   6.929  12.959  0.0875  0.0425 -0.0302
25025W        W43229   0.880   7.446   2.815  0.0446 -0.1685  0.2388
25026W        W43230  13.448   0.047   2.903  0.1999  0.4579  0.1083
25027W        W43231   0.334   0.749  16.993  0.1854 -0.2879 -0.0749
25028W        W43232   5.239  16.643   0.839  0.2327 -0.1490 -0.1072
25029W        W43233   2.124   2.213  14.827 -0.1106  0.1361 -0.1491
25030W        W43234  17.121  13.146  17.305  0.2328 -0.3100 -0.1993
25031W        W43235   1.457  12.779  16.792  0.0444 -0.1096 -0.2424
25032W        W43236  15.851   5.769   5.292  0.2800 -0.0334 -0.4242
25033W        W43237  10.200   4.026   0.064  0.0422  0.3863  0.1264
25034W        W43238   7.785   4.787  14.016 -0.0875 -0.0842 -0.1488
25035W        W43239   8.586   9.167  12.639  0.2742  0.2296  0.1815
25036W        W43240  13.753   6.013  17.186 -0.0993 -0.0035 -0.4810
25037W        W43241   7.939   1.947  15.916 -0.0794  0.2370 -0.0013
25038W        W43242   4.401   0.753   4.352 -0.3473 -0.0853  0.1831
25039W        W43243  13.259   8.856  16.632 -0.0755  0.2508  0.2242
25040W        W43244   9.284  14.959  17.386  0.1587 -0.0125  0.0056
25041W        W43245   6.138   7.784   4.166 -0.1995 -0.2432 -0.2938
25042W        W43246   2.071   1.887  11.885 -0.1346 -0.0568 -0.0094
25043W        W43247   0.631   0.615   0.914 -0.1235 -0.0337 -0.1160
25044W        W43248   1.431   4.463  16.366  0.4324  0.1273  0.1408
25045W        W43249   9.053   0.408   4.922 -0.0198 -0.1075  0.1103
25046W        W43250   9.058   0.462   2.779 -0.0734  0.0501 -0.0390
25047W        W43251  13.062   8.157  14.181 -0.1270 -0.1266 -0.3389
25048W        W43252   6.868   0.946   0.447 -0.0188 -0.0621  0.1663
25049W        W43253   6.736   7.604   1.242  0.2726  0.1905  0.0986
25050W        W43254  17.318  13.862   6.475  0.1396  0.0021  0.0352
25051W        W43255   7.494  12.085   4.666 -0.0540 -0.3252  0.3290
25052W        W43256   3.597  13.823  15.639  0.2911  0.2694 -0.0650
25053W        W43257  12.229   8.999  15.965  0.1925 -0.0713  0.1075
25054W        W43258  10.259   4.857   4.959  0.1452  0.0429  0.2094
25055W        W43259  17.251  11.162  13.443 -0.1717 -0.1376  0.0096
25056W        W43260  16.468  14.020  17.484  0.1351 -0.3374 -0.1131
25057W        W43261   0.844   3.164  12.058  0.0922  0.1791 -0.1176
25058W        W43262   8.532   6.136  16.976 -0.1005 -0.0396  0.1242
25059W        W43263   5.093  17.037   2.671 -0.0238  0.1978 -0.3006
25060W        W43264   2.937  14.656  17.334  0.1280 -0.0927  0.1607
25061W        W43265  14.221   1.146  13.708 -0.1888  0.0881 -0.3373
25062W        W43266  11.029   9.849   2.899  0.4417  0.0781 -0.0755
25063W        W43267   3.139  16.239  11.967 -0.2065 -0.2748 -0.0929
25064W        W43268   4.644  10.704  13.130  0.1486 -0.2143  0.2639
25065W        W43269   3.362  14.166   0.462 -0.1217 -0.1009 -0.1306
25066W        W43270   2.117   5.796   3.358 -0.1818  0.0366 -0.1020
25067W        W43271   0.058  17.266   2.670 -0.0910 -0.0719  0.0091
25068W        W43272  10.517  11.542   0.857  0.0403 -0.3688  0.1906
25069W        W43273   2.370  13.447   0.047 -0.1624 -0.0426  0.0109
25070W        W43274   1.903  13.079  13.720 -0.0004 -0.1828  0.1702
25071W        W43275   2.537   2.139   3.311 -0.1667  0.0259 -0.1623
25072W        W43276  10.953   4.912  17.106 -0.3161  0.0793  0.0080
25073W        W43277  15.796  10.211   3.959 -0.1398  0.3731  0.3220
25074W        W43278   3.102  13.266   4.592 -0.2439  0.2098 -0.0306
25075W        W43279  11.772   7.334   4.286 -0.0508  0.0632 -0.0844
25076W        W43280   8.402  10.829   0.815  0.1531 -0.0846 -0.1640
25077W        W43281   1.776   4.524   3.640 -0.2208  0.1819 -0.0614
25078W        W43282   2.582   9.897   0.150 -0.0882  0.0458  0.1702
25079W        W43283  14.851  13.812   3.976 -0.0285  0.1719 -0.2201
25080W        W43284   9.515  16.858  12.370  0.0972 -0.0705  0.0267
25081W        W43285   4.434   5.514   2.269  0.3806  0.0505  0.2494
25082W        W43286   5.114   2.698  17.263 -0.2035 -0.2825  0.0314
25083W        W43287   1.923  16.703  13.819 -0.1511  0.0082  0.1883
25084W        W43288  16.751   3.041  15.258 -0.1717  0.0105  0.1019
25085W        W43289  12.297  13.817   2.310 -0.2679 -0.1654  0.0480
25086W        W43290  13.581  16.692   3.261 -0.1074 -0.3621 -0.1055
25087W        W43291   1.470   0.986   2.336  0.4881  0.0443  0.2945
25088W        W43292  11.591  13.950  16.404  0.0116  0.3150  0.0040
25089W        W43293   6.916   1.459  14.321 -0.6168  0.1209 -0.1274
25090W        W43294  10.525   3.275  14.665 -0.1415  0.0952  0.4040
25091W        W43295  16.140   2.927  13.273 -0.0330 -0.0544 -0.1329
25092W        W43296  13.180   4.667   4.182 -0.2078 -0.1766 -0.2417
25093W        W43297   7.723  10.049   3.229  0.0793 -0.2297  0.0906
25094W        W43298  16.080  17.015  14.649  0.2037  0.2054 -0.0230
25095W        W43299   4.048   8.735  16.797  0.0635  0.1146 -0.2244
25096W        W43300  16.256  13.612  14.598 -0.3267  0.1720  0.0033
25097W        W43301   4.672   5.213   3.916 -0.1288  0.0141  0.0635
25098W        W43302  16.750   4.916  17.250  0.1565 -0.0349 -0.0112
25099W        W43303   6.773   9.215  12.581 -0.3601 -0.1549 -0.2410
25100W        W43304   3.206  12.181  14.741 -0.0661 -0.0291  0.0347
25101W        W43305   2.961   6.141  12.768 -0.1617  0.0658  0.2825
25102W        W43306   5.400  10.492  14.177 -0.0492 -0.0370  0.1546
25103W        W43307  13.293   7.850   1.437  0.0886 -0.0947  0.0869
25104W        W43308  16.794   2.098   3.531  0.0076  0.2396 -0.0818
25105W        W43309   3.076  11.455   2.818 -0.0842 -0.1370  0.0055
25106W        W43310   1.741   9.824  16.611  0.0227  0.1784 -0.0762
25107W        W43311  10.802  16.665  16.871 -0.1679  0.2007 -0.1071
25108W        W43312   1.916  15.720   3.976  0.0546 -0.2914 -0.1080
25109W        W43313   2.904   3.266  14.925  0.2944  0.2536 -0.1609
25110W        W43314   3.191  15.452   3.263 -0.0851  0.0383  0.0000
25111W        W43315  10.558  14.000  17.370 -0.3193  0.0466 -0.1202
25112W        W43316  14.402   2.153  16.566  0.5725  0.1611 -0.0938
25113W        W43317   9.826   5.527  16.758 -0.0827  0.1423 -0.2190
25114W        W43318   9.958   1.413   4.658  0.1526  0.0592 -0.1768
25115W        W43319   9.594   6.271  14.901  0.0342 -0.0622  0.1655
25116W        W43320   1.563   4.790  13.247  0.1016 -0.2068  0.3307
25117W        W43321   8.280   8.906  13.576  0.1328 -0.0576 -0.1623
25118W        W43322  14.198   1.601  14.474 -0.1809  0.0060 -0.1928
25119W        W43323   1.725   4.599  17.525 -0.0632 -0.0049  0.2561
25120W        W43324  17.075   5.545  14.772 -0.1476 -0.0063 -0.1180
25121W        W43325  15.098   2.382  13.431  0.3016  0.1745  0.3654
25122W        W43326  17.308   4.400   4.438  0.0210 -0.2145 -0.0518
25123W        W43327   2.794   9.487  17.325  0.0543 -0.2279 -0.0392
25124W        W43328   8.802  11.515   0.274  0.0509  0.0304  0.1377
25125W        W43329   6.317   7.669   0.949  0.0649  0.2710 -0.2431
25126W        W43330   1.904   5.915   1.126  0.2462 -0.0127  0.3027
25127W        W43331  11.553   8.907   1.127 -0.1207 -0.0729  0.0735
25128W        W43332  12.223  13.574   0.043  0.3376  0.0624  0.5464
25129W        W43333  10.977   2.369  13.051  0.2036 -0.1207 -0.3414
25130W        W43334  16.637  12.803  17.319  0.0025 -0.1720 -0.4035
25131W        W43335  13.882  10.402  16.360  0.3676 -0.2742  0.0906
25132W        W43336  10.891   0.942   2.136 -0.3606 -0.2970  0.1902
25133W        W43337   8.498  11.026   2.433 -0.2187  0.0318  0.1062
25134W        W43338  10.258  14.148   5.312 -0.2609  0.0416  0.2726
25135W        W43339   8.757   1.159   5.098  0.0313 -0.0563 -0.2219
25136W        W43340  14.303   1.006   5.391 -0.0158  0.0281 -0.3670
25137W        W43341   8.985  13.539  12.921  0.0227 -0.2176 -0.0086
25138W        W43342  14.189   5.576   3.191 -0.1285 -0.1912 -0.0749
25139W        W43343   3.126   1.726   0.848  0.2525 -0.1252  0.2982
25140W        W43344   6.090  16.880   1.036 -0.3359 -0.0609  0.1569
25141W        W43345   0.590  16.698   4.137  0.2499  0.1807 -0.0229
25142W        W43346   0.898  15.909   1.625 -0.2847  0.1459  0.3044
25143W        W43347   1.126  15.041   5.500 -0.0947  0.2641 -0.4277
25144W        W43348   3.417   2.004   1.611 -0.1659 -0.4037 -0.1022
25145W        W43349   4.442  15.747   1.773  0.0874  0.3179  0.0173
25146W        W43350  15.416   2.489  15.599  0.0998 -0.0062 -0.2649
25147W        W43351  14.172   7.097  13.584  0.0766 -0.4597 -0.0885
25148W        W43352  11.738   8.154   0.464 -0.1908  0.1469  0.0696
25149W        W43353   9.718   6.846  14.258  0.1212 -0.0822 -0.1330
25150W        W43354   0.401  11.260  12.434 -0.2674  0.0489  0.0679
25151W        W43355  13.405   9.187  15.423  0.2303  0.0722  0.5399
25152W        W43356   4.259   2.095  16.230 -0.2263 -0.2201 -0.2109
25153W        W43357   8.849  13.579  15.763 -0.0901  0.2947  0.0651
25154W        W43358   2.309   1.357  15.085 -0.2422  0.0194 -0.0054
25155W        W43359  11.077   6.496  11.649 -0.0389  0.0307  0.0996
25156W        W43360  14.780   4.984  12.651 -0.1183 -0.4112  0.2303
25157W        W43361   6.449   4.923  16.102  0.1271  0.0867 -0.1363
25158W        W43362   8.062  16.632   1.858  0.1428  0.3175  0.0219
25159W        W43363  14.486   8.172  15.410  0.1209 -0.0807 -0.1260
25160W        W43364   9.264   2.659   2.246  0.0559  0.2756  0.2949
25161W        W43365   5.347  15.951   3.064 -0.0089  0.1232 -0.2036
25162W        W43366  10.554   4.573   4.339  0.1142 -0.0802  0.1530
25163W        W43367  12.446   8.227  13.404 -0.2281  0.2525 -0.1687
25164W        W43368  12.424   4.975  11.877 -0.1459  0.0162 -0.3312
25165W        W43369  13.272   5.033  14.723  0.1180  0.0902  0.0789
25166W        W43370   6.346   4.579  12.503 -0.1644  0.0467  0.0239
25167W        W43371  16.101  10.023  13.406  0.2384  0.1585 -0.0130
25168W        W43372  12.250   6.060   3.265  0.0430  0.0700  0.0572
25169W        W43373  14.887   9.793  13.938 -0.1203 -0.0233  0.4529
25170W        W43374  16.635   7.296  14.296 -0.1687  0.2764  0.0790
25171W        W43375   2.241  11.119  17.378 -0.2686 -0.1472 -0.2648
25172W        W43376  15.093   2.493  13.965 -0.1339 -0.0113  0.0156
25173W        W43377   7.361  16.358   0.198  0.0656 -0.1931  0.0407
25174W        W43378   9.862   8.682  16.301 -0.2007 -0.3760  0.3348
25175W        W43379  10.811   7.287   1.505 -0.0521  0.0954 -0.3264
25176W        W43380   0.802  13.981  15.151 -0.1725  0.0680  0.0231
25177W        W43381   2.618   1.292  13.000  0.1744 -0.2846 -0.2296
25178W        W43382   4.671  10.178   5.209  0.1525 -0.1396  0.1329
25179W        W43383  15.940   3.718   0.713  0.0646 -0.1727 -0.1850
25180W        W43384  11.793   9.001   0.038  0.2303  0.0985 -0.1933
25181W        W43385   8.196   1.862   1.904  0.2142 -0.1558  0.1045
25182W        W43386   3.398  11.800  16.244  0.2419  0.1163 -0.0130
25183W        W43387  11.750   2.411  13.595 -0.1078 -0.1458  0.1613
25184W        W43388   5.121   7.907   0.549  0.1170  0.1294 -0.1903
25185W        W43389   3.488  13.707  14.125 -0.1141 -0.0398 -0.0713
25186W        W43390  12.095   0.693   3.397  0.1468  0.1143  0.0667
25187W        W43391   3.980   8.356  16.478 -0.0345 -0.0481 -0.0990
25188W        W43392  16.713  15.071   2.428 -0.1765 -0.2042 -0.1682
25189W        W43393   0.720   5.988  13.210 -0.1423 -0.1120  0.0431
25190W        W43394   0.744  14.991   4.590  0.0600  0.0928 -0.0938
25191W        W43395   4.524  10.607  13.666 -0.2741  0.1337  0.1574
25192W        W43396   6.387  12.757   0.246 -0.1217 -0.0299  0.0508
25193W        W43397   4.366   6.941  14.933 -0.0690  0.2061  0.0900
25194W        W43398   4.552   8.457  15.112  0.0980  0.2263 -0.0516
25195W        W43399   4.197   2.685  15.234  0.0907 -0.1484  0.2061
25196W        W43400   3.017  10.614  17.258 -0.0624 -0.0991 -0.2365
25197W        W43401  12.880   6.216   5.041 -0.3245 -0.1250  0.1570
25198W        W43402   7.423   9.013  14.989 -0.1477  0.3185  0.2390
25199W        W43403   5.503   3.243   3.052 -0.1745 -0.0538  0.0949
25200W        W43404  14.869   5.948  14.314  0.2886  0.1311 -0.0886
25201W        W43405   5.582  12.543   2.308  0.0436 -0.4961  0.2112
25202W        W43406  12.577  14.559   3.217  0.0240  0.1243 -0.0196
25203W        W43407   9.130  15.555   2.658 -0.1850 -0.0161  0.0721
25204W        W43408   3.348   0.056   5.189  0.4141  0.2599 -0.0061
25205W        W43409   7.042  10.580  12.516 -0.2088  0.0084 -0.2242
25206W        W43410  11.020  15.898  12.101 -0.2774  0.1070 -0.0262
25207W        W43411   1.483   0.793  15.955  0.3122  0.0840 -0.2775
25208W        W43412   9.967   0.489   2.717 -0.1474 -0.1974  0.3704
25209W        W43413   2.694   8.109   4.040 -0.2383  0.0309  0.0081
25210W        W43414  15.278   9.955   3.051 -0.1312 -0.0773 -0.0157
25211W        W43415  14.451   1.946   3.595 -0.0810 -0.3072  0.0457
25212W        W43416  10.346   6.956  13.651 -0.0576  0.3075  0.0341
25213W        W43417  12.680   4.626   4.397  0.2222  0.1455 -0.1586
25214W        W43418  10.547   9.300  13.871  0.1446 -0.0235 -0.3820
25215W        W43419  15.709   0.234  13.821  0.0635 -0.0986  0.0727
25216W        W43420   1.572  16.829  14.720 -0.4468  0.1191 -0.1897
25217W        W43421  10.958   4.251   1.661 -0.3053  0.2497 -0.2681
25218W        W43422   4.626  11.236  12.973  0.2103 -0.0672  0.1522
25219W        W43423  15.510   5.191   0.585  0.0591 -0.1544 -0.1615
25220W        W43424   5.524  15.959  14.643 -0.1001  0.1594 -0.0306
25221W        W43425  15.198   5.130   1.029 -0.1406  0.1353  0.2754
25222W        W43426   4.505  11.612   2.789 -0.0723  0.0393  0.0255
25223W        W43427   3.040   9.550  12.956  0.3908  0.0969 -0.1657
25224W        W43428   7.207   5.404   1.772 -0.0302  0.1885  0.0206
25225W        W43429   1.982   9.910   0.588  0.0699 -0.1370  0.1475
25226W        W43430  16.437   4.116   2.023  0.1433 -0.1868  0.0285
25227W        W43431   4.020   1.014   1.385 -0.2739 -0.0138 -0.1354
25228W        W43432   1.007  16.587   2.941 -0.1883  0.2602  0.0979
25229W        W43433  14.827   2.866   3.635  0.0403 -0.2134 -0.2030
25230W        W43434  11.237  15.121   0.531  0.3026  0.0552  0.2239
25231W        W43435   9.132   9.856  15.727 -0.1319  0.0757  0.2366
25232W        W43436   2.095   8.354  16.850  0.0658  0.2529  0.3545
25233W        W43437   8.892   2.570   2.572 -0.1488 -0.1077  0.0536
25234W        W43438   7.808   0.820  14.708 -0.1761  0.3192  0.0448
25235W        W43439   3.195  13.409  12.378 -0.0335 -0.1132 -0.1133
25236W        W43440   9.682  16.433   2.156  0.1971  0.3687  0.1027
25237W        W43441   1.611   7.765   0.044 -0.1942  0.0297 -0.1916
25238W        W43442   7.490  16.166   1.499 -0.1221  0.0242  0.1459
25239W        W43443   3.591   6.441   3.210 -0.2089 -0.0653  0.1284
25240W        W43444   4.973   3.989   3.597  0.0913 -0.0182  0.4224
25241W        W43445  15.022   5.929   2.004 -0.0545 -0.0812 -0.1348
25242W        W43446   2.320   1.501  16.722 -0.3894 -0.1689 -0.2372
25243W        W43447   2.062  13.699  14.655  0.1542  0.0523  0.0631
25244W        W43448  12.328   5.594   4.801  0.1569 -0.0184  0.2891
25245W        W43449  11.894   4.237   3.914  0.2301  0.0960 -0.3326
25246W        W43450   6.283  11.692  15.628  0.0253  0.3650  0.0524
25247W        W43451  13.146  11.707   3.674  0.1230 -0.1344  0.3305
25248W        W43452   4.842  13.922  14.670 -0.0519  0.0516  0.1987
25249W        W43453  14.319   2.894  14.642 -0.2768  0.0415 -0.2133
25250W        W43454   9.700  17.234  13.132  0.0714 -0.1917 -0.1356
25251W        W43455  16.017  15.609   2.801  0.1657 -0.0315  0.0015
25252W        W43456   6.375  14.766   3.699 -0.0291 -0.1615  0.0267
25253W        W43457   6.446   6.685   2.654 -0.1624  0.1277 -0.2342
25254W        W43458   7.366  11.622   3.670 -0.0782 -0.2834  0.1055
25255W        W43459   9.741   1.104   5.576  0.1652  0.2569  0.0967
25256W        W43460   6.778   5.541  12.096  0.0274 -0.1915  0.1654
25257W        W43461   3.453   3.347   0.946 -0.0804  0.1234  0.4171
25258W        W43462  13.255   7.531   2.361  0.0877 -0.2856  0.0761
25259W        W43463  12.982   9.238   6.112 -0.0082  0.0923 -0.0665
25260W        W43464   5.915   7.981  13.412 -0.2165 -0.0559 -0.1758
25261W        W43465   7.687   5.639   2.083  0.0045 -0.2473 -0.0098
25262W        W43466  16.087   1.659   5.190  0.2925  0.0832  0.1261
25263W        W43467   9.353  10.872   5.375  0.1569 -0.1910  0.2712
25264W        W43468   6.732  14.877  13.451 -0.0522  0.3863 -0.2027
25265W        W43469   7.771  15.909  13.980  0.4521 -0.1129  0.1527
25266W        W43470   1.252  12.015  13.147 -0.1930 -0.2237 -0.1861
25267W        W43471  12.769   3.766  14.897  0.1700  0.0011  0.1482
25268W        W43472  10.007   6.225   1.812 -0.0914 -0.0042 -0.0625
25269W        W43473  16.536   4.689  11.946 -0.0568  0.1105  0.0331
25270W        W43474   1.317   1.848  15.623 -0.0523 -0.0638 -0.1456
25271W        W43475   3.539   5.110  17.469 -0.0453 -0.1386 -0.0513
25272W        W43476   5.754   4.291   4.864  0.1682 -0.0058 -0.1567
25273W        W43477   9.396  17.004  17.355  0.0365 -0.2779  0.1323
25274W        W43478   5.346   6.451   3.455 -0.0703  0.0899 -0.1740
25275W        W43479   1.962  12.312  14.076 -0.0920  0.0952 -0.1377
25276W        W43480  15.887   9.298   2.628 -0.0371 -0.1107 -0.0634
25277W        W43481  10.415   1.331   0.839 -0.4400  0.4118 -0.1111
25278W        W43482   8.766   8.587  16.181  0.2336  0.0579  0.2247
25279W        W43483   3.988  11.131  14.078 -0.0417 -0.3114 -0.2227
25280W        W43484   4.080  15.505   0.567 -0.0024  0.0522  0.0653
25281W        W43485   5.740   6.536   2.990 -0.2180 -0.0441 -0.3454
25282W        W43486   4.139   5.476   6.259 -0.0546 -0.0378 -0.1189
25283W        W43487   0.054  16.279   2.583  0.1568 -0.0650  0.1667
25284W        W43488  13.796   0.593  16.263 -0.2803  0.2879  0.1127
25285W        W43489  15.656  15.154  16.259 -0.1153  0.2419 -0.2619
25286W        W43490   2.410  11.340  13.691  0.0066  0.1712 -0.1653
25287W        W43491   9.138   1.709   4.079 -0.0022 -0.0636  0.3605
25288W        W43492  16.232  13.313   4.493  0.0429  0.2911  0.3200
25289W        W43493   7.777   4.567  12.943  0.1474 -0.0503 -0.0569
25290W        W43494   8.411  11.988   5.805  0.1417 -0.0439 -0.0497
25291W        W43495  15.966  15.515  12.590  0.2475  0.0161 -0.1435
25292W        W43496   1.512   1.436  14.008  0.1723  0.0160 -0.1905
25293W        W43497   8.336   6.724   2.401  0.3480  0.3576  0.1511
25294W        W43498  14.225   4.888   3.154 -0.0161  0.1126  0.0486
25295W        W43499   2.878   6.966   3.035 -0.1087 -0.0633 -0.0712
25296W        W43500   3.334  17.270  17.220  0.2026  0.0252  0.2284
25297W        W43501  10.371  14.759   4.369 -0.0392 -0.0738 -0.2366
25298W        W43502  17.194  16.015   0.186 -0.0608  0.1078 -0.0167
25299W        W43503  15.622   8.897   0.156 -0.3031 -0.3282  0.0192
25300W        W43504  15.423  15.515   1.946  0.2020 -0.1769 -0.2885
25301W        W43505   2.040  11.761  14.983 -0.0051  0.1330  0.2499
25302W        W43506  12.071   5.237   2.076  0.1211  0.0654 -0.3190
25303W        W43507   7.855   5.125  12.878  0.3095 -0.0602  0.1332
25304W        W43508  10.117  15.619   0.045  0.2622  0.1852  0.0042
25305W        W43509   2.811   6.401  14.094  0.1761  0.2531  0.0002
25306W        W43510   3.621  16.688   2.309  0.2909  0.0895 -0.2334
25307W        W43511  10.464   2.914   4.034  0.2155  0.0777  0.0034
25308W        W43512   2.144  14.538   3.495 -0.2060 -0.0514  0.2029
25309W        W43513   3.805  14.154  16.104 -0.1028 -0.2365 -0.1118
25310W        W43514  15.759  15.470  16.658 -0.3476 -0.0076  0.0724
25311W        W43515   1.759  15.584   3.137  0.0113 -0.1022 -0.0973
25312W        W43516  15.228  10.374   1.450  0.0346  0.0270 -0.0611
25313W        W43517  10.675  13.643  13.079 -0.0746 -0.0221 -0.2472
25314W        W43518  13.467   2.320   1.338  0.2744  0.1622 -0.1260
25315W        W43519  12.249   9.464   3.212  0.2794 -0.2259 -0.0216
25316W        W43520   8.856   0.509   3.209  0.3147  0.0832  0.0640
25317W        W43521  15.444  14.860   3.703 -0.2172  0.2669  0.3401
25318W        W43522   2.748  11.198  16.734  0.0426  0.2015 -0.0758
25319W        W43523   8.221   3.057   0.302  0.0373  0.2247  0.1530
25320W        W43524   8.660   7.710   3.890  0.1510  0.0852  0.2853
25321W        W43525   1.237   8.018   1.776  0.0244 -0.3204  0.2087
25322W        W43526  15.806  12.242   4.525 -0.2056 -0.3140  0.2035
25323W        W43527   9.739  11.604  16.185 -0.1240 -0.2513  0.1189
25324W        W43528  13.744  10.576  12.786  0.1338 -0.0120 -0.2031
25325W        W43529   7.813  14.645   0.486 -0.0452  0.0555 -0.2225
25326W        W43530   9.955   4.479   0.460 -0.1537  0.0165  0.3372
25327W        W43531   6.553  17.191   2.862 -0.0855  0.2071  0.0247
25328W        W43532   0.570  11.803  13.272 -0.2838 -0.0606  0.0083
25329W        W43533  12.789   4.348   3.296  0.0297 -0.0447 -0.0861
25330W        W43534   5.549   5.426   0.032  0.0460 -0.0756  0.0397
25331W        W43535  10.377  13.036  14.813 -0.2278 -0.2829  0.1436
25332W        W43536   4.913   0.795   0.977 -0.0284  0.1895  0.1320
25333W        W43537   6.715  13.447  15.004  0.2510 -0.1738 -0.2595
25334W        W43538  12.563   9.201  14.429  0.2001  0.2329 -0.0132
25335W        W43539  17.155   7.145  14.817 -0.0187  0.4185  0.1784
25336W        W43540   8.138  10.456  13.797 -0.1000 -0.5092 -0.3832
25337W        W43541   4.726  13.938   0.850  0.0161  0.3432  0.2480
25338W        W43542   8.991  13.733   0.528 -0.1392  0.0036 -0.0298
25339W        W43543   2.672   6.349  17.361  0.2645 -0.2473 -0.0659
25340W        W43544   6.291  11.591  16.840 -0.2679 -0.1198  0.1688
25341W        W43545  11.802   9.222  16.108 -0.2525 -0.2131 -0.1814
25342W        W43546  13.594   7.148  15.268 -0.0366 -0.3280  0.3705
25343W        W43547  12.699   3.095   0.015 -0.0302  0.3573 -0.0665
25344W        W43548   3.728  10.873   3.760  0.0358  0.3098  0.1815
25345W        W43549  13.496  14.807   4.399 -0.0910 -0.0474 -0.0190
25346W        W43550   9.538   8.010   4.814  0.0863 -0.3976  0.0522
25347W        W43551   0.577   0.911   1.949  0.0428 -0.2875  0.2724
25348W        W43552   4.829  12.879  12.296  0.0918 -0.0611  0.0829
25349W        W43553   2.617   6.057   3.973 -0.1881  0.2443 -0.0633
25350W        W43554   9.303   5.886  12.353 -0.0295  0.1095  0.1037
25351W        W43555   7.035   6.324   4.633  0.0214 -0.0602  0.0898
25352W        W43556   9.482   8.000   0.944  0.1037  0.0524  0.1556
25353W        W43557   4.663   2.392   1.811  0.2066 -0.0036  0.3198
25354W        W43558  16.823  14.518   2.115  0.0890 -0.4951 -0.0623
25355W        W43559  11.218   4.484  17.136 -0.1108 -0.1639  0.0662
25356W        W43560  15.407  10.135   2.624  0.1505 -0.3266  0.2072
25357W        W43561   0.063   6.900  15.161 -0.1178 -0.1722  0.3950
25358W        W43562   3.176   4.641   5.011 -0.2614 -0.0824 -0.4667
25359W        W43563   5.443   5.373   2.015  0.0585 -0.1785  0.2334
25360W        W43564   6.440   7.144  17.433  0.0636 -0.2253  0.0758
25361W        W43565  16.254  14.799   0.351  0.1048 -0.1051 -0.5028
25362W        W43566   8.646  10.939   1.944 -0.1074  0.3446  0.2989
25363W        W43567   7.441   7.327  14.346 -0.0719 -0.0170  0.2114
25364W        W43568  11.295   0.740   5.111 -0.1435  0.1738  0.1232
25365W        W43569   5.229  11.996  13.347 -0.1407 -0.0787 -0.2059
25366W        W43570   5.313   1.703   3.896 -0.2143 -0.0162 -0.1107
25367W        W43571  14.907  13.881   3.392  0.4266  0.0725  0.0882
25368W        W43572  10.144   3.293   1.423 -0.2054 -0.0599 -0.1200
25369W        W43573   9.220   5.257   5.055  0.2844  0.3217 -0.2947
25370W        W43574  16.664  15.207  12.342  0.0057 -0.0703 -0.0272
25371W        W43575  12.737   7.045  13.851 -0.2110 -0.2145 -0.1465
25372W        W43576  10.875  13.531   2.087 -0.1510  0.2526 -0.1554
25373W        W43577   5.297  11.365   4.051 -0.1279 -0.1194 -0.2310
25374W        W43578  14.443  14.712  16.249  0.1965 -0.3365  0.0263
25375W        W43579  12.962   0.108  12.399  0.1702  0.0706  0.1876
25376W        W43580   5.611   8.469  11.608 -0.1732  0.0055  0.0030
25377W        W43581  12.538  15.988  16.556  0.0810  0.0144  0.3149
25378W        W43582   3.236  12.270  15.258  0.3613 -0.1690 -0.2667
25379W        W43583  13.405   4.137  15.216 -0.0277 -0.1739  0.1719
25380W        W43584  16.599   6.478  15.391 -0.0010  0.0402 -0.2822
25381W        W43585  16.684  14.814   3.004  0.1053 -0.0529 -0.0715
25382W        W43586  14.384   2.962   1.460 -0.1115  0.2764  0.0202
25383W        W43587   0.562   9.049  17.134 -0.2472 -0.0324  0.0470
25384W        W43588   6.236   2.524   5.170  0.4436  0.1933  0.1289
25385W        W43589  13.715  16.873  12.868  0.2021  0.0146  0.0445
25386W        W43590  13.227   9.352   3.516 -0.2297  0.1530 -0.0514
25387W        W43591   4.508   5.856  16.712  0.2635 -0.1656  0.2074
25388W        W43592   7.672   0.787   1.872 -0.0047  0.0508 -0.0462
25389W        W43593   5.492   6.888  12.683  0.3440 -0.0777 -0.2430
25390W        W43594   8.712  15.878  12.799  0.2279 -0.0800  0.1434
25391W        W43595   9.375   7.294  14.870  0.2519 -0.2061 -0.0848
25392W        W43596   6.026   3.296   3.106  0.0476  0.2492  0.0127
25393W        W43597  13.475   3.666  15.440 -0.0750 -0.1491  0.0414
25394W        W43598  13.155   9.817  12.761  0.1784 -0.0861  0.0971
25395W        W43599  15.178  14.563  15.625 -0.2430  0.1740  0.0266
25396W        W43600   2.308   9.559   0.413 -0.5027 -0.2704  0.0277
25397W        W43601   0.205   6.119  13.228  0.2982  0.0010 -0.1017
25398W        W43602   5.362   7.678   3.078  0.0478 -0.0832  0.1518
25399W        W43603  11.849  15.953   4.413 -0.2817 -0.1121  0.1614
25400W        W43604   5.875  14.523   3.796  0.2361 -0.2099 -0.3361
25401W        W43605  12.644   2.386  14.860 -0.1595  0.1278  0.0971
25402W        W43606  12.883   0.593  15.522 -0.0078  0.0490  0.1732
25403W        W43607  10.548   2.999   3.585 -0.1992  0.1628  0.4643
25404W        W43608  15.540  11.095   0.076 -0.0498 -0.1800 -0.1427
25405W        W43609  12.567   2.369  16.806  0.1016 -0.0828  0.0707
25406W        W43610   1.447   5.835  17.032 -0.1367  0.1051 -0.1407
25407W        W43611  15.278   9.455  15.662  0.0684 -0.0258 -0.2411
25408W        W43612  14.735  10.449   1.900 -0.1149  0.0562  0.1356
25409W        W43613   0.058   8.691   0.888 -0.1827  0.1829 -0.2552
25410W        W43614  17.103  15.408  12.519 -0.0911 -0.1110  0.5214
25411W        W43615  12.805   6.804   0.622 -0.3305 -0.0226 -0.0768
25412W        W43616   7.708  10.437  17.174  0.0866  0.0494 -0.1284
25413W        W43617  12.835  17.172   1.817  0.0254 -0.2484  0.0394
25414W        W43618   7.409  11.611   4.752  0.1295  0.1965  0.2967
25415W        W43619  12.256  16.617   4.443 -0.1022 -0.0420  0.2363
25416W        W43620   1.528   8.715   4.233  0.1212 -0.2728  0.0127
25417W        W43621   6.608  12.706   5.164 -0.1478 -0.0374 -0.0204
25418W        W43622   7.192  13.685   1.199 -0.4127 -0.4012 -0.0659
25419W        W43623  10.897   5.992  12.315 -0.2330  0.1273  0.1470
25420W        W43624  11.681   1.934   1.136  0.1161 -0.1279 -0.0589
25421W        W43625   9.470  11.058  13.929 -0.0987 -0.0042  0.4654
25422W        W43626   8.757  15.142   2.706 -0.1893  0.2816  0.0404
25423W        W43627   0.016   9.793  14.965  0.0273 -0.1924 -0.0919
25424W        W43628   8.257  10.675  15.038 -0.0766  0.0865  0.0082
25425W        W43629  15.624  13.744  17.461  0.0571  0.1154 -0.0049
25426W        W43630   5.486   2.137   0.387  0.3402  0.2205  0.1121
25427W        W43631  16.324  11.331  12.850  0.2709 -0.2058 -0.3239
25428W        W43632  13.366   7.523  16.626  0.0430  0.0169  0.0965
25429W        W43633  14.969  11.700   1.130 -0.1041 -0.2460  0.2383
25430W        W43634   3.073   4.072  14.599  0.1888  0.2047 -0.0709
25431W        W43635   3.789   1.985  16.258 -0.0872  0.0611 -0.1525
25432W        W43636  10.040   9.562  13.678 -0.0185 -0.0692 -0.3603
25433W        W43637   3.968   3.022  17.349  0.0635 -0.0766 -0.5070
25434W        W43638   5.172   0.442   3.151  0.1868  0.2158 -0.0359
25435W        W43639  12.778   5.882  12.239 -0.0843  0.0245  0.0883
25436W        W43640  16.731  15.371   4.017  0.0849 -0.1418 -0.0873
25437W        W43641   5.407  13.248  15.844 -0.0745 -0.0319 -0.0910
25438W        W43642   0.520   5.919  17.218 -0.0318 -0.1243  0.0149
25439W        W43643   7.293  16.942   0.913  0.0664 -0.0733  0.1672
25440W        W43644   0.629   9.372   0.512 -0.0152 -0.0527  0.1186
25441W        W43645   0.644   8.052   1.001 -0.2446  0.0694 -0.1225
25442W        W43646  12.433   3.999   3.151  0.0290 -0.0335  0.0173
25443W        W43647   6.063  16.351   3.226 -0.1187 -0.1061 -0.0928
25444W        W43648   1.596  10.727   4.064  0.0389  0.1768  0.0648
25445W        W43649   8.379  12.741   1.809  0.1097 -0.0387  0.2371
25446W        W43650  14.681   1.117   3.906 -0.0442  0.3075 -0.2058
25447W        W43651   9.019   2.023  14.862 -0.1664  0.0538  0.1934
25448W        W43652   1.679  12.950  15.776 -0.0194  0.0461 -0.0901
25449W        W43653   7.079   0.940  15.212 -0.2502  0.0298 -0.2041
25450W        W43654   4.956  15.752   0.102 -0.3014  0.2193 -0.2116
25451W        W43655   2.442   3.053  15.598 -0.1639  0.2605 -0.1588
25452W        W43656  14.023   4.597  14.567  0.0272  0.0601 -0.0039
25453W        W43657   8.283  16.108   5.575 -0.0429  0.1424 -0.0397
25454W        W43658   2.909   8.470  14.498  0.1275  0.0816 -0.0953
25455W        W43659  14.363  13.034  14.715 -0.2993 -0.0010 -0.0461
25456W        W43660  13.051   3.218   1.183 -0.1649 -0.0109 -0.0174
25457W        W43661   0.076   0.233   2.284 -0.2705  0.0137 -0.0580
25458W        W43662  10.352  13.841   4.778  0.0182 -0.0947  0.0876
25459W        W43663  11.455   7.605  14.239  0.1101  0.0892  0.1044
25460W        W43664  13.078  10.364  16.965 -0.1080  0.0480 -0.0285
25461W        W43665   8.265  15.759  15.207 -0.0510  0.2111  0.1445
25462W        W43666   0.795  11.877  15.550 -0.1536  0.0245 -0.1164
25463W        W43667   6.438   2.836  15.994  0.0487  0.1099  0.3047
25464W        W43668   1.346   4.816   3.692  0.1404 -0.1171  0.1140
25465W        W43669  16.632   8.613   4.109  0.1166  0.2058  0.1194
25466W        W43670   9.157   6.590   2.163  0.0199 -0.2186 -0.3542
25467W        W43671  14.733  14.410   2.373  0.1374  0.3536 -0.3068
25468W        W43672  13.002   7.432  15.353 -0.0004  0.2335 -0.1468
25469W        W43673  12.675   7.270  12.947  0.0436 -0.3018  0.0669
25470W        W43674   1.825  16.766   4.367 -0.1682  0.0360  0.2722
25471W        W43675  14.496  10.861   3.293 -0.1496 -0.0348 -0.1435
25472W        W43676  10.121   2.761   3.162 -0.1184  0.0429 -0.1307
25473W        W43677  12.409   4.183  16.700 -0.0376 -0.1770  0.2255
25474W        W43678   4.615  13.749  13.975  0.0064 -0.1313  0.0495
25475W        W43679  14.369   0.138   4.932 -0.4250 -0.0173 -0.3701
25476W        W43680  16.297   1.947  15.649 -0.1716  0.0287  0.2526
25477W        W43681  10.863   5.430   5.861  0.0749  0.0534 -0.3114
25478W        W43682   3.813   7.183   3.862 -0.1101 -0.1268 -0.1264
25479W        W43683   3.717   0.937   5.480 -0.0467  0.4961 -0.2640
25480W        W43684   1.586   6.362   0.323 -0.1150 -0.1605 -0.2170
25481W        W43685   8.171   3.709   3.493  0.2492  0.0652 -0.1434
25482W        W43686   2.306  14.617   3.998  0.1088 -0.0290 -0.2061
25483W        W43687  13.308  17.116   1.843 -0.1311 -0.0014 -0.0664
25484W        W43688  10.384  15.939   6.024  0.1409  0.3220  0.1604
25485W        W43689  11.057   1.477   2.204 -0.0888 -0.1110  0.3302
25486W        W43690   3.159   2.523   3.363 -0.1453  0.5558 -0.0356
25487W        W43691  12.741   9.269   4.430 -0.3809  0.1994  0.2384
25488W        W43692   5.703  15.600   4.715 -0.0395  0.4856  0.1969
25489W        W43693   3.799  15.666  15.486  0.2961  0.1013 -0.0330
25490W        W43694  14.670   4.718  15.246  0.1435  0.2414 -0.2575
25491W        W43695   2.684   4.951   4.924 -0.4461 -0.3277 -0.1604
25492W        W43696  16.909   1.548  12.156 -0.0192  0.0085  0.0820
25493W        W43697  15.946   8.304   5.143  0.3555 -0.4461 -0.0217
25494W        W43698  10.730  17.200   3.324  0.2603  0.0047  0.0066
25495W        W43699  16.864  10.181   4.712  0.2031 -0.0296 -0.0957
25496W        W43700  11.349  16.255   4.340 -0.2871 -0.0479 -0.4641
25497W        W43701   2.050   0.976  16.550 -0.1757  0.1683  0.1903
25498W        W43702   0.629   3.286  13.856  0.0385 -0.4371  0.2186
25499W        W43703   7.953   9.022   4.407 -0.1242 -0.2712 -0.1809
25500W        W43704   1.017   0.388  12.856  0.0337 -0.3092  0.2302
25501W        W43705  10.201   8.232  14.146 -0.1792 -0.1308  0.1383
25502W        W43706  14.051  15.618   1.916  0.1143  0.3778  0.1089
25503W        W43707  14.927  12.936  14.211  0.0394 -0.1573 -0.3302
25504W        W43708  14.275   9.533  15.720  0.0971  0.0017 -0.2092
25505W        W43709  16.483   3.312  15.548  0.0865 -0.4755  0.0883
25506W        W43710  16.731  14.878   4.068 -0.0943  0.1145 -0.1654
25507W        W43711  12.736   2.795  16.614 -0.1285  0.0246 -0.0186
25508W        W43712  13.457  14.243   1.585  0.0073 -0.1427  0.1976
25509W        W43713   4.745   8.467  13.009  0.0558  0.1741 -0.2652
25510W        W43714   8.288  12.063  12.031 -0.1175 -0.1080  0.2079
25511W        W43715  12.513  13.477  13.475  0.0191  0.3552  0.1015
25512W        W43716   5.944   2.165  14.499  0.2256  0.0019  0.0425
25513W        W43717   2.690   7.707  13.143 -0.2370 -0.2343  0.0865
25514W        W43718   5.720   2.688   4.825 -0.1104 -0.0560 -0.2669
25515W        W43719  12.263  13.821  14.906  0.0795  0.1649  0.1861
25516W        W43720   0.338  15.051  16.958 -0.2972  0.1301 -0.0253
25517W        W43721  16.088   3.127   1.814  0.0650 -0.1503 -0.3585
25518W        W43722   9.218   2.534   3.508 -0.1615 -0.2277  0.1211
25519W        W43723   5.671   3.805  13.865  0.1629  0.2396  0.0398
25520W        W43724  10.593  12.331  15.337  0.0041  0.2095 -0.2848
25521W        W43725   9.175   2.010  17.396  0.0688 -0.0307 -0.2882
25522W        W43726   3.359   5.734  13.365  0.0270  0.0226 -0.0482
25523W        W43727  14.668   4.146  16.874 -0.0508  0.3062 -0.1779
25524W        W43728  16.661   5.754   3.228  0.0224 -0.2601 -0.0099
25525W        W43729  16.010   9.596  16.142 -0.3252  0.2803 -0.1635
25526W        W43730   7.142   5.628  13.211 -0.0639 -0.1462 -0.1069
25527W        W43731  10.767   8.383  13.634  0.0689 -0.0844  0.4810
25528W        W43732   4.539  17.121  15.214  0.0995 -0.0333  0.2122
25529W        W43733  10.990   5.697   0.609 -0.4310  0.0801 -0.0128
25530W        W43734  11.078  16.078  13.382  0.0655  0.2173 -0.2046
25531W        W43735   0.482   5.439  13.938 -0.1073  0.1672  0.2667
25532W        W43736  12.497   5.767  16.650 -0.0154 -0.2023 -0.1239
25533W        W43737   2.203  11.206   0.922 -0.2130  0.2325 -0.1373
25534W        W43738  17.175   9.916  15.896 -0.0263  0.1916  0.0160
25535W        W43739   9.920   3.747  16.407 -0.0019  0.1896 -0.0230
25536W        W43740  12.977  11.003  14.049 -0.1766  0.0283 -0.0124
25537W        W43741   5.504   8.826   2.986 -0.2006  0.0108  0.0797
25538W        W43742   4.467  10.965   3.241 -0.0174 -0.2641 -0.0891
25539W        W43743   1.816  11.517  16.739  0.0406  0.0231  0.3630
25540W        W43744  13.994   9.282   2.837 -0.3691 -0.3094  0.0774
25541W        W43745   6.595  15.496   2.491 -0.0774  0.0340 -0.0823
25542W        W43746  15.681  15.130  12.772  0.0112 -0.1757 -0.0535
25543W        W43747  14.072   2.023  15.845 -0.0687 -0.1773  0.0133
25544W        W43748   6.510   4.797  16.579 -0.0900  0.1375  0.1261
25545W        W43749   8.602  16.483  17.291 -0.0602 -0.4149 -0.0017
25546W        W43750   8.861  11.256  16.456 -0.2465 -0.1047 -0.2279
25547W        W43751  10.623   1.969   1.055  0.0666 -0.0785  0.0345
25548W        W43752   8.754   2.598   3.598  0.1739  0.0512 -0.0059
25549W        W43753  13.985   5.088  17.409 -0.1978 -0.0461  0.4260
25550W        W43754  10.106   3.800   1.635  0.2328 -0.3042 -0.1386
25551W        W43755  14.685   2.991   2.394 -0.0168  0.1317  0.3236
25552W        W43756   8.910   9.318   4.119 -0.1296 -0.1362 -0.0620
25553W        W43757   0.518   5.022  12.437 -0.1859  0.0312 -0.0520
25554W        W43758   2.519   6.064  16.142  0.0271  0.3418 -0.0680
25555W        W43759   5.721   7.831  16.729 -0.2027  0.2199 -0.1098
25556W        W43760  17.227   2.998   2.299  0.0001  0.1282  0.0919
25557W        W43761   8.148   1.675  14.655  0.0475  0.0421  0.1694
25558W        W43762   4.346  14.200   3.290  0.0737 -0.3927 -0.3108
25559W        W43763   6.037   1.934  12.054  0.2219 -0.0417  0.0727
25560W        W43764  16.616  13.678  12.125 -0.1675 -0.2596 -0.0727
25561W        W43765  10.672   1.347   0.280 -0.1349 -0.2278  0.3996
25562W        W43766  10.433   0.644  15.779 -0.0629 -0.2220 -0.1564
25563W        W43767   2.347  16.263   4.587  0.0693 -0.0237  0.2733
25564W        W43768   6.046  14.715  14.107 -0.3346  0.2693 -0.3487
25565W        W43769  13.094   8.122   2.868 -0.4227  0.4301  0.1144
25566W        W43770   5.315   6.758   4.431  0.2387 -0.3140  0.4178
25567W        W43771   4.617   9.368  15.743  0.0882 -0.3006 -0.0334
25568W        W43772   7.887   8.238  14.141 -0.4328  0.2969 -0.1421
25569W        W43773   9.776   3.949   0.940  0.0212 -0.0477  0.0860
25570W        W43774  15.457   2.456   4.966 -0.2799  0.0068  0.1438
25571W        W43775   8.669   7.737   2.275  0.0113  0.1939 -0.4405
25572W        W43776   1.038   0.585  14.063  0.3343  0.0537 -0.1305
25573W        W43777   8.751   5.414  15.165  0.0853 -0.0589 -0.3123
25574W        W43778  14.289  10.282  12.108 -0.0547 -0.1557  0.2133
25575W        W43779   0.095   6.683  16.913 -0.1752 -0.1728 -0.0364
25576W        W43780   8.777  10.223  15.935 -0.0689  0.0184 -0.3740
25577W        W43781   6.064   0.359  13.026 -0.1226  0.4245 -0.0258
25578W        W43782   7.009   1.949   4.907 -0.1172  0.2712 -0.0052
25579W        W43783  12.533  14.299  16.458 -0.0567  0.2040  0.3456
25580W        W43784   6.054   0.805  14.609 -0.1140 -0.3097  0.2085
25581W        W43785  12.451   3.816  13.960 -0.1226 -0.2316 -0.0994
25582W        W43786   1.884  16.216   3.919  0.1958  0.0899  0.1531
25583W        W43787  13.410  15.713   4.299  0.1459  0.0637  0.2045
25584W        W43788   9.232   6.743   4.935  0.1684  0.3221 -0.1913
25585W        W43789   9.073   8.921   6.235 -0.1622  0.1897 -0.1231
25586W        W43790   3.486  12.693  15.893  0.0437  0.1173  0.0818
25587W        W43791  16.988   2.749   0.335 -0.0116  0.1961  0.3667
25588W        W43792   6.417  13.807  14.899  0.2676  0.2398  0.0252
25589W        W43793   2.067  16.483   4.962 -0.0568  0.2149 -0.1383
25590W        W43794   9.498   2.991   1.876 -0.3964  0.1331  0.0148
25591W        W43795  15.083   6.063   1.524  0.0256  0.1764 -0.3213
25592W        W43796   4.624  14.625   3.915  0.0693  0.0845 -0.0584
25593W        W43797   3.712   7.780  17.464  0.2911 -0.0949  0.0728
25594W        W43798   0.071  14.579   2.917 -0.0068  0.1215 -0.0939
25595W        W43799   7.321  11.673  14.331 -0.0991 -0.4030 -0.1052
25596W        W43800   9.657   4.754   1.940  0.1998  0.0622  0.1984
25597W        W43801  11.280   1.813  13.252  0.0366  0.1007 -0.0446
25598W        W43802  17.042   9.398  15.946  0.0906 -0.1060  0.1378
25599W        W43803   7.115   4.373  12.836 -0.0302 -0.0373 -0.0121
25600W        W43804  15.663  10.180  16.489  0.4224  0.0500  0.0145
25601W        W43805  15.151  15.573   1.113 -0.1220 -0.0005 -0.2769
25602W        W43806   4.919  10.709   3.405  0.0168 -0.0667  0.1092
25603W        W43807   3.206  11.593   3.787  0.0759 -0.4376 -0.0492
25604W        W43808   1.810   9.160  17.173 -0.2827  0.1328 -0.1378
25605W        W43809   6.654   2.836   2.888 -0.0482 -0.1505  0.2010
25606W        W43810  12.510   0.636   4.711  0.3149  0.0751  0.1056
25607W        W43811   8.025  12.967   4.001  0.0997  0.1074 -0.1914
25608W        W43812   1.433   3.137   0.119 -0.0495 -0.0559  0.3210
25609W        W43813  13.330  16.144   0.494  0.1833  0.2121  0.2332
25610W        W43814   7.751   7.075  13.692  0.1733 -0.1900 -0.2442
25611W        W43815   7.397   3.048   6.580  0.0057 -0.2838 -0.2719
25612W        W43816  17.254  12.145   4.618  0.1168 -0.1072 -0.0686
25613W        W43817   6.265  11.381   1.792  0.4308  0.0658 -0.1938
25614W        W43818   7.549   7.302  12.269 -0.1040 -0.1007  0.0083
25615W        W43819  17.296   9.758   1.723 -0.1738 -0.2611 -0.0788
25616W        W43820   8.001   2.925   4.198  0.0737 -0.0701 -0.0181
25617W        W43821  13.910   4.860  14.999 -0.4027 -0.3271  0.2394
25618W        W43822   2.049   3.572  15.664  0.0905  0.1220  0.0626
25619W        W43823  14.244   7.309   2.252  0.0483  0.1001 -0.0407
25620W        W43824  12.122  10.752   3.416 -0.0379 -0.1246 -0.2885
25621W        W43825  12.078   0.316  14.608  0.1151 -0.0903 -0.5296
25622W        W43826   5.836  11.134   4.182 -0.1392 -0.1580  0.2636
25623W        W43827  15.238   8.806  12.340  0.1944 -0.1435  0.4532
25624W        W43828   5.346   0.557   2.669  0.0782 -0.0515 -0.3224
25625W        W43829  13.464   4.874  17.300 -0.2317  0.5162  0.0912
25626W        W43830   4.319   0.328   3.432  0.0881 -0.4763 -0.0112
25627W        W43831  16.871   2.084  16.265 -0.3264  0.1354 -0.0166
25628W        W43832  13.236   6.296   1.278  0.1109  0.2472  0.0797
25629W        W43833  15.717   9.695   3.998  0.1061  0.1607 -0.0846
25630W        W43834  15.079   6.973   3.611 -0.1185 -0.2359 -0.0082
25631W        W43835  15.082   1.146   3.644  0.2579 -0.0810  0.0667
25632W        W43836  13.696   7.172  11.599  0.1442 -0.0177  0.0649
25633W        W43837   9.826  12.429  12.065 -0.0850 -0.0776 -0.1610
25634W        W43838  17.145  16.881  15.423 -0.0342 -0.1899 -0.1226
25635W        W43839   6.087  11.642  14.523 -0.0161  0.0820  0.3097
25636W        W43840  16.771   6.358   4.178 -0.0841 -0.1043 -0.2726
25637W        W43841   9.571   9.844  16.041  0.0654  0.0748  0.0013
25638W        W43842  11.538   1.109   5.841  0.1143 -0.0892 -0.1401
25639W        W43843   4.126  12.978   2.105  0.2565 -0.0321 -0.0675
25640W        W43844   7.491  12.311  15.387 -0.0926  0.2455  0.0129
25641W        W43845  14.046   4.712  13.297 -0.0952 -0.0530  0.1332
25642W        W43846  14.778  15.122   5.380  0.0923  0.0212 -0.1647
25643W        W43847   5.029   9.838   5.114  0.1363 -0.1561 -0.1925
25644W        W43848   4.774   0.056   3.521 -0.0471 -0.0892 -0.3011
25645W        W43849   3.462   8.730   4.052  0.1004  0.0942 -0.0390
25646W        W43850   1.287  14.549  13.427 -0.0845 -0.0556  0.2442
25647W        W43851  14.722  15.536   4.644  0.3370 -0.0695 -0.0254
25648W        W43852   0.780  12.845   3.929 -0.2882  0.0950  0.1383
25649W        W43853  13.552   8.980  13.707  0.0584  0.0792  0.0546
25650W        W43854   8.858  10.242   4.980 -0.1531  0.1595 -0.1764
25651W        W43855   3.954   7.947   1.246 -0.1490 -0.0701  0.1380
25652W        W43856   2.513  16.872  13.274  0.1697 -0.0903 -0.1363
25653W        W43857   9.244   6.046   0.660 -0.1086 -0.1738  0.0891
25654W        W43858   2.302  11.793  13.899  0.2892  0.3552  0.2267
25655W        W43859   8.964   5.828   0.209 -0.2071  0.2483 -0.0625
25656W        W43860  12.618   8.632  13.608  0.0245 -0.0339  0.1811
25657W        W43861   2.600  16.701   2.446  0.3202 -0.1022  0.2038
25658W        W43862  13.483   3.245   3.722 -0.0705  0.2418  0.1477
25659W        W43863   2.151   7.130   4.834 -0.3414  0.1951  0.1171
25660W        W43864  14.104   9.735   1.506  0.3811 -0.0383 -0.0710
25661W        W43865   2.331  11.362  16.419  0.0523  0.0757 -0.1327
25662W        W43866  12.939  17.273  13.634  0.0472 -0.4223  0.1242
25663W        W43867   7.881   9.320   3.984  0.0498 -0.2380  0.1096
25664W        W43868   9.582   0.059   3.851  0.1360 -0.0618 -0.0780
25665W        W43869   8.925  12.938   0.977  0.0110 -0.3455  0.1237
25666W        W43870  12.163   8.562  12.538  0.1149 -0.1306  0.1553
25667W        W43871  15.534   7.026   1.899  0.2800 -0.4750  0.1656
25668W        W43872   3.813  14.020   4.657  0.2348 -0.1022 -0.2492
25669W        W43873   6.326  14.836   0.706 -0.1053 -0.0825  0.0073
25670W        W43874   9.536  15.402   4.970 -0.1748 -0.1605 -0.3799
25671W        W43875   4.613  16.183   3.285  0.1491 -0.1610  0.2784
25672W        W43876  14.791   5.096  14.141 -0.0173 -0.0446 -0.0531
25673W        W43877   6.504   4.725   3.995  0.2360  0.1176  0.0268
25674W        W43878  12.547   8.283  17.478 -0.1745  0.0389  0.2585
25675W        W43879  11.713   3.315   2.819 -0.0693  0.2041  0.2986
25676W        W43880   5.744   4.149   2.503 -0.3277  0.1140  0.1327
25677W        W43881  15.798   8.834   5.228  0.3006  0.0951  0.2996
25678W        W43882  10.341  15.540  13.575 -0.0845 -0.0738  0.2298
25679W        W43883   3.589  12.142   5.356 -0.0416  0.4219  0.4521
25680W        W43884   8.665   5.775  17.328 -0.1455 -0.1364  0.0556
25681W        W43885   6.044  16.531   1.456 -0.2213  0.4381 -0.1778
25682W        W43886   7.862   8.537  13.556  0.1465  0.0075  0.0379
25683W        W43887  11.398   8.136  16.172  0.0559  0.0906  0.1130
25684W        W43888   1.240  10.228  14.809  0.1779 -0.0596  0.2938
25685W        W43889  12.386   6.775  11.837 -0.1034  0.0068  0.2308
25686W        W43890  11.502  10.603   4.362 -0.2322 -0.1286 -0.0235
25687W        W43891  10.047  14.425   5.679 -0.2592  0.1641 -0.0359
25688W        W43892  13.748   5.310   3.821 -0.1930  0.0184 -0.0287
25689W        W43893   8.318   0.621  13.838  0.0530 -0.1924  0.1029
25690W        W43894   4.862   7.375  12.488 -0.1001 -0.2168 -0.0134
25691W        W43895   1.236   2.164  12.657 -0.1691  0.1302  0.0275
25692W        W43896   5.546  15.744   1.406  0.1726  0.1017  0.1018
25693W        W43897   0.428   5.007  17.338  0.4109  0.2117 -0.2080
25694W        W43898  10.521   3.097  16.433 -0.1948 -0.1749 -0.1701
25695W        W43899   8.537  14.049   4.086  0.2432 -0.0607 -0.3467
25696W        W43900   6.277   7.235  14.703  0.2329 -0.1284  0.1953
25697W        W43901   0.848  12.274  13.383  0.1804  0.2249  0.0703
25698W        W43902   3.734  14.488   4.980  0.1683  0.2364  0.0632
25699W        W43903   8.565  10.382  12.956 -0.2106 -0.3293  0.0935
25700W        W43904  13.348   4.505   5.099 -0.2619 -0.1600  0.1426
25701W        W43905   3.985   6.712  16.756  0.0237  0.1192 -0.0507
25702W        W43906   0.616  12.234  16.138 -0.1041 -0.0636 -0.1396
25703W        W43907   9.387  15.039  12.047  0.2140  0.3062  0.1004
25704W        W43908   9.490   6.375  13.480 -0.0823 -0.1269 -0.3059
25705W        W43909   1.646   8.109   4.902  0.0872  0.0982 -0.3055
25706W        W43910   6.711  12.854   2.643 -0.1087  0.1507  0.1641
25707W        W43911   8.970  16.475   2.821  0.2188 -0.1276 -0.0637
25708W        W43912   1.641   3.884  12.048  0.0474  0.4762  0.3227
25709W        W43913  11.215   3.564  16.999 -0.0281 -0.1795 -0.0863
25710W        W43914   6.885  11.947  15.028  0.2924 -0.0907 -0.2473
25711W        W43915  15.043   6.780   5.965  0.5130 -0.0190 -0.0058
25712W        W43916  13.865   9.229  13.258 -0.1558 -0.2238 -0.2295
25713W        W43917  16.264  14.946   1.096  0.4640  0.0541  0.0574
25714W        W43918  17.017   1.759  15.120 -0.2531  0.0522  0.2055
25715W        W43919  12.678  11.563  14.467  0.3033  0.0911 -0.2119
25716W        W43920  16.672   5.301   1.926 -0.2534  0.2523 -0.0644
25717W        W43921   9.161  17.281  15.042 -0.2255 -0.0548 -0.2054
25718W        W43922  11.873   2.948   1.923 -0.1192  0.0826  0.3555
25719W        W43923   5.628   7.845   3.530  0.2838 -0.1129 -0.0067
25720W        W43924   7.390   9.539  16.392 -0.0607  0.2174  0.0336
25721W        W43925   6.162   1.657   5.127 -0.2591 -0.1702  0.2319
25722W        W43926  16.938   8.347   1.664  0.1207 -0.1239  0.1508
25723W        W43927   9.554  15.392  13.769 -0.0055 -0.1797  0.0866
25724W        W43928   9.379   5.971   3.607 -0.0682 -0.0904  0.0297
25725W        W43929   7.302  10.407   1.789  0.0440  0.1596 -0.1658
25726W        W43930  14.192  13.628  13.841 -0.3381 -0.1555 -0.1702
25727W        W43931  16.979  16.080   2.831 -0.0215  0.0541  0.1892
25728W        W43932   4.836  15.344  14.657  0.0669  0.3165  0.0113
25729W        W43933   6.498  11.920  14.715  0.0305  0.2025  0.0816
25730W        W43934   1.748  14.438  15.474  0.0235  0.0822  0.0874
25731W        W43935  15.402  16.441   5.231 -0.2804 -0.0484  0.0301
25732W        W43936  15.219   5.865  17.312 -0.2694 -0.1361 -0.1152
25733W        W43937  13.286   9.643   2.185  0.0935  0.2312  0.0375
25734W        W43938  13.031   7.040   0.168 -0.1036 -0.0757  0.1513
25735W        W43939   3.605   9.720  12.973  0.1304  0.0608 -0.3307
25736W        W43940   7.813  16.254   5.146  0.0951 -0.0551 -0.0541
25737W        W43941  12.267  16.780   3.433 -0.0173  0.1506 -0.2386
25738W        W43942   9.442  10.522  14.015  0.0223 -0.0935  0.0445
25739W        W43943   0.618  13.394   0.828 -0.0972  0.0889 -0.0164
25740W        W43944  16.619  10.712   2.428 -0.0330  0.1939 -0.0098
25741W        W43945  11.122  13.453  13.319  0.1692  0.3616 -0.0611
25742W        W43946  15.243   6.917   1.108 -0.1979  0.2253 -0.2079
25743W        W43947   3.405   1.874  16.886  0.1756  0.1854  0.0335
25744W        W43948   2.453  12.444   1.485  0.2069 -0.1317  0.0541
25745W        W43949   4.650  16.878   3.251 -0.0106 -0.2526  0.1515
25746W        W43950   3.419   6.818   5.139  0.1663  0.1791  0.1943
25747W        W43951  13.917  16.023   3.044  0.3213 -0.0155  0.3809
25748W        W43952   1.093   2.179  16.024  0.4431  0.2082 -0.1559
25749W        W43953   8.196  11.728  13.494 -0.1656 -0.6015 -0.0415
25750W        W43954   1.840  14.114   1.687 -0.2865  0.3755  0.2092
25751W        W43955  12.398  10.496  13.178  0.2983  0.1392  0.0682
25752W        W43956   8.833   0.315   1.262 -0.0379 -0.0139 -0.1294
25753W        W43957  11.336  15.635  14.875  0.0738 -0.5505 -0.1145
25754W        W43958   0.239   1.281   3.283  0.1713 -0.3485  0.0885
25755W        W43959   2.513  10.510  16.670 -0.0904  0.2707  0.0133
25756W        W43960   0.868  12.495  15.685  0.0477  0.2602  0.0931
25757W        W43961   1.855   0.801   1.128  0.0702  0.2687 -0.3637
25758W        W43962  12.851  11.028   0.168 -0.1997 -0.1454  0.1270
25759W        W43963   5.928   9.143  13.000 -0.2603  0.1418  0.1522
25760W        W43964  10.810  10.242  12.910  0.3313  0.0491  0.3074
25761W        W43965   5.855   7.582   5.149  0.1277 -0.2378  0.0461
25762W        W43966  11.794   4.457  12.198 -0.3232 -0.0262 -0.2270
25763W        W43967   1.499  13.290   0.191 -0.2637  0.0240  0.1172
25764W        W43968   2.437   1.717   4.169 -0.0645 -0.0273 -0.2356
25765W        W43969   6.720  12.504   0.651 -0.0399  0.1595 -0.0821
25766W        W43970  16.714   3.778  17.082  0.5030 -0.0345  0.0411
25767W        W43971  15.605   2.461  12.184  0.0166  0.0839 -0.2378
25768W        W43972   9.550   6.228  12.093 -0.1889  0.1328  0.0765
25769W        W43973   4.280  11.671  17.368 -0.1291  0.2284  0.2792
25770W        W43974  12.778  10.304   3.307  0.1061 -0.1368 -0.3368
25771W        W43975  12.659   7.247   0.561 -0.2040 -0.2888 -0.1773
25772W        W43976   1.403  16.715  12.209  0.0354  0.0814 -0.2919
25773W        W43977   2.930   1.105  14.812  0.0858  0.1595 -0.0930
25774W        W43978   2.058   4.589  12.746  0.0322  0.0646  0.2427
25775W        W43979  15.745   8.775   4.298 -0.1432 -0.1901  0.3457
25776W        W43980  11.080   1.864  13.878 -0.1755 -0.1299 -0.0771
25777W        W43981   9.366  14.559   2.765  0.0100 -0.4020  0.3802
25778W        W43982   0.843   4.585   2.810  0.1047  0.0145  0.2602
25779W        W43983  16.171   8.507  14.055 -0.0085 -0.0309  0.1573
25780W        W43984  13.513  15.577   0.358  0.0444 -0.0221 -0.1771
25781W        W43985   8.517  10.476  12.277 -0.0851  0.0439  0.0631
25782W        W43986   5.371  13.774  17.114 -0.1187 -0.2364  0.0902
25783W        W43987  10.323  16.049  12.778 -0.0973  0.0767  0.0566
25784W        W43988   8.996   3.043   5.435 -0.2496 -0.0541 -0.1221
25785W        W43989   3.527   4.686   2.216 -0.0062  0.1941  0.2199
25786W        W43990   1.192   1.477  16.742  0.1855 -0.1051  0.0883
25787W        W43991   0.952   2.668  12.536  0.0417  0.1669  0.3839
25788W        W43992   8.776   0.455  14.819 -0.3746  0.1632  0.1908
25789W        W43993   6.893   2.263  14.782 -0.0947 -0.0030  0.1777
25790W        W43994   8.014  13.547   1.716  0.1396 -0.1645  0.1294
25791W        W43995   8.280   2.285   0.994  0.1710 -0.0427  0.3537
25792W        W43996   4.452  14.410  15.439  0.2868 -0.3506 -0.0687
25793W        W43997   4.268  17.129   3.493  0.0789 -0.1158  0.0831
25794W        W43998   4.003   3.351  16.873  0.2293 -0.0917  0.2030
25795W        W43999  11.486   5.494   3.434  0.0427 -0.0622  0.1835
25796W        W44000   1.790  15.244   0.154 -0.2137  0.0989  0.1295
25797W        W44001   1.193  12.115   3.975 -0.0733  0.3276 -0.0437
25798W        W44002   7.253   7.461   2.858  0.1376  0.4318  0.3039
25799W        W44003   6.635  14.708  14.821 -0.3274 -0.1849  0.2659
25800W        W44004  15.756  16.392  13.359 -0.1336 -0.0756 -0.0031
25801W        W44005   0.333  10.585   1.031 -0.2840  0.0567 -0.3021
25802W        W44006  10.483   2.202   4.755  0.0964  0.2437 -0.0355
25803W        W44007   5.039   9.634   4.627 -0.1196 -0.1782  0.0763
25804W        W44008   8.135   9.949  13.097 -0.5759  0.2198 -0.1064
25805W        W44009  15.087   4.856   2.600 -0.0966  0.0354  0.0816
25806W        W44010   1.699  17.323   6.167 -0.0797 -0.0595  0.4551
25807W        W44011  14.787   1.235   3.233 -0.1588 -0.0594 -0.0084
25808W        W44012  10.777   7.317  16.077 -0.0640 -0.0553 -0.0174
25809W        W44013  17.140   6.828   4.480  0.2000 -0.1148  0.3543
25810W        W44014   3.192  16.833  15.576 -0.3217 -0.4385  0.0846
25811W        W44015  10.245   7.149   2.986  0.0421  0.0358  0.4943
25812W        W44016   8.983   2.486  15.045 -0.1871 -0.4842 -0.0438
25813W        W44017   8.180  14.893   4.157  0.0301  0.0217 -0.0790
25814W        W44018   3.429   2.906   1.297  0.3444 -0.0023  0.1011
25815W        W44019  15.253  11.837   2.550  0.1699 -0.0596 -0.4203
25816W        W44020  16.764   8.440   2.182 -0.2654 -0.1640 -0.2108
25817W        W44021   3.248   0.751  13.129 -0.2206  0.1259  0.3403
25818W        W44022  16.470   2.918   2.160  0.0082  0.0465 -0.2171
25819W        W44023   6.246   0.717   4.917  0.1713  0.0234 -0.1495
25820W        W44024   5.823   8.481  15.193 -0.0992 -0.2599  0.1566
25821W        W44025  16.021   3.000  13.881  0.1530  0.0992 -0.0295
25822W        W44026   2.568  10.305  13.333 -0.0561 -0.0749  0.3036
25823W        W44027   0.561  16.636   3.656 -0.2479 -0.0274  0.3178
25824W        W44028  17.105   4.039  17.365 -0.0696 -0.1373 -0.1047
25825W        W44029   3.081  15.787   3.654 -0.2646  0.2968 -0.2369
25826W        W44030  14.228  10.640  13.239 -0.0936 -0.1479 -0.0423
25827W        W44031   8.864   5.552  13.296 -0.3421 -0.2429  0.1690
25828W        W44032  14.588  10.384   3.194  0.0903  0.3173  0.2957
25829W        W44033  17.277   8.369   6.260  0.2471 -0.0633  0.0339
25830W        W44034   3.016  13.814   2.922  0.0572 -0.3744  0.2741
25831W        W44035  16.219  11.938   4.597 -0.2100 -0.0095  0.1378
25832W        W44036   9.152   6.326   2.789 -0.0251 -0.0033  0.0701
25833W        W44037   0.353  10.177   3.271  0.0500  0.3765 -0.2525
25834W        W44038  11.760  10.867  11.978  0.1492  0.4755  0.2584
25835W        W44039  10.328   6.666  16.259 -0.1644  0.0165 -0.0281
25836W        W44040  12.532  14.790   0.687  0.0480 -0.0068  0.1340
25837W        W44041   4.817   9.933  17.182  0.0736 -0.3891 -0.1921
25838W        W44042   7.059  16.863   3.860 -0.1988 -0.6107  0.1502
25839W        W44043   8.743   0.157   3.724  0.3021  0.1671 -0.1570
25840W        W44044  10.613  11.066   0.638  0.0450  0.0460 -0.0939
25841W        W44045  10.738   7.907  13.530  0.2325  0.0558 -0.0180
25842W        W44046  15.875   4.017  15.711  0.3072  0.0411  0.4737
25843W        W44047  16.223   9.782   2.649  0.2541  0.0569  0.2801
25844W        W44048  11.890  11.799   0.642  0.2981 -0.2140  0.0370
25845W        W44049  15.673  17.148  15.063  0.2437 -0.0985  0.0567
25846W        W44050  14.803  11.362  13.788 -0.0420  0.0091  0.1936
25847W        W44051   7.069   5.458  15.694  0.1008 -0.1766  0.2116
25848W        W44052  16.517  13.205  16.012 -0.0886  0.2831  0.2001
25849W        W44053   9.149  15.784   5.070  0.2507 -0.1061  0.0814
25850W        W44054   2.053   5.288   4.068  0.2303 -0.0706  0.1327
25851W        W44055   2.816  11.862  14.976  0.0753 -0.2154 -0.3062
25852W        W44056   3.705   2.614   3.469 -0.1944  0.1337 -0.2552
25853W        W44057  13.334  14.772   0.918 -0.3556  0.0625 -0.2098
25854W        W44058  17.303   8.423   3.207 -0.0649 -0.2641 -0.2017
25855W        W44059   1.927  13.211  12.909  0.2383  0.0109  0.0809
25856W        W44060   0.476   8.698   0.520  0.1044 -0.3471  0.0937
25857W        W44061   7.034   0.439  16.700  0.2709  0.0837  0.1232
25858W        W44062   3.999   6.348   3.598 -0.0692 -0.0089 -0.2981
25859W        W44063   7.755   7.009  14.647 -0.0952  0.3619  0.1249
25860W        W44064  10.177   6.575  15.707  0.4119 -0.1483 -0.0349
25861W        W44065   2.768   3.402   3.068  0.0107  0.0507  0.0116
25862W        W44066   1.957   1.202   2.379  0.0481  0.2356  0.0044
25863W        W44067  13.566  11.818   3.034 -0.0758 -0.0957  0.1925
25864W        W44068  15.063   1.449  13.958  0.1932 -0.3125 -0.4522
25865W        W44069  13.313   1.108   0.019 -0.0303  0.3632  0.0913
25866W        W44070   5.014  10.805  11.296 -0.3662 -0.0853  0.1809
25867W        W44071   9.426   7.108  17.069 -0.3336  0.0562 -0.0704
25868W        W44072  11.421  15.513   3.119  0.0575  0.1011 -0.1986
25869W        W44073   8.849   1.637   0.763  0.1381  0.3511  0.1798
25870W        W44074   4.553   7.360  16.692 -0.2366  0.1449  0.0652
25871W        W44075   3.522   9.754  15.543 -0.4050  0.2142 -0.0066
25872W        W44076  16.403  16.162  17.390  0.3315  0.2770 -0.0269
25873W        W44077   7.991   0.688  15.213 -0.3457 -0.2576  0.2844
25874W        W44078   8.493  10.715   0.302  0.2198  0.0515 -0.0957
25875W        W44079   4.405  15.308  17.067 -0.2483  0.0915 -0.1511
25876W        W44080  12.110   5.007   5.417  0.1780 -0.0309  0.3616
25877W        W44081  13.047   3.898  14.508  0.0167 -0.0554 -0.0739
25878W        W44082   3.315  11.235  14.416  0.0633  0.2464  0.2232
25879W        W44083  15.268   4.570   1.648 -0.1725 -0.1144  0.2360
25880W        W44084  10.198   8.064  12.801  0.0090  0.0945  0.0854
25881W        W44085   0.786  16.833  13.734 -0.6784  0.0771  0.0731
25882W        W44086  13.067  15.304   0.488 -0.0257 -0.1915 -0.1621
25883W        W44087  14.801  16.108  13.298  0.0778  0.0410  0.1214
25884W        W44088   8.628   6.216  17.505  0.0184  0.0730 -0.1013
25885W        W44089   0.751  16.993  13.259 -0.1153  0.4572 -0.1239
25886W        W44090  10.336   2.446  14.856  0.1418  0.1311 -0.0277
25887W        W44091   9.904   0.351  14.635  0.1221  0.3826 -0.3459
25888W        W44092   9.241  14.886   4.779  0.2245 -0.1867 -0.0605
25889W        W44093   0.459   9.025  14.507 -0.2521  0.0141  0.0080
25890W        W44094  15.730   2.692   2.522 -0.0648  0.3031  0.2251
25891W        W44095  15.058   1.639   1.764  0.1980 -0.1058  0.4668
25892W        W44096  13.498   8.186  15.437 -0.2065 -0.1940 -0.2994
25893W        W44097  16.448  10.389  17.411 -0.6206 -0.1328  0.1288
25894W        W44098  12.805   8.606   5.609  0.0678 -0.1812 -0.0153
25895W        W44099   2.777   9.881  13.579  0.2897  0.2339 -0.0215
25896W        W44100   1.472   2.763   0.994 -0.0267  0.0149  0.1144
25897W        W44101   0.472   0.172  11.303 -0.0523  0.2283  0.4231
25898W        W44102  15.306  16.797   0.265 -0.0565 -0.3179 -0.0440
25899W        W44103   0.177  16.351   1.061 -0.1444  0.2605 -0.4217
25900W        W44104   3.533   8.214  16.662  0.1901  0.1615  0.3655
25901W        W44105  16.786  11.038  13.605  0.0133  0.0903  0.0840
25902W        W44106  12.185  13.932  11.331  0.2211  0.2470 -0.1888
25903W        W44107   5.759  11.341  12.373 -0.1100  0.0276 -0.1918
25904W        W44108   8.812   9.461   3.678  0.0226  0.1323  0.2033
25905W        W44109  12.499  11.574  16.817 -0.1719  0.0077  0.0345
25906W        W44110   0.957   0.809   1.369  0.0310  0.2422 -0.2307
25907W        W44111   7.250   3.254  14.796  0.3248 -0.1644  0.2608
25908W        W44112   5.423   5.447   3.180  0.0545 -0.2345 -0.1600
25909W        W44113   9.918  10.773  14.498  0.0189  0.1257  0.0213
25910W        W44114  15.817   8.393   3.940  0.4150 -0.3150  0.0593
25911W        W44115  12.130  13.140   3.229  0.0780 -0.1942  0.0472
25912W        W44116   0.949  14.431  16.407 -0.0890  0.1082 -0.0144
25913W        W44117   3.221   4.518  15.203  0.2238  0.1521  0.1830
25914W        W44118   3.590   3.425  17.110 -0.3636 -0.2996 -0.0228
25915W        W44119  16.580   9.295   0.661 -0.1184 -0.0023  0.1460
25916W        W44120  16.638  13.085   1.331 -0.0093 -0.0447 -0.2872
25917W        W44121   5.412   0.060  15.574  0.0527 -0.1256  0.0111
25918W        W44122   9.885   4.987  16.926 -0.0825  0.2178 -0.5263
25919W        W44123   3.405   0.939  13.544 -0.0660  0.1214  0.2041
25920W        W44124  10.888  13.425   0.516 -0.0857  0.0315 -0.0114
25921W        W44125   2.259   7.071   0.596  0.2233 -0.0042 -0.2161
25922W        W44126   2.921   7.831  11.959 -0.1601 -0.2124  0.0060
25923W        W44127  14.416  13.100   5.087 -0.0066  0.3757 -0.2680
25924W        W44128  17.181   6.902   0.408  0.0419  0.0415 -0.0365
25925W        W44129   1.559   1.901  16.602 -0.1008  0.0752  0.0223
25926W        W44130  11.716  12.114   2.227 -0.0513 -0.0218  0.1595
25927W        W44131   2.196  13.033  14.627 -0.1081 -0.0343 -0.0153
25928W        W44132   1.240  13.356   4.574  0.0856 -0.0490 -0.0364
25929W        W44133  14.359   9.289  13.285  0.1965 -0.1262 -0.2799
25930W        W44134  14.585  10.956  12.461  0.3630 -0.4251  0.0537
25931W        W44135  12.040   6.756  15.920 -0.1660 -0.0949 -0.1995
25932W        W44136   6.245   0.268   0.247  0.2635  0.1688 -0.1629
25933W        W44137  10.170  15.119   5.191 -0.0543  0.0927  0.0274
25934W        W44138  16.879  14.412   4.144 -0.1471 -0.0003  0.0687
25935W        W44139  10.364   9.168  13.462 -0.0237 -0.3168  0.1538
25936W        W44140  13.316   8.078   2.372  0.4177  0.0064 -0.2676
25937W        W44141   3.426  13.259  13.939  0.0005  0.1392 -0.1015
25938W        W44142   5.415  13.025   2.380 -0.1478 -0.1986 -0.0027
25939W        W44143   5.090  10.389  13.661 -0.4328 -0.0986  0.0924
25940W        W44144  13.563  12.107   5.335 -0.0799  0.0723 -0.2230
25941W        W44145   2.948   5.435  16.857 -0.0077 -0.2704  0.0862
25942W        W44146   6.089   3.134   2.166 -0.1818  0.0588 -0.0898
25943W        W44147   1.834   3.718   0.602  0.1578 -0.3056 -0.0226
25944W        W44148   3.540   1.306   1.586  0.0641 -0.3235  0.0779
25945W        W44149   1.181  16.846   4.817  0.0546  0.2041 -0.1293
25946W        W44150  10.983   0.824  16.826 -0.1030  0.0826  0.2546
25947W        W44151  10.281   7.209   1.519 -0.1127 -0.1422  0.3740
25948W        W44152  10.375   4.037  17.086 -0.0273  0.0655 -0.1539
25949W        W44153  17.251   6.758   1.200  0.3184  0.2103 -0.1460
25950W        W44154  14.704  10.838  15.461 -0.2889 -0.0442 -0.0483
25951W        W44155   7.999  16.430   0.644  0.0888  0.1201  0.0242
25952W        W44156   7.965  11.686  17.437  0.0548 -0.0862  0.0544
25953W        W44157   8.983   7.166   4.990  0.1769 -0.3422 -0.2353
25954W        W44158   2.604   7.163  14.660 -0.1529 -0.0548  0.1452
25955W        W44159  11.892   8.176  12.694  0.3171  0.0340 -0.2148
25956W        W44160  15.459  15.706  12.352 -0.0500  0.0923 -0.1154
25957W        W44161   2.728   4.742   4.299  0.2829 -0.2532  0.0435
25958W        W44162  10.217  13.337  15.401  0.3482  0.0922 -0.1990
25959W        W44163  10.705   4.500  13.731  0.3954 -0.1087  0.0622
25960W        W44164  16.859   5.275   2.566  0.3051 -0.0087 -0.3046
25961W        W44165   3.774  12.988   0.024 -0.0984  0.0097 -0.1130
25962W        W44166  10.798   2.083   5.104  0.0080 -0.2213 -0.2162
25963W        W44167   1.415  14.174  16.346  0.1858 -0.1473  0.0290
25964W        W44168  11.145  14.868   4.985 -0.1368  0.1056 -0.0200
25965W        W44169   4.112   6.480  16.021  0.1036 -0.1158  0.0092
25966W        W44170  16.309   3.278  14.405  0.0662 -0.0099 -0.1814
25967W        W44171   6.820  14.734  16.889 -0.0428 -0.3105 -0.1830
25968W        W44172   3.236   1.638   0.275 -0.0787  0.1134 -0.1592
25969W        W44173  17.279  15.121   1.336 -0.0481 -0.1363 -0.1234
25970W        W44174  16.453   0.883  12.893  0.1760  0.2242 -0.1190
25971W        W44175   8.981  15.604  17.092 -0.0405 -0.0126 -0.1965
25972W        W44176  12.282   6.594  14.525  0.0865  0.0098  0.1408
25973W        W44177   8.486   3.381   3.180  0.0396 -0.0482  0.1146
25974W        W44178   5.442  15.749   6.378 -0.0140  0.0097  0.2752
25975W        W44179   0.941   1.870  15.022  0.0271 -0.3354 -0.0001
25976W        W44180  12.669   6.950   3.437 -0.1775  0.0045 -0.0476
25977W        W44181  14.148  16.939   1.927 -0.0614 -0.1020 -0.1015
25978W        W44182   8.843   8.361  12.149 -0.1248 -0.0989 -0.4086
25979W        W44183   0.543  10.325   1.985 -0.1766 -0.2272 -0.2070
25980W        W44184   5.940   3.660   1.124  0.0227 -0.1678 -0.0542
25981W        W44185   9.304   5.009   4.623  0.2764  0.0011 -0.2181
25982W        W44186   4.020  17.219  16.406  0.0002 -0.2524 -0.2942
25983W        W44187  14.767   4.036   2.549 -0.2608 -0.1462 -0.3278
25984W        W44188   7.010   1.807  12.168 -0.0218  0.0924  0.2008
25985W        W44189   2.765   0.160   2.514  0.0411  0.2167  0.0861
25986W        W44190   5.108  12.132   1.221 -0.1916  0.0526  0.3115
25987W        W44191   1.028   6.364   4.839  0.1443 -0.0881 -0.3311
25988W        W44192   3.914   4.690   3.008  0.1671 -0.0393 -0.2257
25989W        W44193  12.804  11.379  13.533 -0.0010  0.3240 -0.0532
25990W        W44194   6.151   3.499   4.714  0.0541 -0.0867 -0.1091
25991W        W44195   5.337   0.569  15.626 -0.1759 -0.2973 -0.2167
25992W        W44196   3.818  11.643  13.788  0.0789  0.1514  0.1484
25993W        W44197  16.268  12.770   0.575 -0.0578 -0.0824  0.1027
25994W        W44198   6.348   3.651   0.276  0.2949 -0.1523 -0.0896
25995W        W44199  14.260   5.621  13.203 -0.0663 -0.3644  0.2521
25996W        W44200   5.383   0.598   0.064 -0.1644  0.0235 -0.1486
25997W        W44201   9.563  12.666  12.542 -0.0232  0.2364 -0.1460
25998W        W44202   5.381   3.846  17.176  0.2400 -0.0639 -0.2222
25999W        W44203   7.134  12.572   3.385 -0.1377  0.0951  0.1006
26000W        W44204   3.085   8.404   4.189  0.2266  0.0171  0.2792
26001W        W44205   7.152   5.681   1.361  0.0507 -0.0908 -0.4449
26002W        W44206   9.917   2.324   2.506 -0.0640 -0.1665  0.0275
26003W        W44207  14.069  13.667  16.906 -0.1045  0.1938 -0.1426
26004W        W44208  12.364   3.811   4.634  0.0289  0.3801 -0.3043
26005W        W44209   4.675   2.095  16.623  0.4283  0.1741  0.1324
26006W        W44210   6.224   7.200   3.356 -0.2541 -0.2346  0.1210
26007W        W44211  10.489   1.637  13.715 -0.2352 -0.1299  0.0832
26008W        W44212   3.845   6.329  12.950  0.0102 -0.2896  0.1113
26009W        W44213   0.896   1.517  14.697 -0.2260  0.1416  0.0908
26010W        W44214   0.849   0.296   1.323 -0.3578 -0.0358  0.2596
26011W        W44215  15.736  14.024   0.440  0.2688 -0.1563 -0.1177
26012W        W44216  13.548  12.559  14.620 -0.0032 -0.1459  0.1139
26013W        W44217   4.030  13.071   4.397  0.0470 -0.1492  0.0051
26014W        W44218   7.152   9.578  16.909 -0.0693 -0.0244 -0.0200
26015W        W44219   2.129   9.685   1.021 -0.3383  0.3212  0.4537
26016W        W44220   4.814   8.670   0.379 -0.1061 -0.0272  0.1249
26017W        W44221  15.494  13.755   2.309 -0.2134 -0.1881 -0.0444
26018W        W44222   2.212   6.915  12.218 -0.0856 -0.0238 -0.0625
26019W        W44223  13.205  15.467  12.788  0.2645  0.1954  0.2814
26020W        W44224   0.018  15.534   0.295 -0.0015 -0.1662 -0.1560
26021W        W44225   5.362   3.540   0.088  0.1875  0.0119  0.1360
26022W        W44226  12.098   6.572   3.239  0.0316  0.0981 -0.1269
26023W        W44227   6.364   9.134   2.124  0.0295  0.3066 -0.2082
26024W        W44228  10.146   8.120  16.864 -0.3530 -0.1462 -0.0171
26025W        W44229  11.883   2.426  14.121 -0.1980  0.1530  0.1461
26026W        W44230  11.766  10.065   3.561  0.0509 -0.0930  0.2569
26027W        W44231  16.668   1.743  17.004  0.0956 -0.2803 -0.0243
26028W        W44232   2.814  11.433  16.238 -0.2688 -0.0389 -0.1332
26029W        W44233   5.658  16.260   0.131 -0.2089  0.0416  0.1990
26030W        W44234  15.467   6.747  15.512 -0.0075  0.1534  0.1629
26031W        W44235   3.414   1.622   3.260  0.0434  0.4157 -0.1430
26032W        W44236   8.298  12.051  16.237  0.0427  0.0521 -0.1984
26033W        W44237   9.914  12.021  15.879  0.0375  0.0450 -0.2801
26034W        W44238  16.365   7.311  14.757  0.2166  0.2120 -0.0047
26035W        W44239   3.322   0.765   4.234 -0.2591  0.1467 -0.3451
26036W        W44240   3.296   5.813  15.745 -0.3160  0.0550 -0.0606
26037W        W44241   9.848   8.112   4.361 -0.0264 -0.3103  0.0469
26038W        W44242  14.936  16.810   4.763 -0.2683 -0.0549 -0.3224
26039W        W44243   6.530  10.779   3.407 -0.2036 -0.2631  0.1686
26040W        W44244  10.157   4.090   0.617  0.0612 -0.0541  0.0126
26041W        W44245   9.039   9.634   1.405 -0.0705  0.1547 -0.1047
26042W        W44246   0.243  12.143  13.058  0.3169  0.0907  0.0439
26043W        W44247  15.421   1.039   5.612 -0.2525 -0.0801 -0.3016
26044W        W44248   1.134  13.594  16.358  0.0267 -0.3449 -0.2171
26045W        W44249  14.088   2.339  16.229 -0.1813  0.0103 -0.1228
26046W        W44250   3.480   8.504  14.457  0.1212 -0.0744  0.0875
26047W        W44251   0.136  12.502   2.458 -0.2639  0.4630 -0.0232
26048W        W44252  13.626   7.613  12.484 -0.0976 -0.0516 -0.2206
26049W        W44253  17.132  14.769   0.648 -0.2209 -0.1003  0.3011
26050W        W44254   4.831  11.743  12.226 -0.1601 -0.1706  0.0288
26051W        W44255   8.329   9.658   1.673  0.2509 -0.1001  0.0512
26052W        W44256   5.323   4.881   0.044  0.1268 -0.4053 -0.2405
26053W        W44257   3.084  10.919   2.951 -0.1157  0.2314  0.3706
26054W        W44258   2.346  11.935   4.674  0.0093 -0.1321  0.4154
26055W        W44259  12.411   8.666  13.151 -0.0060  0.4454  0.2909
26056W        W44260  12.158  12.954   0.567 -0.0940  0.1081  0.3106
26057W        W44261   3.052  15.786   1.413  0.1683  0.1009 -0.1663
26058W        W44262   8.683   7.328  13.166 -0.0737 -0.0572 -0.3055
26059W        W44263   9.113   5.313  14.183 -0.0026  0.2734 -0.1670
26060W        W44264   7.928   1.330   0.139  0.0201 -0.0000 -0.1679
26061W        W44265   5.318   8.969  12.396 -0.0677  0.0340  0.0690
26062W        W44266  12.968  11.612  16.072 -0.1640  0.2252  0.0445
26063W        W44267   5.993   4.704  16.689 -0.0556  0.0009 -0.1529
26064W        W44268   1.984   9.551   2.440  0.0887  0.1108 -0.0041
26065W        W44269   0.878   6.833   1.042 -0.1027  0.0509 -0.2480
26066W        W44270   8.325   6.393  13.899 -0.1197  0.2051  0.2054
26067W        W44271   6.703   9.005  16.186  0.0870 -0.0275 -0.1169
26068W        W44272  14.839   6.134  16.488 -0.0438  0.1809  0.0259
26069W        W44273   4.543  10.305  16.345 -0.1535  0.1198 -0.0175
26070W        W44274   7.161  13.737  17.240 -0.1860  0.1118  0.2168
26071W        W44275   7.277   0.403   1.785 -0.0716 -0.0199 -0.0830
26072W        W44276   5.942   2.419   1.965  0.1566 -0.3163 -0.0853
26073W        W44277   7.741   2.435  15.094 -0.2098 -0.1341  0.2414
26074W        W44278  12.913  15.368   2.111  0.1179  0.0229  0.0318
26075W        W44279  15.463  14.268  16.237 -0.1611 -0.0393 -0.1985
26076W        W44280   6.231   2.919   3.873 -0.0257 -0.0163 -0.3309
26077W        W44281   4.389   6.417  16.944 -0.1620  0.3149  0.2489
26078W        W44282  17.243   8.448  17.147 -0.1512 -0.0067 -0.0097
26079W        W44283   6.116   2.582  14.721 -0.2372 -0.1293  0.1141
26080W        W44284  13.863  12.290   4.545  0.1572  0.0035 -0.3445
26081W        W44285  14.876   2.114   1.641 -0.0877  0.0474 -0.2123
26082W        W44286   3.016   7.233  17.452 -0.0640 -0.2822  0.0447
26083W        W44287   8.066   0.425   4.929  0.1125 -0.0725  0.0320
26084W        W44288   8.845  16.404   4.589  0.3132 -0.0956  0.0058
26085W        W44289  17.213  16.599  11.779 -0.2184  0.1630 -0.0525
26086W        W44290  13.458   0.279  16.165  0.0099 -0.0288  0.3706
26087W        W44291  14.185  16.289  16.533 -0.0863  0.2075  0.1323
26088W        W44292   9.941  14.920   2.225  0.0683 -0.0934 -0.2568
26089W        W44293  10.846   7.533  14.690 -0.2209 -0.1141 -0.1074
26090W        W44294   8.180   9.536  17.134  0.3783  0.0071  0.1363
26091W        W44295   2.098  15.090  16.882  0.0615  0.2568  0.1514
26092W        W44296  14.379   3.506   0.157 -0.2175  0.3787 -0.1744
26093W        W44297   3.669  14.514   0.267 -0.1371  0.0015 -0.1816
26094W        W44298   1.562  14.498   5.594 -0.1307 -0.2772 -0.0487
26095W        W44299  14.469   2.490   0.584 -0.0201 -0.0709 -0.0354
26096W        W44300   7.828   2.915  17.024 -0.2317 -0.1399 -0.0029
26097W        W44301   0.799  13.119  15.521  0.2216  0.1669  0.0525
26098W        W44302  13.563   7.531   3.307  0.2236  0.1457  0.1017
26099W        W44303   6.073   4.877   4.232  0.0780  0.0272  0.2255
26100W        W44304   9.703   3.561  15.043  0.0560  0.2484 -0.2350
26101W        W44305  11.212   5.839   4.905 -0.0607  0.0677 -0.0446
26102W        W44306   5.703   9.240   2.680  0.1764 -0.1243  0.0423
26103W        W44307   2.046   9.473   5.646  0.1119  0.5104  0.2159
26104W        W44308   2.380   9.287  14.775  0.3702 -0.0848 -0.0987
26105W        W44309  15.331   9.965   0.609 -0.0688  0.3107  0.0637
26106W        W44310   6.708   1.355  13.743  0.4116 -0.1070 -0.3519
26107W        W44311  13.223   0.492  17.184 -0.1712  0.2015 -0.1812
26108W        W44312  10.829   2.371  14.128 -0.0094  0.1501 -0.0456
26109W        W44313   2.090  16.668   3.899 -0.0173  0.0199  0.1722
26110W        W44314   0.722  15.752   3.383  0.0814  0.1585 -0.0618
26111W        W44315  16.657  14.596   0.761  0.4304  0.0309 -0.0327
26112W        W44316  11.022   8.959   2.437 -0.0988  0.1157 -0.0346
26113W        W44317   6.950   5.117  14.935  0.1097 -0.1304  0.0205
26114W        W44318   2.165   6.347  13.304  0.0357 -0.1699 -0.0523
26115W        W44319  13.368   6.995  12.752 -0.2600  0.3109  0.1925
26116W        W44320   7.769   5.352  15.515 -0.2080  0.4260  0.0235
26117W        W44321   3.295   3.341  13.959  0.1070 -0.0601  0.0606
26118W        W44322   3.832   7.853  15.852  0.1065 -0.2151  0.0364
26119W        W44323  15.325  15.140  16.614 -0.1212 -0.1081 -0.0762
26120W        W44324  16.524   7.802   2.652 -0.3076 -0.1115 -0.0822
26121W        W44325  16.870   7.368  15.703  0.0749  0.0894  0.0007
26122W        W44326   9.037   7.642   0.951 -0.0125  0.1079 -0.2014
26123W        W44327   5.469   0.729  15.219 -0.0754  0.0866 -0.1726
26124W        W44328   8.612   3.468   2.678 -0.1119 -0.2990  0.2863
26125W        W44329  15.528  16.383  15.364 -0.0996  0.1472  0.3422
26126W        W44330   1.404   8.614   2.785 -0.1355 -0.0149  0.0377
26127W        W44331   4.359   9.100  14.701  0.1841  0.0342  0.3406
26128W        W44332  16.684   9.070   1.537  0.1511  0.1356  0.3105
26129W        W44333  16.643   9.615   4.147 -0.1022 -0.0164  0.1272
26130W        W44334   7.433  10.485  15.438  0.0636  0.1225  0.0108
26131W        W44335   0.764   8.338  13.835 -0.0601  0.2524  0.0386
26132W        W44336   8.015  10.207  16.161  0.0599 -0.0124  0.1305
26133W        W44337  15.320   9.385   0.795  0.0607  0.1659  0.1770
26134W        W44338   0.220  17.000   5.802 -0.1282  0.0841  0.1830
26135W        W44339   5.908  13.760   3.150 -0.0541  0.0119 -0.0874
26136W        W44340   1.845  13.992  16.010  0.1308 -0.3083 -0.2488
26137W        W44341  12.266  16.834  15.854 -0.0076 -0.1484  0.1288
26138W        W44342   1.911  14.310  16.400  0.0277  0.0524  0.3707
26139W        W44343   0.537   5.910   1.062 -0.0817 -0.1008 -0.1681
26140W        W44344  11.352  12.133  17.274  0.1510  0.0981 -0.1285
26141W        W44345   2.681   2.111   4.478  0.0118 -0.1860 -0.1351
26142W        W44346  17.025  16.763   4.642 -0.1808 -0.2738 -0.1496
26143W        W44347   3.912   1.195   3.665  0.0495 -0.0358 -0.0469
26144W        W44348   9.943   6.625  15.201  0.2100  0.1317 -0.0149
26145W        W44349   7.506   7.783   3.136  0.2856 -0.1644  0.5239
26146W        W44350  10.608  16.828   4.117 -0.1334 -0.0270  0.1961
26147W        W44351  10.537   9.671  13.551  0.0788 -0.0769  0.0771
26148W        W44352   2.725   9.986   3.602  0.1610  0.0961 -0.1538
26149W        W44353   8.075  13.942   4.304 -0.0930  0.0529  0.2287
26150W        W44354   6.863   3.873  16.151 -0.0520  0.1895 -0.1650
26151W        W44355   5.301  13.490   2.205 -0.0627  0.0075 -0.1030
26152W        W44356   9.441   1.468   4.738 -0.2424  0.0786  0.0787
26153W        W44357  16.629   2.725   0.984  0.1125  0.2237 -0.1323
26154W        W44358   1.360   1.422   0.410 -0.1327  0.0066  0.1136
26155W        W44359  15.649  10.112  17.033 -0.0856  0.1077  0.0357
26156W        W44360  14.455  12.086  13.581  0.1833  0.1666  0.0823
26157W        W44361  13.361   6.655   5.122  0.0384 -0.0192 -0.1718
26158W        W44362   2.142  15.789   4.438 -0.2419 -0.0598  0.0150
26159W        W44363   8.495   7.619  14.684 -0.0426 -0.1531  0.2509
26160W        W44364  14.114   2.555  14.289  0.0365  0.0497  0.0233
26161W        W44365  10.848  11.469   5.775 -0.0153  0.0899  0.1123
26162W        W44366   7.014  16.352   1.691  0.0281 -0.1108 -0.1232
26163W        W44367  10.984  11.315  16.220  0.1593  0.2554 -0.2933
26164W        W44368  11.809   3.841   5.974 -0.4040 -0.1392 -0.0652
26165W        W44369   1.104   6.749   0.294  0.1676 -0.1458 -0.1059
26166W        W44370   7.863  11.577  14.766 -0.1707  0.2732  0.1713
26167W        W44371   7.773  12.249  12.825 -0.0207  0.2308 -0.2837
26168W        W44372  11.730   3.379  16.279  0.2166  0.2250 -0.2123
26169W        W44373  16.986  16.289  13.934  0.1454 -0.1719 -0.2101
26170W        W44374  14.906   9.946   2.596  0.0746  0.1058 -0.2177
26171W        W44375   9.350   5.112   0.880  0.0825  0.2832 -0.0275
26172W        W44376  12.817   3.690   3.321 -0.0046 -0.3053  0.0085
26173W        W44377   8.957   4.478  16.914 -0.0099  0.3463 -0.1435
26174W        W44378   1.799   1.979  17.433  0.0504 -0.1655 -0.1211
26175W        W44379  15.790   9.830   4.834 -0.0800  0.0567 -0.1186
26176W        W44380  11.528   3.939  12.238  0.2032  0.2523 -0.0904
26177W        W44381   5.223  14.793  15.671 -0.1795  0.1145 -0.3671
26178W        W44382   9.960  12.567  12.825  0.0039  0.0491  0.3100
26179W        W44383   3.348   4.699  17.321  0.0435  0.3584 -0.1423
26180W        W44384   8.160   6.209   0.133  0.2159 -0.4271 -0.0984
26181W        W44385   7.469   5.135   0.582  0.1581  0.2163  0.1450
26182W        W44386  15.497  14.917  15.719 -0.0536 -0.0854 -0.0260
26183W        W44387   1.622   3.304  15.789  0.1845  0.1779 -0.0190
26184W        W44388  15.050   8.078  12.222  0.1202 -0.0635 -0.0093
26185W        W44389   9.652   0.142  16.001  0.3624 -0.1629 -0.1770
26186W        W44390   6.707   2.299   4.074  0.1286 -0.0624  0.2171
26187W        W44391  12.955  12.440   2.575 -0.1461 -0.2002  0.1198
26188W        W44392   7.143  15.766   2.333 -0.2507 -0.1360 -0.1056
26189W        W44393  13.355  16.573  15.308  0.1003  0.3035  0.1945
26190W        W44394   9.186   6.010   4.370 -0.1333  0.0042 -0.1924
26191W        W44395   9.128   0.017   2.932  0.2598 -0.0186  0.0909
26192W        W44396   1.266  10.356   4.882  0.1840  0.0737  0.0088
26193W        W44397  10.535  16.769  15.298 -0.0392  0.1503 -0.1144
26194W        W44398  11.809  14.982  12.981 -0.2887  0.0884  0.3056
26195W        W44399  10.267   5.522  16.328  0.0944 -0.1223  0.0461
26196W        W44400   5.262   4.669  14.030  0.0866  0.0608 -0.0433
26197W        W44401  13.940   6.794  15.515 -0.2182  0.1810  0.1772
26198W        W44402   2.565  12.829  14.338  0.2419  0.0999  0.1873
26199W        W44403  13.336   8.286  15.931 -0.0275  0.2880 -0.0023
26200W        W44404   1.556   5.563   0.970  0.2177 -0.2565  0.0424
26201W        W44405  16.577   8.325  12.433 -0.1499 -0.0227 -0.0880
26202W        W44406  16.378   0.273  14.085  0.0582 -0.0812 -0.3991
26203W        W44407   2.332   1.785  15.959 -0.1492 -0.2843 -0.0747
26204W        W44408  14.121   6.506   0.829 -0.0845  0.0635 -0.1319
26205W        W44409   0.926   9.346  12.378  0.3358  0.1298  0.1905
26206W        W44410   9.412  11.050   4.513 -0.0977 -0.0925  0.0580
26207W        W44411   5.500   1.244  16.087  0.0341  0.0795 -0.0207
26208W        W44412   4.157   5.470   2.733  0.0907  0.2100 -0.2139
26209W        W44413   3.387   3.986  13.594 -0.1067 -0.0383 -0.1670
26210W        W44414   5.567  15.229  17.122  0.0882  0.2236  0.0203
26211W        W44415   5.268  11.305   0.157  0.2126  0.3552 -0.0907
26212W        W44416  16.500  11.097   2.840 -0.0998  0.2369  0.6292
26213W        W44417  12.137   9.407   0.023 -0.0055 -0.0566 -0.3973
26214W        W44418  12.219   6.024   5.052  0.0362 -0.1792 -0.1361
26215W        W44419   1.578   5.380   4.466  0.0660  0.3736  0.3730
26216W        W44420  15.746  11.160   4.944 -0.2229  0.1690 -0.1544
26217W        W44421  15.585   6.159  12.594  0.1442  0.0065 -0.1120
26218W        W44422   8.817   4.844  12.663  0.0236  0.5573 -0.1722
26219W        W44423   3.222   2.867   4.391  0.2729 -0.1275 -0.1036
26220W        W44424   8.380   5.473   0.602  0.0569  0.0055 -0.4328
26221W        W44425   2.539  15.090   4.074  0.1694  0.0010  0.1226
26222W        W44426   1.164  17.047   2.671  0.0405 -0.3227 -0.0121
26223W        W44427  14.900   1.008  13.099 -0.2242 -0.0275 -0.2359
26224W        W44428  13.515  15.529  14.812  0.1515 -0.0916 -0.3065
26225W        W44429   1.099   4.993  13.072  0.1757  0.2251  0.4629
26226W        W44430  16.119  11.876  16.468 -0.3400 -0.3234 -0.2139
26227W        W44431   7.965  10.945  13.725 -0.0291 -0.0617 -0.0111
26228W        W44432   9.685   7.290  16.698  0.1680 -0.0411 -0.1042
26229W        W44433  11.930  10.893   2.971 -0.1905  0.0051 -0.0984
26230W        W44434   6.932   4.565   4.849 -0.1521 -0.1631  0.2140
26231W        W44435  11.452   7.124  14.489  0.1886  0.0316 -0.1274
26232W        W44436   7.950  16.499   2.837 -0.3276  0.4496  0.3133
26233W        W44437  13.356  13.400   1.819 -0.1104 -0.2566 -0.0561
26234W        W44438  15.876  16.894   2.678 -0.0471  0.1311  0.1757
26235W        W44439   8.539   7.784  11.099  0.2312  0.1845  0.3271
26236W        W44440   5.216   4.470   1.821  0.0450  0.2378  0.0459
26237W        W44441   7.129   9.866  15.969 -0.2063  0.0371  0.0255
26238W        W44442   4.445  16.837  14.709  0.0670 -0.1307  0.2748
26239W        W44443  13.955  16.575   3.541  0.0213  0.1342 -0.0217
26240W        W44444  11.803  12.621  14.513  0.0017 -0.1172  0.1993
26241W        W44445   3.289   4.726  14.202  0.0869 -0.2814 -0.2122
26242W        W44446   4.119   5.619  16.443  0.0629 -0.0681 -0.0367
26243W        W44447  10.495   5.180  13.800 -0.0740  0.1162 -0.3172
26244W        W44448   2.246   3.348  16.920 -0.0040  0.2076 -0.0783
26245W        W44449   5.575  14.593   3.141  0.2307  0.2343 -0.0024
26246W        W44450  10.289   8.744  14.293 -0.0602  0.0907  0.3983
26247W        W44451  13.737   3.446   4.186  0.2722  0.0366 -0.2916
26248W        W44452  16.728  16.489   4.992  0.3582 -0.0400 -0.0573
26249W        W44453   1.309   4.405   3.934 -0.2577 -0.3174  0.0216
26250W        W44454  14.346   2.302  13.145 -0.1947  0.1314  0.1312
26251W        W44455   0.023   0.959  16.240 -0.0689  0.3082  0.0749
26252W        W44456   0.095  15.024  15.713  0.1391  0.1216  0.1626
26253W        W44457   9.762  10.242   2.343 -0.0348 -0.0838 -0.3797
26254W        W44458   2.602  13.450   0.520  0.0754  0.0674  0.0272
26255W        W44459   8.988   2.628  16.599 -0.0276  0.0648  0.1604
26256W        W44460   0.759  15.641   1.042 -0.0153  0.1563  0.0945
26257W        W44461   8.447   1.215  17.469 -0.0007  0.0985 -0.3699
26258W        W44462   4.405  10.870   0.142 -0.1466  0.2422  0.2166
26259W        W44463  11.386  15.077   3.995  0.0020  0.1088  0.3768
26260W        W44464   8.176   7.669   1.135 -0.2748  0.0523 -0.2393
26261W        W44465   4.872  12.418   0.361  0.0131  0.0444 -0.1610
26262W        W44466  16.520  13.550  15.659 -0.1516 -0.2084 -0.0085
26263W        W44467   7.313   1.146   0.417  0.0250 -0.2173  0.3316
26264W        W44468  14.066   5.241  11.972 -0.0794 -0.1070  0.1761
26265W        W44469   1.234   4.179  14.654 -0.0809  0.0012  0.0220
26266W        W44470  16.634   2.912   4.661  0.0286  0.1074  0.3550
26267W        W44471   7.890   6.373   2.965  0.1152  0.1471 -0.3733
26268W        W44472   5.082  13.527   3.741  0.0856 -0.0839 -0.0262
26269W        W44473  13.620  15.467   5.012  0.3561  0.0629 -0.0459
26270W        W44474   6.224   6.549  16.606 -0.0045  0.1421  0.0743
26271W        W44475  15.823  13.064   4.661  0.0148 -0.3929 -0.2493
26272W        W44476  14.948   3.121   4.124  0.1075 -0.0757 -0.0133
26273W        W44477   3.968  12.976  12.450  0.1129  0.1621  0.1268
26274W        W44478   7.273   2.314  15.104  0.0412  0.3022  0.2009
26275W        W44479  13.219   5.953   2.816  0.1803 -0.0324  0.2041
26276W        W44480   6.681   4.090   1.644 -0.2007  0.0931 -0.0297
26277W        W44481   9.939  12.324  16.264 -0.0232  0.0967 -0.3065
26278W        W44482   1.306   3.699  14.554  0.2787 -0.0341 -0.1073
26279W        W44483  13.978   8.532   0.064 -0.0474  0.0428 -0.0617
26280W        W44484   0.236  16.617  14.522 -0.3883 -0.2750  0.1711
26281W        W44485  14.518  12.729  12.429 -0.0750 -0.0994 -0.1877
26282W        W44486   8.294   8.814   3.050  0.2323  0.0674 -0.0901
26283W        W44487  12.471   1.206  14.077 -0.1061  0.2215 -0.1386
26284W        W44488   7.742  12.044   2.543  0.0585  0.2014  0.3052
26285W        W44489   4.184  10.685   3.748  0.0682 -0.4447 -0.2504
26286W        W44490   2.564   1.478  13.689 -0.1744 -0.0358  0.3392
26287W        W44491   9.571   1.424   4.284  0.2760 -0.3867 -0.0808
26288W        W44492   6.239   4.165  13.191 -0.2467 -0.0056 -0.1238
26289W        W44493   9.994   7.241   5.174 -0.2983 -0.2194  0.3416
26290W        W44494  12.213   3.117  15.411  0.0714  0.1506 -0.3539
26291W        W44495  15.792  16.601  16.624  0.0059  0.3040 -0.2402
26292W        W44496  13.948  15.747  13.444 -0.0074 -0.2713  0.0124
26293W        W44497   3.995   1.318   1.909 -0.2122  0.1363 -0.0245
26294W        W44498   9.439   8.004  17.458 -0.2406 -0.2619  0.3767
26295W        W44499  13.492   2.219  12.179  0.0258 -0.0079  0.1564
26296W        W44500  13.084   7.394   3.285 -0.0506 -0.2470 -0.1033
26297W        W44501  16.974   6.344   4.609 -0.0341 -0.2903  0.2887
26298W        W44502  10.788   1.523  17.392  0.1144  0.3142 -0.0165
26299W        W44503   8.314  16.882  17.327  0.0451 -0.3391 -0.0116
26300W        W44504   3.429   4.580   3.026 -0.0311 -0.1021  0.5538
26301W        W44505  17.076  11.372   2.255 -0.1750  0.1534 -0.1129
26302W        W44506   3.457   4.975  16.931  0.1142 -0.0878 -0.2285
26303W        W44507   4.340   4.280  17.245 -0.2266  0.1956  0.1056
26304W        W44508   0.313   8.954  12.721 -0.0779  0.2034 -0.0426
26305W        W44509   1.534   1.189   0.862  0.2007  0.1121  0.1650
26306W        W44510   6.194  12.317  13.923  0.1670  0.3089  0.0867
26307W        W44511   8.014   8.032   1.467 -0.0206 -0.0233  0.4202
26308W        W44512  14.178   7.986   1.274 -0.0172 -0.1403 -0.3956
26309W        W44513  12.927   2.394  13.580  0.1315  0.2260 -0.3698
26310W        W44514   4.112  11.084   1.364  0.0829  0.3300  0.0275
26311W        W44515   9.211  10.721   2.452 -0.1347 -0.2347  0.0127
26312W        W44516   0.816  15.743  12.535 -0.1708 -0.1140 -0.1644
26313W        W44517   3.098  10.176  16.832  0.0564 -0.0051 -0.0449
26314W        W44518  14.034  14.609   4.347  0.1141  0.0512 -0.0125
26315W        W44519  14.408   3.033  12.484 -0.1659  0.2183 -0.0586
26316W        W44520  12.892  13.730   0.112  0.2562 -0.1960 -0.1510
26317W        W44521   9.792   0.695   1.411  0.0112 -0.1580 -0.4306
26318W        W44522   9.611   4.437  15.294 -0.0505  0.1558  0.1178
26319W        W44523  11.089   1.961   1.248  0.2214  0.0367  0.0245
26320W        W44524  11.254  14.320  12.728 -0.0852  0.0756 -0.2551
26321W        W44525   3.704   0.700  14.536 -0.1552  0.2009  0.1844
26322W        W44526  12.620   0.264   1.539  0.2798 -0.1074 -0.0074
26323W        W44527  15.288  15.740  14.498 -0.0994 -0.0304 -0.0710
26324W        W44528  15.975   4.203   2.245 -0.0356  0.1013  0.1072
26325W        W44529   9.764   2.526   2.096 -0.0450 -0.1157  0.2694
26326W        W44530  13.566   5.743   0.399 -0.0783 -0.2546 -0.0568
26327W        W44531   8.482   6.935   1.041  0.0348  0.2407  0.1033
26328W        W44532  12.255  11.791  14.183  0.0849  0.1598 -0.1333
26329W        W44533  16.029  11.485  15.314 -0.1238  0.3695 -0.0751
26330W        W44534  15.795   1.194  15.462 -0.1094  0.0790  0.0202
26331W        W44535   7.091   1.076  14.051  0.0463  0.1994 -0.0053
26332W        W44536  13.903  11.689  16.981 -0.1298  0.0718  0.2570
26333W        W44537  15.539   2.922   1.892 -0.0173 -0.2422  0.2842
26334W        W44538  13.142   1.370  13.059  0.0866 -0.1974 -0.0309
26335W        W44539  17.155   2.135   5.459  0.3284 -0.2345 -0.0082
26336W        W44540   0.859  14.840  13.428  0.1631 -0.1460  0.0232
26337W        W44541  11.411   9.432  14.736  0.1537 -0.1012  0.1790
26338W        W44542   2.824   5.604   5.386  0.0418 -0.0715 -0.1200
26339W        W44543  12.680   1.638  14.201  0.3025  0.0089 -0.0909
26340W        W44544   6.901   3.700   4.397  0.0473 -0.2361  0.1235
26341W        W44545   5.835   3.669   3.949  0.0462 -0.1780 -0.2320
26342W        W44546   7.541   8.124  15.577 -0.0938 -0.0712  0.1507
26343W        W44547   4.969  13.371   5.403  0.2852 -0.0939  0.1926
26344W        W44548  10.487   5.863   6.025 -0.0557 -0.2079  0.1486
26345W        W44549  14.095   8.175  17.313 -0.5090  0.1697 -0.0458
26346W        W44550  11.302   2.274   0.234  0.0537  0.0360  0.4113
26347W        W44551   2.397  11.453  12.688 -0.3055  0.3406 -0.0820
26348W        W44552   9.577  13.018   2.793 -0.0032 -0.1284 -0.1294
26349W        W44553  11.804  15.851   5.450 -0.0415 -0.1193 -0.0446
26350W        W44554   7.779   2.429  17.230  0.0564  0.0509  0.4849
26351W        W44555  16.336   4.575   4.531  0.4345 -0.0548 -0.2132
26352W        W44556   9.516  16.990  15.498 -0.0776 -0.3169 -0.0689
26353W        W44557   0.510  16.385  17.021  0.3213 -0.2319  0.0305
26354W        W44558  13.236  15.759   1.894  0.0880  0.2526  0.0260
26355W        W44559   0.059   2.242   4.012 -0.0658 -0.0464  0.0293
26356W        W44560   1.831   4.772   0.467  0.1890 -0.1047  0.0834
26357W        W44561  15.560   8.859   2.136 -0.1920 -0.1559 -0.0723
26358W        W44562  14.106   0.516  12.601 -0.0816  0.2743  0.0818
26359W        W44563   8.954  11.178   1.554 -0.0614  0.1519  0.2907
26360W        W44564   7.799   0.621   0.321 -0.3328  0.2034 -0.0056
26361W        W44565  16.706  14.544   3.454 -0.0751  0.0448  0.4360
26362W        W44566  11.978  16.314  13.942  0.1790 -0.2650 -0.4488
26363W        W44567  16.210   1.302  12.543 -0.0241  0.1973  0.1734
26364W        W44568  11.977  10.381  15.770 -0.1029  0.1528  0.0859
26365W        W44569   4.047   1.472  13.107 -0.1328  0.1851  0.0625
26366W        W44570   4.022   5.630   3.265  0.2038  0.1416 -0.0929
26367W        W44571   6.477  11.297  12.890  0.2022 -0.1251  0.3502
26368W        W44572  15.096   1.395   0.472 -0.0123 -0.1580 -0.4170
26369W        W44573  14.354  11.791  12.926  0.1923 -0.3630 -0.1084
26370W        W44574  17.173  12.588   5.286 -0.1229  0.1843 -0.3756
26371W        W44575  13.561   1.802  15.877 -0.3158  0.5539  0.2853
26372W        W44576  11.469   7.151  15.101 -0.2976 -0.1849 -0.0017
26373W        W44577   4.161   1.354  14.186  0.0766  0.0326  0.2987
26374W        W44578   7.206  13.604   3.560 -0.1356  0.3834 -0.0792
26375W        W44579  12.946  13.422   0.543 -0.3749 -0.0477  0.2950
26376W        W44580  16.084   2.022  15.051 -0.4414 -0.4620 -0.0609
26377W        W44581   9.016   8.182   1.227 -0.1465 -0.2352  0.1540
26378W        W44582   7.312  11.249  11.407  0.0493  0.1426  0.1345
26379W        W44583   4.378   4.771   3.863 -0.1365  0.0555 -0.0469
26380W        W44584   1.788  16.528   3.500 -0.0703 -0.0582 -0.0350
26381W        W44585  11.337   6.704  15.170  0.0800 -0.2782  0.0521
26382W        W44586   8.067   8.664  14.025  0.2227 -0.1366 -0.1779
26383W        W44587   2.527   1.713  12.709 -0.2138  0.0046 -0.2216
26384W        W44588  12.348  16.792   5.469  0.1918 -0.2872 -0.2874
26385W        W44589  14.401   1.972   0.547 -0.2021 -0.1042  0.3461
26386W        W44590   3.622   0.593  16.149 -0.1656 -0.0252  0.1290
26387W        W44591   5.583  12.386   0.838  0.0740 -0.1750  0.2530
26388W        W44592   2.405   1.026  14.041 -0.0416  0.0087  0.2709
26389W        W44593   9.403   9.073   2.884 -0.2027 -0.0119  0.1886
26390W        W44594  16.517   1.592  17.430 -0.1267  0.3277 -0.0562
26391W        W44595  11.750  16.521   4.432  0.0955 -0.1905  0.1247
26392W        W44596  13.956   0.561   5.491  0.0642  0.0949 -0.1847
26393W        W44597   8.643   4.769   5.269 -0.1070 -0.1079  0.0574
26394W        W44598  13.840   1.382   1.098  0.0478 -0.3239 -0.1831
26395W        W44599   4.216  15.297   0.065  0.1342 -0.2725 -0.0099
26396W        W44600   4.626  14.747  14.131 -0.1578 -0.0605 -0.1731
26397W        W44601   5.417   3.569  14.717  0.0626  0.1585  0.1463
26398W        W44602  14.185  12.626  14.586  0.1446  0.0212 -0.0982
26399W        W44603  16.672  10.298  16.958  0.0268  0.2862 -0.1629
26400W        W44604   0.635  17.131  12.785  0.0254 -0.0397 -0.0380
26401W        W44605   8.829   6.378   4.275 -0.4898  0.1502  0.0072
26402W        W44606   7.877   7.090   2.146 -0.0425 -0.0651 -0.0407
26403W        W44607  12.708   2.690  12.695  0.3769 -0.1261 -0.2245
26404W        W44608  10.985  11.490  14.082  0.2637  0.0406  0.3042
26405W        W44609  12.125   7.252  12.973 -0.5983 -0.0396  0.2089
26406W        W44610   0.204  12.494  15.116 -0.1175  0.1595 -0.0053
26407W        W44611   0.760  10.535  16.821  0.0166  0.2772  0.2944
26408W        W44612   3.104  16.689  16.038  0.1349 -0.1516 -0.0644
26409W        W44613   5.587   1.758   1.128 -0.0642  0.2949  0.1714
26410W        W44614  14.579   9.088  16.738  0.0572  0.0659  0.0548
26411W        W44615   4.746   7.651  16.331  0.2815  0.1906  0.0847
26412W        W44616   6.878   0.914  12.387  0.0189 -0.1243  0.0557
26413W        W44617   9.561   8.858  13.966 -0.2437 -0.0687  0.2890
26414W        W44618   2.435   9.000   1.748  0.0968  0.0484 -0.2072
26415W        W44619  13.425  11.325   2.825  0.2308  0.2937 -0.1997
26416W        W44620  11.543   9.601   4.339  0.0310  0.1446  0.4370
26417W        W44621   4.055  13.371  12.733  0.2975 -0.0956  0.0283
26418W        W44622  11.957   5.911  14.017 -0.1281 -0.1056 -0.0747
26419W        W44623   5.336  11.120   2.186 -0.2155 -0.0547 -0.2616
26420W        W44624   7.865  14.240  13.796 -0.0661  0.0803 -0.2909
26421W        W44625  16.896   4.218  12.803 -0.3314  0.1663 -0.2767
26422W        W44626   4.847  14.933  12.332 -0.2534 -0.2854 -0.3018
26423W        W44627   1.365   7.861   5.269  0.0495 -0.0091 -0.1071
26424W        W44628   0.991  10.074   3.487  0.2339  0.3137  0.0237
26425W        W44629   4.000   1.249  17.354  0.0638  0.1797  0.1379
26426W        W44630  15.165  10.587  14.863 -0.2913 -0.1228  0.0807
26427W        W44631   9.985   7.320   2.454 -0.0782 -0.0366  0.0330
26428W        W44632  10.227  12.227   2.818  0.4697 -0.0523 -0.0500
26429W        W44633   0.689   4.664   0.941  0.1079 -0.0389 -0.0672
26430W        W44634  11.678   7.678  12.595 -0.0644 -0.1749 -0.0757
26431W        W44635   8.316   3.270  13.222 -0.0409 -0.1677 -0.0491
26432W        W44636  13.295  10.736   0.057 -0.2076 -0.0409 -0.0487
26433W        W44637  16.022  11.161   1.741 -0.1995 -0.1031  0.0918
26434W        W44638   4.167  12.499   4.088 -0.1433  0.2381 -0.1785
26435W        W44639   0.079   7.287   2.333  0.0817  0.0380  0.1690
26436W        W44640  13.893   5.835  12.764  0.2429 -0.1676  0.1869
26437W        W44641  12.212   6.085  12.392  0.1951  0.3158  0.1117
26438W        W44642   0.030   1.879   0.558  0.1253  0.0554 -0.5027
26439W        W44643  15.428  14.239  17.228  0.2719 -0.3862  0.0316
26440W        W44644   1.278   8.110   0.431 -0.0258 -0.1718  0.0378
26441W        W44645   2.900  14.596   4.201 -0.3334 -0.1599 -0.0487
26442W        W44646   9.883   8.859  12.615 -0.1868  0.3915  0.1889
26443W        W44647  12.292   4.983   2.468  0.2676 -0.0123 -0.1263
26444W        W44648   6.341   3.708  13.390 -0.0107 -0.1014 -0.2402
26445W        W44649  15.508  14.444   4.116 -0.0471  0.1459 -0.1552
26446W        W44650   7.227   3.541  14.403  0.3863 -0.6713  0.1235
26447W        W44651   9.895   5.225  15.548 -0.3949  0.5099 -0.2542
26448W        W44652   5.719   3.451   4.464 -0.0027 -0.3339  0.1511
26449W        W44653  10.580   6.314  13.204  0.1352 -0.1549  0.0149
26450W        W44654   9.731  17.122   5.103 -0.1312  0.0041 -0.0642
26451W        W44655   6.105  10.093  12.592 -0.0669  0.0760 -0.1949
26452W        W44656   3.693  15.780   5.013  0.0665  0.2536 -0.1130
26453W        W44657   7.250   7.892   5.082  0.2788 -0.1576 -0.0562
26454W        W44658   2.780   7.234   5.245  0.4484 -0.1772 -0.1241
26455W        W44659  10.895  10.692   1.932 -0.2432  0.2179  0.0199
26456W        W44660  13.363  17.206  13.188  0.3405 -0.0333  0.1702
26457W        W44661   5.874  10.883  16.883  0.0899 -0.0299  0.0501
26458W        W44662   8.154   9.769  15.782  0.2299 -0.1909  0.0031
26459W        W44663   5.129   5.481   2.387 -0.1318  0.0517  0.0797
26460W        W44664   8.467   5.847  15.979 -0.1061  0.1365 -0.0374
26461W        W44665   0.823  13.053   4.454 -0.0641 -0.1750 -0.0609
26462W        W44666   5.131   1.815  16.579 -0.1132 -0.3615  0.0751
26463W        W44667   7.728  11.957  15.061  0.0449 -0.1288 -0.4522
26464W        W44668   5.791   4.653  12.449  0.0381  0.0205  0.1179
26465W        W44669   0.775   1.023  13.429 -0.0176  0.1091  0.1382
26466W        W44670  13.076   2.500  16.332 -0.1107  0.0114  0.1261
26467W        W44671  11.002   7.443   4.082  0.0713  0.0914  0.2717
26468W        W44672   6.016  11.556  15.059  0.0503 -0.0827 -0.0712
26469W        W44673   7.222  17.285  12.317  0.1502  0.2225 -0.2976
26470W        W44674   9.999  15.214   0.957 -0.1649 -0.0570 -0.0250
26471W        W44675   2.465  12.602   2.764  0.3777 -0.1999  0.2058
26472W        W44676  14.747   2.945  17.507 -0.0650  0.1221  0.1333
26473W        W44677   7.865   1.573   3.769 -0.1277  0.1489  0.0958
26474W        W44678  15.475  13.623  13.456 -0.0514  0.2408  0.1971
26475W        W44679  11.684  15.968  14.946  0.0978 -0.0104 -0.1149
26476W        W44680   8.350   7.042  17.253 -0.0066  0.1174 -0.2301
26477W        W44681   5.403   4.686  13.012 -0.0561  0.0609  0.0865
26478W        W44682   0.717   4.300   2.405  0.0242 -0.1231 -0.1645
26479W        W44683   9.472   8.027  13.094  0.1368 -0.4811  0.0592
26480W        W44684   8.365  14.415   3.544 -0.1234 -0.0218 -0.1860
26481W        W44685   1.497  11.401   2.479  0.0722 -0.1358 -0.1471
26482W        W44686   3.207   4.126   0.377  0.4221 -0.0238  0.0714
26483W        W44687   4.196   3.798  17.063 -0.0095  0.0139  0.2144
26484W        W44688  11.740  11.299  17.519  0.1555  0.1251  0.2990
26485W        W44689  16.923   2.863  14.376  0.1604  0.0091  0.3092
26486W        W44690  13.044  10.438   1.454  0.0420  0.2940 -0.0877
26487W        W44691  15.053   7.272   6.114 -0.1856  0.2307  0.2750
26488W        W44692   5.795   4.196   5.340 -0.0025 -0.1476 -0.0987
26489W        W44693   5.751  10.533  17.430  0.2903 -0.0319  0.0200
26490W        W44694   0.422   0.573   0.310  0.0669 -0.0393 -0.1649
26491W        W44695  16.086   1.620   4.210  0.0016 -0.1332 -0.0759
26492W        W44696   4.998   3.292  16.052 -0.0717  0.2377 -0.1218
26493W        W44697   6.004   9.447   2.338  0.0370 -0.0598 -0.0716
26494W        W44698   0.719  17.180  17.237 -0.0194 -0.0580  0.0975
26495W        W44699  15.843   0.141  14.736 -0.1436  0.0778  0.1394
26496W        W44700   6.720  13.077  16.632 -0.0943 -0.1935  0.1016
26497W        W44701   0.441   5.902   2.207 -0.1874 -0.4237  0.3397
26498W        W44702  16.815   7.772   3.757 -0.0647  0.0920  0.0464
26499W        W44703   4.155   8.338   1.625  0.0954 -0.0508 -0.0300
26500W        W44704  11.515   9.201   0.434 -0.1688 -0.1740  0.0781
26501W        W44705   4.485   2.769  12.415 -0.1892  0.1331 -0.0097
26502W        W44706   6.955  16.812  16.815  0.2058 -0.0448 -0.1144
26503W        W44707   6.613  12.709   1.164 -0.4834 -0.2807  0.1030
26504W        W44708  13.374  13.347  12.518 -0.1580 -0.2136 -0.0698
26505W        W44709  12.908   4.493  16.672 -0.1547  0.0044 -0.1632
26506W        W44710   7.779  14.571  12.240 -0.0923  0.1441 -0.1868
26507W        W44711  10.936   4.870  11.800 -0.0633  0.0949  0.1416
26508W        W44712   7.519   8.971  15.591 -0.2946 -0.1799 -0.1827
26509W        W44713   3.476  11.048  16.602  0.0957  0.1942 -0.1492
26510W        W44714   4.630   7.289  14.328 -0.0480 -0.2323 -0.0784
26511W        W44715  11.455  12.445   5.271 -0.3562  0.1222 -0.1586
26512W        W44716  14.314  12.613   3.903 -0.1568  0.0608  0.2068
26513W        W44717  17.221  15.606   1.150  0.1294  0.2110  0.0742
26514W        W44718   9.422   6.646   0.244  0.0959  0.0853  0.2664
26515W        W44719  15.979   3.674  17.016  0.0875  0.1126 -0.0027
26516W        W44720   9.822   8.744  15.315  0.1705  0.1480  0.2316
26517W        W44721   8.566  11.107  17.463 -0.0033  0.0371 -0.1682
26518W        W44722  14.508   4.405  17.330  0.1876  0.3990 -0.0246
26519W        W44723   7.533   2.639  13.989 -0.2347 -0.2189  0.1094
26520W        W44724  15.335   6.455  16.499  0.2963 -0.1570  0.4245
26521W        W44725  13.980   6.811  16.702 -0.2332  0.0423 -0.3096
26522W        W44726   4.810   6.630   0.296 -0.0277 -0.2219  0.2241
26523W        W44727   9.427   5.253   1.590 -0.2350 -0.0291  0.1202
26524W        W44728   7.751   1.474  16.366 -0.0788 -0.0914  0.2171
26525W        W44729   0.638   8.833  13.580  0.1928  0.1425  0.0784
26526W        W44730  16.251   0.850   2.018  0.2325 -0.0097 -0.0150
26527W        W44731  13.993  13.874   2.996 -0.0140  0.0433 -0.1036
26528W        W44732  12.924  13.874  15.714  0.0997 -0.1003  0.2376
26529W        W44733   9.494   9.868  12.407  0.1986 -0.0624  0.3321
26530W        W44734   7.405  12.154  17.146 -0.1123 -0.0128 -0.2044
26531W        W44735   4.415   8.793  13.466  0.2151  0.3248 -0.1060
26532W        W44736   1.243   1.188  17.518  0.1140  0.5157  0.0775
26533W        W44737  11.156   4.769  14.853 -0.0268  0.0718 -0.1223
26534W        W44738  17.166   8.869   4.594 -0.2948 -0.0602 -0.1308
26535W        W44739  11.034  13.395  12.831  0.1601 -0.0484 -0.2146
26536W        W44740   5.828   9.589   5.072 -0.0376 -0.2861 -0.2523
26537W        W44741   1.077  14.355  14.868 -0.0323 -0.0495  0.1853
26538W        W44742   7.583   4.284   3.097  0.3306  0.1270  0.0183
26539W        W44743  15.116   0.022   4.434  0.0247  0.1015 -0.0121
26540W        W44744  11.592  14.869   3.523 -0.2551 -0.0179  0.1936
26541W        W44745  14.840  17.262   2.585  0.1546 -0.2814 -0.0632
26542W        W44746  17.045   4.745   0.695  0.3366  0.0201  0.0378
26543W        W44747  14.814  12.381  15.164  0.0591 -0.2716  0.1712
26544W        W44748  14.130  14.694   0.851  0.4398  0.2139 -0.2697
26545W        W44749   3.987   4.960   0.141  0.2749  0.0238  0.3939
26546W        W44750  16.855  15.443   1.565  0.1231 -0.2544  0.2898
26547W        W44751   2.983  15.718  15.806  0.2285 -0.0840 -0.1927
26548W        W44752  17.116   0.780   5.024 -0.3700 -0.2360 -0.0051
26549W        W44753   1.256  16.813  15.507  0.1186 -0.0389 -0.2302
26550W        W44754   8.261  16.745   0.945 -0.0381 -0.1989  0.0213
26551W        W44755   2.291  15.205  13.929  0.2208  0.0595 -0.0143
26552W        W44756   7.726  16.209   3.737  0.2565 -0.0637 -0.0124
26553W        W44757   2.226  15.694   3.517 -0.1303 -0.1536 -0.1237
26554W        W44758  13.391   1.915   1.949 -0.3721 -0.0349  0.1516
26555W        W44759   3.515  10.898  12.747  0.2766  0.0273  0.0151
26556W        W44760  14.635   4.332   4.863  0.3425  0.0864  0.0395
26557W        W44761   9.563   3.702   4.447 -0.2781  0.3890  0.0115
26558W        W44762  16.789   5.889  14.603  0.2581  0.0795  0.1703
26559W        W44763   7.595   7.977  13.008 -0.0477  0.1711  0.1867
26560W        W44764   4.797  15.728   2.581  0.2231  0.0341  0.0966
26561W        W44765   3.304   0.276  13.266 -0.2856  0.0017 -0.1192
26562W        W44766  13.438   2.318   5.384  0.1007 -0.0579 -0.0857
26563W        W44767  16.094  11.928   0.999 -0.0878  0.1458  0.1179
26564W        W44768   1.221  10.657   1.258  0.0391 -0.1407  0.1168
26565W        W44769   6.643  14.123  13.902 -0.0433 -0.2077  0.1566
26566W        W44770   2.042  15.462   4.836 -0.0525 -0.1705 -0.2617
26567W        W44771   9.970   7.105  12.903  0.3806  0.0171  0.2878
26568W        W44772   3.833   3.429   5.028  0.1983 -0.0114  0.0288
26569W        W44773  12.787  11.899  16.551  0.0414 -0.1913 -0.1038
26570W        W44774   6.523   0.112   1.487  0.3523 -0.5226  0.1835
26571W        W44775   6.390  16.722   3.086 -0.1731 -0.1014  0.0589
26572W        W44776   5.326   2.315   5.147  0.3524 -0.1359 -0.0286
26573W        W44777   0.596   6.360   1.915  0.1479  0.0054  0.3326
26574W        W44778  11.064   0.045   1.999  0.1515  0.3671 -0.2467
26575W        W44779  14.582  12.814   4.696  0.2542  0.2744  0.3121
26576W        W44780  11.236  12.486  13.102  0.0514  0.2335  0.1996
26577W        W44781   0.746   1.570   1.069  0.2467  0.2069  0.1804
26578W        W44782   8.455  12.215   3.818  0.2734 -0.2250 -0.0262
26579W        W44783  12.126   0.167   3.186 -0.1337  0.0907 -0.0403
26580W        W44784  16.060  16.775   4.611 -0.1085 -0.1142 -0.0840
26581W        W44785   7.886   0.608   4.012 -0.2318 -0.0331  0.0581
26582W        W44786   3.331   2.354  13.814  0.0724  0.0410  0.3245
26583W        W44787   4.752  16.206   4.179  0.3311  0.0040 -0.1559
26584W        W44788  15.671   1.641   0.175  0.1740 -0.3120 -0.0172
26585W        W44789  12.317   3.467   3.287  0.3771 -0.0787 -0.2738
26586W        W44790  17.269   8.897   2.885  0.3014  0.0530 -0.0211
26587W        W44791  10.789   7.081   3.700  0.2509  0.0233  0.4750
26588W        W44792   9.972  12.894   5.195 -0.0003  0.5082 -0.0553
26589W        W44793  10.492   5.119   4.142 -0.1067 -0.1305 -0.0961
26590W        W44794   0.012  11.376  16.502  0.1168  0.0093 -0.1216
26591W        W44795  12.094   2.509   2.926 -0.1995 -0.0116  0.3274
26592W        W44796   2.440  15.926  13.419 -0.0110  0.0487 -0.5453
26593W        W44797   7.495   6.551   4.638 -0.0865  0.0979 -0.0635
26594W        W44798  17.018  14.298   1.434 -0.1529  0.1011 -0.1680
26595W        W44799  10.821   7.519   4.878  0.0838 -0.1490  0.4043
26596W        W44800   6.971  16.762  13.401 -0.1928 -0.0641 -0.0815
26597W        W44801  12.793   2.777   3.657  0.0593  0.0696  0.1233
26598W        W44802   5.415   7.612  14.394 -0.0409  0.0965  0.0676
26599W        W44803   8.431  12.396   4.271 -0.1372  0.1035  0.0514
26600W        W44804  16.120  15.933   5.105 -0.0320 -0.1799 -0.1936
26601W        W44805   1.447  15.802  13.022 -0.1669  0.0307  0.1427
26602W        W44806   2.571   5.606  17.169  0.2348 -0.1587  0.1012
26603W        W44807  11.128   8.774  15.278 -0.1423  0.2292  0.2923
26604W        W44808   1.643  10.122  12.151 -0.0859 -0.2471 -0.2529
26605W        W44809  16.260   0.431   3.327  0.1575  0.1727 -0.2785
26606W        W44810   3.277  11.676  13.691 -0.3731 -0.1737  0.2719
26607W        W44811   9.596  17.120   4.296  0.1116 -0.0939 -0.1741
26608W        W44812  10.837   8.006   0.313  0.2879  0.0478 -0.1991
26609W        W44813   1.797   2.903  14.483  0.0843 -0.1389  0.2642
26610W        W44814   1.636   1.888   2.797 -0.2657 -0.1521 -0.1050
26611W        W44815   1.206   3.458   0.483  0.0502  0.0631  0.2314
26612W        W44816   8.683  15.042   0.168 -0.0620  0.0142  0.0198
26613W        W44817   7.150   3.531   1.428  0.0544 -0.1576 -0.0849
26614W        W44818  12.775   1.841   1.167  0.3950  0.1106  0.0283
26615W        W44819  13.911   0.391   4.603 -0.1088  0.3629 -0.0756
26616W        W44820   6.257  11.371  12.414  0.0253  0.1172 -0.2127
26617W        W44821  13.094  13.395   5.003  0.1689 -0.1250  0.2804
26618W        W44822   8.736   1.357   4.047 -0.0305  0.0578 -0.0198
26619W        W44823   6.923  12.835  14.776 -0.2516 -0.0010  0.0058
26620W        W44824   7.820  16.884  14.776  0.1075  0.0917  0.2493
26621W        W44825  15.901   0.570   1.799 -0.1453 -0.1103  0.0633
26622W        W44826   3.443  14.445   0.897 -0.2019 -0.1232  0.1744
26623W        W44827  12.280   4.353   3.534 -0.2763  0.1271  0.0717
26624W        W44828  14.284   8.043   2.317 -0.1634 -0.2910  0.0852
26625W        W44829  10.582   0.595   2.001  0.2542 -0.1467 -0.1570
26626W        W44830   2.575   9.474   5.681 -0.2142 -0.2621  0.0746
26627W        W44831   7.341   2.817  16.673  0.1653 -0.0357  0.2230
26628W        W44832  15.902  13.084  15.821 -0.1531 -0.1612 -0.2272
26629W        W44833  14.527   2.727  15.357 -0.1035  0.2041  0.0676
26630W        W44834  13.835  10.404  15.806  0.0543  0.1070 -0.0579
26631W        W44835   4.337   8.988   3.787  0.2826 -0.1172  0.2079
26632W        W44836  16.679  16.248   1.648 -0.1284  0.3006  0.1063
26633W        W44837   4.824  15.681   4.284  0.0008  0.1583 -0.0290
26634W        W44838   9.770   3.464   1.000 -0.2459  0.2932 -0.1327
26635W        W44839  10.102  16.709   5.159  0.0730 -0.2322  0.1284
26636W        W44840   6.800  12.326   2.577  0.1950 -0.0407  0.1680
26637W        W44841   3.174   7.989   4.585 -0.5106 -0.0676 -0.2277
26638W        W44842   3.253  10.725   5.106 -0.1650  0.0526  0.2766
26639W        W44843   3.788  11.803   1.842 -0.0014 -0.2319 -0.1025
26640W        W44844   0.912   8.040  14.942 -0.0051  0.1926 -0.0473
26641W        W44845  15.525  10.528  17.258  0.2087  0.0335  0.1938
26642W        W44846  10.503   1.613   5.261  0.1037  0.0490 -0.0149
26643W        W44847  11.540   2.710   2.240  0.0781 -0.3855  0.0305
26644W        W44848  10.126   5.377   0.651  0.2247  0.1062 -0.1202
26645W        W44849   3.158  16.279  15.749 -0.0157  0.1417  0.0545
26646W        W44850   8.248   3.210  16.123 -0.2612  0.0759  0.1849
26647W        W44851   9.449  10.643   3.799 -0.0405 -0.0252 -0.2097
26648W        W44852   7.141   5.108   3.418 -0.2014 -0.0821 -0.0894
26649W        W44853   6.054   7.708  14.821  0.0377 -0.2940 -0.0650
26650W        W44854  15.589  17.224  16.102  0.1316 -0.2473  0.2453
26651W        W44855   2.718  13.066  17.332 -0.2042  0.2261  0.1888
26652W        W44856   2.134  16.503  17.482 -0.3475 -0.1233  0.1560
26653W        W44857  10.247   3.994   2.175 -0.0641  0.0796  0.0760
26654W        W44858   8.665   6.880  13.449  0.1461 -0.0775  0.0970
26655W        W44859   5.597   0.264  17.248  0.1654  0.3490 -0.0674
26656W        W44860  12.049   3.699  17.180 -0.1856  0.0893 -0.2724
26657W        W44861   1.354  12.326  16.366 -0.2978 -0.1730  0.1722
26658W        W44862   1.132  13.456  17.241  0.1286  0.2112  0.1650
26659W        W44863  15.684  14.836  13.282  0.0295  0.1980  0.0422
26660W        W44864  17.180   1.057  17.477  0.0930 -0.1264 -0.0576
26661W        W44865  10.448   7.846  17.146 -0.1888  0.0236  0.1455
26662W        W44866  12.852   1.131   0.266  0.0186  0.0936 -0.3618
26663W        W44867   2.881   2.685   0.522  0.2715 -0.0598  0.0841
26664W        W44868   5.460   5.323   5.577 -0.3354 -0.2808 -0.3895
26665W        W44869   1.881  11.292   5.298  0.2205  0.0948 -0.1989
26666W        W44870  10.768   5.583  14.596  0.2442 -0.0145 -0.1921
26667W        W44871   6.371  12.405  16.619 -0.0311  0.0376  0.0095
26668W        W44872   3.728   7.565  15.406 -0.1709  0.1081 -0.4624
26669W        W44873   3.982  15.113   4.977  0.0890 -0.0607  0.1602
26670W        W44874   5.101   4.608  15.994  0.0047 -0.0820 -0.4228
26671W        W44875   4.352   2.980  14.771  0.0171 -0.1258 -0.2095
26672W        W44876   3.468  12.500  13.951  0.2374 -0.0770 -0.0163
26673W        W44877  12.724   8.999  13.275  0.1530  0.1509 -0.3966
26674W        W44878  13.825   3.768  14.996 -0.2254 -0.0003  0.0115
26675W        W44879  15.355  16.194   3.032 -0.0654 -0.0121 -0.1795
26676W        W44880   9.208  11.651  15.878  0.1980  0.3133  0.1631
26677W        W44881   3.267  10.840  14.744  0.0135 -0.0747 -0.1894
26678W        W44882   4.491  11.809  14.489 -0.2990  0.2338 -0.0230
26679W        W44883  17.252   4.372  15.854  0.3458 -0.1115  0.2019
26680W        W44884   9.469   7.441   3.691  0.0500  0.1778 -0.2626
26681W        W44885   5.912  12.491   3.123  0.2224  0.1264 -0.0965
26682W        W44886  16.459   3.638  16.668  0.0350  0.1990 -0.2531
26683W        W44887   8.910  10.097  14.801  0.1698 -0.0736 -0.0639
26684W        W44888  11.387   6.443  13.501  0.2500  0.1123  0.0659
26685W        W44889  17.303  13.461   2.208  0.2877 -0.0766 -0.2990
26686W        W44890  11.448  15.766   5.118 -0.0978 -0.0261  0.0365
26687W        W44891   0.115   6.665  14.392  0.1695  0.0554 -0.1650
26688W        W44892   8.877  14.948  12.921 -0.4500  0.2330  0.0276
26689W        W44893   6.199  14.481  14.566  0.1676 -0.1828 -0.1117
26690W        W44894  14.660  14.922   2.752  0.1181  0.0581 -0.0361
26691W        W44895  15.607   6.764   2.689  0.0442  0.0055  0.0865
26692W        W44896   2.413  14.000   0.871 -0.0150 -0.1856 -0.1011
26693W        W44897   4.749  13.995   4.941  0.0779  0.0796  0.0087
26694W        W44898   6.190   5.751   4.770 -0.0125 -0.1115 -0.1941
26695W        W44899  16.114   6.850   2.538  0.1179 -0.0292 -0.1600
26696W        W44900   8.323   9.736   2.213  0.2140 -0.3547 -0.3103
26697W        W44901  14.984   6.572  11.653  0.1536  0.2303  0.0347
26698W        W44902   8.188  10.262  17.088 -0.0199 -0.2032  0.0868
26699W        W44903   0.679   7.234  14.555 -0.1058  0.0546 -0.2027
26700W        W44904   1.138   9.424  14.639  0.0306  0.0336  0.1317
26701W        W44905   5.813   3.144   3.529  0.0797 -0.1355 -0.0108
26702W        W44906   0.172  15.160  16.476  0.0731 -0.0961  0.1098
26703W        W44907   8.092  10.014   1.424  0.1488  0.0053  0.0912
26704W        W44908   3.783   9.020   3.738  0.1528 -0.1220  0.2403
26705W        W44909   4.071   8.408   2.588 -0.1808 -0.1503 -0.0255
26706W        W44910   0.833  10.296  16.412 -0.2533  0.3343 -0.0219
26707W        W44911  14.418   7.526  13.524 -0.0750 -0.3368  0.3323
26708W        W44912   6.608  10.907   1.603 -0.0648  0.1880 -0.1043
26709W        W44913  15.498   0.293  15.723 -0.3570 -0.0159  0.1541
26710W        W44914  16.863   9.211   4.885 -0.1774  0.0210 -0.3630
26711W        W44915   8.473  14.032   4.660 -0.2311 -0.0654 -0.0717
26712W        W44916   4.772  15.958   2.085 -0.1180  0.3909  0.0404
26713W        W44917   7.858  11.707   4.932  0.3538 -0.2837  0.0587
26714W        W44918  12.387   1.341  14.637 -0.5515 -0.1544  0.0501
26715W        W44919  15.774  12.651   5.559  0.1531 -0.4684 -0.1283
26716W        W44920   6.794   7.547   2.708 -0.0574 -0.3025 -0.0483
26717W        W44921   8.163   2.018  15.462  0.0312 -0.0480  0.0670
26718W        W44922  11.648   5.921   0.547 -0.1376 -0.0196  0.0766
26719W        W44923   7.919   6.094   4.012 -0.3318  0.4202 -0.2352
26720W        W44924   4.589  15.090   4.139  0.1177 -0.2175 -0.1780
26721W        W44925   7.029   0.009   3.700  0.1385 -0.0658 -0.2631
26722W        W44926  14.817  15.919   2.966 -0.1188  0.0943  0.2804
26723W        W44927  14.468   5.572   0.910 -0.1147 -0.0999 -0.0109
26724W        W44928  13.475   4.004  13.027  0.1259  0.0107  0.2673
26725W        W44929  14.911   8.302   5.070 -0.0668  0.1580 -0.0526
26726W        W44930   1.554  16.026  14.989 -0.1343 -0.5360  0.2406
26727W        W44931   1.295   2.855  12.181 -0.0994  0.2395  0.0989
26728W        W44932   9.444  16.577   3.412  0.4047  0.1580  0.1279
26729W        W44933   8.179  16.202  15.489 -0.0519 -0.1552 -0.2564
26730W        W44934  12.798  14.214   0.218 -0.0556 -0.0339 -0.0123
26731W        W44935   4.009   0.025   2.797  0.0503  0.0939 -0.2152
26732W        W44936  14.527  12.025   1.108  0.4188  0.1037  0.0051
26733W        W44937   0.165  16.113   3.091  0.0699  0.1276 -0.0452
26734W        W44938   1.673   7.043  14.521 -0.2874 -0.0452 -0.1056
26735W        W44939   1.536   0.245   0.437 -0.0998  0.0339  0.1756
26736W        W44940   8.188   4.634  12.707 -0.0568  0.0834  0.2530
26737W        W44941  16.069   7.403   5.229  0.1359 -0.1810  0.1776
26738W        W44942   0.702   6.530  13.189 -0.0418  0.1975  0.0572
26739W        W44943  17.118  12.767  14.623 -0.1517  0.4121  0.3008
26740W        W44944   9.965  11.282   5.465  0.0680 -0.0344 -0.1873
26741W        W44945  14.516  16.449  14.875  0.0684  0.2706 -0.0334
26742W        W44946   9.191   9.957   5.219  0.1721  0.0148 -0.0198
26743W        W44947  16.354  10.795   5.195  0.2828 -0.0768 -0.1019
26744W        W44948   1.731   9.376  14.620 -0.1720 -0.0572  0.0791
26745W        W44949  12.364  14.829   5.463  0.0416  0.5001  0.0647
26746W        W44950   3.891   5.149  16.793 -0.2098 -0.1027  0.3610
26747W        W44951   4.836  13.497  13.306  0.1002 -0.2490  0.1672
26748W        W44952  12.815   0.009  14.167  0.1492  0.0408  0.0250
26749W        W44953   8.147   7.337   3.171 -0.1069 -0.2330 -0.0979
26750W        W44954   6.657  15.693  13.123  0.1623 -0.1713 -0.2970
26751W        W44955   9.835   2.011   1.205  0.0247  0.0861 -0.0368
26752W        W44956  12.971  15.811   0.530  0.1482  0.0781 -0.0454
26753W        W44957   7.901   9.033   1.276  0.2204  0.0372  0.0869
26754W        W44958   1.114   6.796   3.561 -0.0436  0.1595  0.0985
26755W        W44959   3.481   8.704  15.952 -0.0507 -0.0394 -0.0562
26756W        W44960  11.654  15.049   1.700  0.0509  0.3653 -0.1728
26757W        W44961   2.271   1.894   0.643  0.0117  0.0388  0.1214
26758W        W44962  11.453   8.007   1.968 -0.0227  0.1711  0.0139
26759W        W44963  11.163  13.592  16.318 -0.0650 -0.3479 -0.0023
26760W        W44964   3.155   6.761  14.003  0.4377 -0.1663 -0.0830
26761W        W44965   8.879  13.200  16.624  0.0820  0.1706  0.3093
26762W        W44966   2.720   9.435  14.004 -0.1749 -0.0177  0.1756
26763W        W44967   2.728   3.916   2.128  0.2348 -0.2167 -0.2513
26764W        W44968   4.415   5.284   4.391 -0.1338  0.1271 -0.2145
26765W        W44969   0.011   1.054  16.775 -0.1667  0.0307 -0.0714
26766W        W44970   7.816   6.008   6.518  0.1544 -0.0242  0.0092
26767W        W44971  11.825   6.744   2.603 -0.0657  0.4370  0.2012
26768W        W44972  15.812   6.985   1.429 -0.2583 -0.3981 -0.4257
26769W        W44973  17.000   2.425   0.810 -0.0142 -0.2870 -0.2255
26770W        W44974  10.831   5.982   1.064  0.2663 -0.0345 -0.2967
26771W        W44975  11.265   5.570  13.244 -0.0551 -0.3107 -0.2875
26772W        W44976  13.720  12.167   3.563  0.1049 -0.1180 -0.3088
26773W        W44977  14.454   6.756  15.301 -0.0409 -0.0995  0.2213
26774W        W44978   7.769   6.075   2.498  0.2831 -0.3869 -0.0502
26775W        W44979   2.060  17.136  13.574  0.0698 -0.0297 -0.1776
26776W        W44980   0.557  16.301   2.625  0.1008 -0.3358  0.3379
26777W        W44981  12.996   5.652  10.878 -0.1257 -0.0946  0.0728
26778W        W44982  11.228   8.418  13.939 -0.1936  0.1574  0.1264
26779W        W44983  17.140   5.563  15.266 -0.0105 -0.0620 -0.1417
26780W        W44984   5.648   2.776   2.230  0.1891 -0.1886  0.1437
26781W        W44985  16.776  16.399   3.634 -0.0417 -0.1030 -0.0709
26782W        W44986  14.282   0.966   0.641 -0.1312 -0.1111 -0.1361
26783W        W44987   3.860   0.299   3.723 -0.2306  0.0879  0.1139
26784W        W44988  16.626  16.794   3.303 -0.1377  0.1841  0.0230
26785W        W44989   4.967   7.271  17.072  0.4640 -0.0463 -0.1979
26786W        W44990   0.029   2.580  12.618 -0.1033  0.2269 -0.0865
26787W        W44991   1.642  13.672  16.372 -0.2319  0.3086 -0.2153
26788W        W44992   3.575   1.984   4.109  0.1033  0.1365 -0.0265
26789W        W44993  10.706  12.422  12.009 -0.3646  0.0728 -0.1834
26790W        W44994   4.720   5.228  14.953 -0.0911 -0.0822  0.0164
26791W        W44995   6.033   9.965  13.925 -0.1136 -0.0183  0.1034
26792W        W44996   2.337  11.097   3.542 -0.0764  0.0160  0.1401
26793W        W44997   9.720   8.697   4.095  0.0939  0.3746 -0.0283
26794W        W44998   0.665  14.073  14.320  0.0471 -0.1711  0.2254
26795W        W44999   6.890   2.787  16.253 -0.0281 -0.2916  0.2470
26796W        W45000   1.255   5.155   3.257  0.0916 -0.1276 -0.1117
26797W        W45001   0.352   7.619  14.189  0.2477  0.1161 -0.2646
26798W        W45002  14.762   5.833  13.722  0.4038 -0.3030 -0.3341
26799W        W45003  15.946   4.593   3.585  0.0284 -0.0125  0.0712
26800W        W45004   6.078   0.612  14.096 -0.0495  0.2943 -0.0495
26801W        W45005   1.477   2.064   5.261 -0.1499 -0.0471 -0.0308
26802W        W45006  15.380   6.547  12.952  0.3336  0.0599 -0.0758
26803W        W45007  16.174  16.725   1.136  0.1252  0.1270 -0.0257
26804W        W45008   0.390   7.163   3.863 -0.3698 -0.1366 -0.1357
26805W        W45009   1.023  12.623   1.129  0.0186  0.0679  0.0425
26806W        W45010   3.150   8.605   2.279 -0.0075  0.2131 -0.1700
26807W        W45011   1.228  14.668   3.148 -0.0120 -0.0322  0.1990
26808W        W45012   8.613  16.839   4.662 -0.1599  0.0747  0.2489
26809W        W45013   6.602  11.077  17.376  0.0987  0.1197  0.1309
26810W        W45014  16.883   1.765   5.647 -0.1058  0.1388  0.0530
26811W        W45015   2.375   7.867   3.106  0.1201  0.1463  0.0052
26812W        W45016  11.568   3.924  17.066  0.1766  0.2385 -0.1698
26813W        W45017   9.978  12.893  11.913 -0.1679  0.0228  0.1391
26814W        W45018  15.475   3.878   2.981  0.0196  0.0506 -0.3971
26815W        W45019  14.757  14.609  13.443 -0.0986  0.0030  0.1595
26816W        W45020  13.822  10.414   2.067 -0.0853  0.0251  0.1155
26817W        W45021  15.173   4.222   3.950  0.0051 -0.2019 -0.1870
26818W        W45022   3.027   7.247  13.807 -0.1468 -0.2514 -0.2024
26819W        W45023   2.122   4.401  14.458  0.0876 -0.2453 -0.2602
26820W        W45024  11.403  15.521  15.844 -0.1236  0.1536  0.0038
26821W        W45025   9.422   0.315  13.198  0.0409  0.0584 -0.0292
26822W        W45026   3.070  17.260   4.034 -0.0336 -0.0899 -0.3147
26823W        W45027  16.159  12.927  13.798 -0.2738  0.0804 -0.2750
26824W        W45028   2.010  10.971   1.352  0.0628  0.1292 -0.2834
26825W        W45029   5.054  14.995   1.707  0.1808  0.1417  0.1335
26826W        W45030  15.836   2.193  12.569 -0.0915  0.2108  0.3388
26827W        W45031   9.379   2.343   4.876 -0.0966 -0.0914  0.3066
26828W        W45032  15.240  16.053  12.639 -0.3950 -0.2846 -0.0754
26829W        W45033  11.188   9.258   0.032 -0.1086 -0.0549  0.0117
26830W        W45034   5.212  16.982  16.569 -0.1209 -0.1386 -0.0291
26831W        W45035   9.773  17.290  12.517 -0.0373  0.1449 -0.0369
26832W        W45036  10.680   3.883   0.823 -0.0840  0.1383 -0.1747
26833W        W45037  10.055   8.520   3.169 -0.3508  0.0036 -0.3601
26834W        W45038  12.208  11.186   3.711 -0.0105 -0.2627  0.0265
26835W        W45039  15.899   1.972  13.595 -0.0893 -0.2822 -0.1552
26836W        W45040   4.387   9.729  12.151  0.3976  0.1710 -0.0976
26837W        W45041   8.943   9.657  17.460 -0.2943 -0.0343 -0.0480
26838W        W45042   3.486   5.027   4.924 -0.0678 -0.0891 -0.3131
26839W        W45043  16.066  16.531  17.077 -0.0855 -0.1611 -0.0633
26840W        W45044  10.796   7.136  13.589  0.2346  0.1621  0.0386
26841W        W45045   5.385   0.165  16.650  0.0674 -0.0736 -0.0274
26842W        W45046   9.648   5.356   4.840 -0.0450  0.1300  0.0883
26843W        W45047   8.107   1.562  17.243  0.0543  0.1478  0.0185
26844W        W45048   7.422   8.384  12.604 -0.0514  0.0492  0.0189
26845W        W45049  14.668   7.109  12.465  0.3644  0.1321 -0.3743
26846W        W45050  11.565  11.741  13.386 -0.1217  0.1375  0.0149
26847W        W45051  15.962  14.278  17.453 -0.2489  0.1221  0.0759
26848W        W45052   8.352   3.892   1.799  0.0192  0.0632 -0.1611
26849W        W45053   5.052   9.099  15.730  0.0999 -0.1047 -0.1237
26850W        W45054   9.544   8.376   5.176  0.1616  0.1852 -0.1036
26851W        W45055   9.475  14.736   3.248 -0.1672  0.1888 -0.0441
26852W        W45056   5.161  12.896  16.168  0.0069 -0.1163  0.1048
26853W        W45057   4.469   3.901  14.592 -0.3293 -0.2896  0.0846
26854W        W45058   5.173  15.878   4.022  0.1976 -0.0636 -0.1448
26855W        W45059   3.946   2.320  15.892  0.1198  0.0777  0.1988
26856W        W45060   0.643  15.392  17.161 -0.1096  0.0468 -0.2026
26857W        W45061  16.306   5.638   3.921 -0.0399  0.1502  0.0150
26858W        W45062   1.951   1.558   3.554  0.1700  0.0279 -0.0959
26859W        W45063  12.707   7.919   0.477  0.2149 -0.0219  0.0501
26860W        W45064   6.450   4.412  11.904  0.1428  0.0447  0.0138
26861W        W45065  10.580  16.802   0.820  0.0814 -0.0007 -0.1754
26862W        W45066  16.797   2.140   1.275 -0.1497  0.3543 -0.0556
26863W        W45067  15.928   1.026  14.980 -0.0715 -0.0535 -0.3658
26864W        W45068  14.762   3.491  14.789  0.0546 -0.0784  0.2199
26865W        W45069   5.434   6.057  15.746 -0.1398 -0.1268 -0.2896
26866W        W45070  11.341   1.368   3.471 -0.0469 -0.1657 -0.1425
26867W        W45071   1.891   9.718  13.799  0.1330 -0.1858  0.0190
26868W        W45072  16.433   4.536   0.031 -0.1394 -0.0197  0.0907
26869W        W45073   0.225  14.392  13.950 -0.0608 -0.0949 -0.0434
26870W        W45074  14.889   7.601   1.763 -0.0120 -0.0102 -0.2794
26871W        W45075  11.588   6.161  14.344 -0.0076 -0.1197  0.0524
26872W        W45076   5.906   5.269  17.135  0.1118 -0.4491 -0.0447
26873W        W45077   3.867   2.130  16.757  0.2919 -0.0750 -0.0125
26874W        W45078  13.650   8.389   2.628  0.1611  0.0780  0.0689
26875W        W45079  15.036   7.142   5.563  0.1526 -0.0598 -0.0536
26876W        W45080   3.996   0.814  11.215  0.1100  0.1884 -0.0182
26877W        W45081  16.558   0.183  17.421  0.3475 -0.1993  0.0426
26878W        W45082   3.067  11.832   1.824  0.0449  0.2708 -0.0278
26879W        W45083   5.747   9.160  13.857 -0.0193  0.2780 -0.0422
26880W        W45084   1.661   6.763   1.471 -0.3784 -0.1089  0.0100
26881W        W45085  15.905  14.659  14.847  0.1686 -0.2814 -0.0469
26882W        W45086   1.599   2.285  17.007 -0.0861  0.0323 -0.2496
26883W        W45087  13.070  15.744   2.914  0.0415  0.0521 -0.0271
26884W        W45088  10.393  10.385   0.057  0.2591  0.1185  0.0393
26885W        W45089   6.739  17.126  12.436  0.1154 -0.2023  0.1182
26886W        W45090   0.178   7.215  14.438  0.0647 -0.1084 -0.0538
26887W        W45091  11.654   6.906   1.691 -0.0201 -0.2249  0.0655
26888W        W45092   1.584   1.952   3.335  0.1719  0.1752  0.0038
26889W        W45093  11.561   2.383  15.920  0.1220  0.1552  0.1854
26890W        W45094  11.684   2.654   5.011  0.1825 -0.4649 -0.1132
26891W        W45095   0.075  14.219  14.367  0.2856  0.4171 -0.0266
26892W        W45096  11.007  17.025   3.926 -0.0667 -0.2775 -0.1925
26893W        W45097   9.754   9.462  16.998  0.1540  0.0372  0.0151
26894W        W45098  16.033   1.762  16.467 -0.0986  0.1306 -0.2372
26895W        W45099   2.266  16.289  15.513  0.2249  0.1010 -0.1102
26896W        W45100  13.624  10.028  16.100 -0.0646  0.0816  0.0073
26897W        W45101   5.527  10.995   1.709  0.0367 -0.0056 -0.3363
26898W        W45102  11.414  11.652  13.891  0.3342  0.1018 -0.0324
26899W        W45103  15.635   8.495  16.962 -0.3153  0.4810 -0.4769
26900W        W45104   8.800   2.747  15.479  0.1317  0.0688  0.2292
26901W        W45105   0.159   5.170  15.298  0.1377 -0.0364 -0.4947
26902W        W45106   8.636   0.231   2.860 -0.0013  0.1062  0.0874
26903W        W45107  10.921  16.924  15.585 -0.0481  0.1187 -0.0546
26904W        W45108   5.746   9.690   1.995 -0.2012  0.0160 -0.0778
26905W        W45109   9.065   6.982  13.034  0.1674 -0.0492  0.0795
26906W        W45110   8.276   8.615   4.582  0.3394 -0.2362  0.0278
26907W        W45111   3.464   7.377   0.110  0.2142  0.1998  0.1069
26908W        W45112   6.389  13.629   0.136  0.0881 -0.0362  0.3775
26909W        W45113   3.932   2.226  13.730  0.2989 -0.1142 -0.2637
26910W        W45114  14.939  11.837  14.501 -0.0042  0.0028 -0.2269
26911W        W45115   8.596  14.218  12.401 -0.1819 -0.1372 -0.0233
26912W        W45116  12.562  13.770  16.587  0.0692  0.0579 -0.0652
26913W        W45117   4.108   5.937   0.964  0.0125  0.1937  0.3181
26914W        W45118   0.630  15.881   2.941 -0.0944  0.1542  0.1385
26915W        W45119   0.660   3.572   0.270  0.1542 -0.2419  0.3128
26916W        W45120   1.780   4.492   1.409  0.2271  0.1981 -0.1627
26917W        W45121  14.857   6.618  16.303 -0.1955  0.0519  0.1631
26918W        W45122   6.693   2.383   4.986 -0.3557 -0.0543  0.4018
26919W        W45123   1.484   6.812   1.930 -0.1994  0.1963 -0.2043
26920W        W45124  15.966   9.002  17.253 -0.0276 -0.2079  0.2627
26921W        W45125   1.259   8.402   6.110 -0.4449  0.1224  0.0474
26922W        W45126  13.624   0.276   1.009  0.1975  0.0220 -0.0432
26923W        W45127  12.089   5.121  15.614  0.1383 -0.0511 -0.4571
26924W        W45128  11.756   5.004   2.411 -0.2267 -0.0010  0.3072
26925W        W45129   8.293   2.831   1.020  0.3965 -0.0210 -0.1695
26926W        W45130   9.246   7.074  14.422 -0.2835 -0.1855  0.0463
26927W        W45131   0.298   1.635   0.226 -0.2350  0.0895  0.3891
26928W        W45132   5.964  10.151   2.748  0.0497 -0.1332 -0.1536
26929W        W45133   5.898  11.220   0.932 -0.0553 -0.0254  0.3323
26930W        W45134  11.076  14.835  12.764 -0.1518  0.1207 -0.1022
26931W        W45135  13.906   2.554   3.238  0.0971 -0.1568 -0.0421
26932W        W45136   3.589   9.582  12.498  0.0272 -0.2158 -0.2160
26933W        W45137   3.451  16.270  12.372 -0.1590  0.2797  0.0039
26934W        W45138  16.902   8.313   3.841  0.3379 -0.1988 -0.1377
26935W        W45139  12.943   8.226  13.656 -0.0880 -0.0761 -0.1310
26936W        W45140   4.229  16.350   4.434  0.0678  0.0239 -0.2694
26937W        W45141  14.276   1.822  17.014  0.0956 -0.1443  0.0562
26938W        W45142   1.086  10.816   5.334  0.1220 -0.1223 -0.2090
26939W        W45143  14.155   5.430  12.731 -0.5642  0.1829  0.4965
26940W        W45144   2.034  11.364  14.009  0.0413  0.0878 -0.0454
26941W        W45145  12.781   8.014   2.135 -0.0669 -0.0953 -0.4279
26942W        W45146   5.581   4.725   2.661 -0.2160  0.0056  0.3098
26943W        W45147  14.622  12.671   0.637 -0.0536 -0.0549 -0.2591
26944W        W45148   8.977  11.653   2.622  0.0697  0.1398  0.1164
26945W        W45149  11.029  11.222   2.493  0.0030 -0.2483  0.0019
26946W        W45150   9.583  16.802  13.637  0.2814 -0.0241 -0.3393
26947W        W45151  10.433  13.537  16.139  0.1391 -0.1333  0.3769
26948W        W45152  13.146   9.115   2.991 -0.0737 -0.0203 -0.1486
26949W        W45153   3.275   1.479  14.407 -0.0576  0.2351 -0.1390
26950W        W45154  12.149  13.932  16.246  0.0508  0.0477 -0.0544
26951W        W45155   1.289  10.716  16.982 -0.1483  0.2071  0.1151
26952W        W45156   7.789  12.408   1.664  0.0968  0.2333  0.0341
26953W        W45157  16.092   2.383   2.269  0.1661  0.3366  0.3105
26954W        W45158   1.620   2.664  15.257  0.0630 -0.0077 -0.4563
26955W        W45159  14.080   9.102   2.002 -0.0603 -0.2685  0.1111
26956W        W45160   3.922   6.465   4.437 -0.1491 -0.0547 -0.0690
26957W        W45161  14.345   7.121   4.277 -0.1527 -0.1173 -0.0773
26958W        W45162   6.356  11.797  12.797 -0.0353 -0.1948 -0.0636
26959W        W45163   8.856  11.882  14.196  0.1821  0.0758  0.0458
26960W        W45164   7.634   3.776   1.940 -0.0066  0.0503  0.5429
26961W        W45165   2.670   4.943   0.474  0.1441  0.2506  0.3147
26962W        W45166   9.720   6.493   3.541 -0.1502 -0.0247  0.0291
26963W        W45167   5.180  15.206   4.801 -0.0708 -0.0157 -0.2139
26964W        W45168   8.924  13.869  12.367 -0.0715  0.4017  0.2182
26965W        W45169   8.244   0.688   4.438  0.0818 -0.0227  0.3352
26966W        W45170   5.815   2.786  16.101  0.2005 -0.1660  0.0354
26967W        W45171   9.773  16.672  14.077 -0.0886 -0.1655  0.0735
26968W        W45172  14.808  17.144   3.618 -0.3277 -0.0380 -0.1893
26969W        W45173   8.047  14.348  13.303 -0.0483 -0.0370  0.0495
26970W        W45174   6.719  13.564  16.490 -0.0210  0.1389 -0.0088
26971W        W45175   2.304  17.141  15.832  0.1001  0.2371 -0.3875
26972W        W45176   5.014  14.015   0.287  0.0671 -0.0138 -0.0489
26973W        W45177   3.839   5.873   5.131 -0.1942 -0.2029  0.0062
26974W        W45178  15.465   3.800   4.987 -0.0397  0.1475  0.2063
26975W        W45179  17.000   2.993   5.441 -0.0324  0.0342 -0.0061
26976W        W45180  16.964   4.872   2.856  0.1208  0.0124 -0.0861
26977W        W45181  11.545  11.582   4.850 -0.0900  0.2885  0.1845
26978W        W45182  14.124  11.812   1.892 -0.2520  0.0024  0.2527
26979W        W45183   5.413  16.992   4.646  0.0589 -0.1777 -0.0927
26980W        W45184   2.445   4.217  16.426  0.1726 -0.2405  0.0781
26981W        W45185  16.431   2.607   0.025  0.2058 -0.2436 -0.2015
26982W        W45186  16.077   2.440   3.593  0.0409  0.0697  0.0740
26983W        W45187  13.445   7.930   3.797  0.0528 -0.0153 -0.1615
26984W        W45188   6.067  14.277  12.515 -0.0295  0.1372  0.1535
26985W        W45189   6.904   6.972   2.031  0.1172  0.0353  0.1882
26986W        W45190  11.833   7.467  14.761  0.2355 -0.2235  0.1070
26987W        W45191   3.824   3.888  16.290 -0.0596 -0.1838  0.2360
26988W        W45192  16.472   0.385  12.175 -0.1081  0.2905 -0.1971
26989W        W45193   5.037  13.483   4.311  0.2116 -0.1679  0.1284
26990W        W45194  13.444  16.759  17.257 -0.1655 -0.1419 -0.1902
26991W        W45195   0.745  10.319  15.490 -0.2339 -0.1228 -0.2760
26992W        W45196   7.763   7.597  15.425  0.0887 -0.3492 -0.0598
26993W        W45197  14.996   9.149   4.931  0.1480 -0.0987  0.0604
26994W        W45198  10.698   6.009  14.700 -0.0949 -0.1361 -0.1401
26995W        W45199   8.666   5.755   3.272  0.0248 -0.1534  0.0629
26996W        W45200   4.220  15.814   2.473 -0.0700 -0.1966  0.0778
26997W        W45201   7.320  14.268  12.357  0.4700  0.0097  0.0709
26998W        W45202  15.658   8.506   0.661  0.2080 -0.2997 -0.0981
26999W        W45203   0.847   6.585  17.107  0.0974  0.0567  0.2209
27000W        W45204   9.460  12.340  14.878 -0.0964 -0.0564 -0.1043
27001W        W45205  17.221  10.408   4.985 -0.0224  0.1767  0.1270
27002W        W45206  13.818  10.742   0.521 -0.1834 -0.1356  0.1548
27003W        W45207   7.168   3.793  12.840  0.3747  0.0081 -0.0619
27004W        W45208  11.890   2.561  12.446  0.2077  0.0599 -0.0565
27005W        W45209  15.350  15.913   3.509  0.0242 -0.1204 -0.3380
27006W        W45210  17.169   3.020  14.857 -0.0011  0.0541  0.1668
27007W        W45211  11.365  12.138   0.672  0.0601  0.3190  0.1599
27008W        W45212  11.673  15.725  12.798  0.0630 -0.0094 -0.2091
27009W        W45213  14.230  14.339   2.262 -0.2380 -0.0723  0.0419
27010W        W45214   1.401   5.671  12.301  0.1158  0.0067  0.1267
27011W        W45215   3.526  10.762  13.752 -0.1012  0.1975 -0.0802
27012W        W45216  11.030  12.130  16.823  0.0445 -0.1264 -0.0207
27013W        W45217  11.467   2.508   3.489  0.0048  0.1020 -0.0084
27014W        W45218  10.103  17.108   3.174 -0.1872  0.6140  0.1823
27015W        W45219   4.803   4.138   2.085  0.2350 -0.1430  0.0429
27016W        W45220   9.614   7.995  13.662 -0.1192 -0.3155 -0.1409
27017W        W45221   7.878  10.398   0.153 -0.0857  0.2958  0.0011
27018W        W45222  17.306   2.131  15.883 -0.0074  0.3319  0.3543
27019W        W45223   8.885   7.059   1.557  0.1690 -0.2158  0.1331
27020W        W45224  12.958  17.287  12.905 -0.2636 -0.0898  0.2051
27021W        W45225   0.642   5.823   3.165  0.1965  0.1355  0.0373
27022W        W45226   9.093  13.097   1.479  0.0260 -0.1922 -0.1062
27023W        W45227   9.853   4.259  13.636 -0.2596 -0.1861  0.1066
27024W        W45228   9.782   2.475   1.058 -0.2414  0.1707 -0.0039
27025W        W45229  12.589   4.244  17.479  0.2062 -0.0284 -0.2005
27026W        W45230   4.536   3.098   3.495 -0.1824  0.0215 -0.0566
27027W        W45231  16.668   9.152   3.304  0.0334  0.0951 -0.0332
27028W        W45232  16.514   0.615   0.196 -0.3535  0.0099  0.3410
27029W        W45233  15.857   5.614   0.511 -0.3398  0.1357 -0.0098
27030W        W45234   5.560   7.865   0.772  0.1725 -0.2763  0.0319
27031W        W45235   2.485  15.723  15.002  0.1589 -0.3327 -0.2244
27032W        W45236   7.808   5.570  17.406 -0.4404 -0.1831 -0.1572
27033W        W45237  12.086  15.759   5.025  0.0197  0.0594 -0.1070
27034W        W45238   8.826   4.854  14.249  0.0072  0.1515  0.1479
27035W        W45239  13.420   2.271   4.868 -0.0793  0.1708 -0.0888
27036W        W45240   3.749   7.406  16.314  0.0364  0.1059 -0.1963
27037W        W45241  14.562   3.523  12.285  0.3143  0.0125  0.1916
27038W        W45242   5.067  14.253   4.493  0.1447  0.1275 -0.0815
27039W        W45243  14.094  14.725   1.529  0.0420  0.2457 -0.0328
27040W        W45244   0.035  14.568   5.210  0.2443  0.2332  0.1473
27041W        W45245   9.296  17.217  13.408 -0.0030  0.1877  0.0743
27042W        W45246  14.768   2.602  14.812  0.1771 -0.1434  0.2333
27043W        W45247   1.181   5.884  16.618 -0.0099  0.1620 -0.1090
27044W        W45248  15.662   5.372   1.507  0.0358  0.1232  0.2587
27045W        W45249  15.261   4.135  13.771 -0.1354 -0.0038  0.0063
27046W        W45250   0.885   6.760  14.474  0.3069  0.0161  0.2559
27047W        W45251  13.152   5.737   2.119  0.0135  0.0527 -0.0974
27048W        W45252   1.381  15.969   0.279  0.0092  0.0604 -0.4780
27049W        W45253  16.267  10.664   2.773 -0.0135  0.0602 -0.2165
27050W        W45254  16.148   6.592  16.581  0.1004 -0.2545  0.3227
27051W        W45255   2.332   3.916  15.336  0.0261  0.0830 -0.2117
27052W        W45256   1.949   9.323  13.512  0.1232 -0.0882 -0.0978
27053W        W45257   4.237   2.462   4.699 -0.2069 -0.1016 -0.1550
27054W        W45258  15.134   3.223  16.810  0.0121  0.1687  0.0885
27055W        W45259   8.087  14.014  12.468 -0.0699  0.0159 -0.2563
27056W        W45260   3.664   7.365  14.766  0.1208  0.0696 -0.2552
27057W        W45261   8.446   1.270   2.911 -0.1746 -0.2988  0.1425
27058W        W45262  13.305  13.484   0.883 -0.2643 -0.1364  0.4360
27059W        W45263   8.248   7.059  14.524 -0.1679  0.1626 -0.0491
27060W        W45264   3.847   7.005   0.117 -0.0257 -0.1957 -0.0467
27061W        W45265  13.747   1.991  16.308  0.3550  0.1350  0.3445
27062W        W45266  13.699  16.937  15.314 -0.0968  0.2176  0.0112
27063W        W45267  16.048  14.266   4.106  0.0946 -0.2453 -0.0256
27064W        W45268  10.250   4.380  15.280 -0.1146 -0.0438 -0.1225
27065W        W45269  16.465   1.426   4.514  0.1580  0.0523  0.0750
27066W        W45270   1.150   4.537  12.823  0.1366 -0.0390  0.2143
27067W        W45271   8.426   6.144   4.111 -0.0623  0.0107  0.1969
27068W        W45272  16.992   7.498  17.040  0.2166  0.0629 -0.3527
27069W        W45273   7.397   1.477   3.908 -0.3989  0.1368  0.1179
27070W        W45274  17.135  13.879  12.848  0.0699  0.0580  0.1783
27071W        W45275   4.764   4.897   4.576  0.2300  0.3821 -0.1843
27072W        W45276   5.990  12.855  16.172 -0.0049 -0.3908  0.2749
27073W        W45277  13.018   3.596  16.015 -0.1784 -0.1995 -0.2083
27074W        W45278   7.848   1.093  12.900 -0.1971 -0.0050 -0.1485
27075W        W45279   9.324   2.721  15.338  0.1554  0.1703  0.1318
27076W        W45280   0.093  11.461   2.720 -0.0117  0.0982 -0.2839
27077W        W45281  14.338  14.083  15.252  0.0685  0.0872 -0.1133
27078W        W45282  10.858  15.371  12.907 -0.0933 -0.3097  0.2831
27079W        W45283   7.164  16.027  14.420 -0.0094  0.2517  0.0195
27080W        W45284  13.826  14.044   3.970  0.1609  0.1302  0.1454
27081W        W45285  15.749   4.888   4.276  0.1543  0.1319 -0.2863
27082W        W45286   4.351   2.951   4.595  0.0858  0.0231  0.2089
27083W        W45287   9.443   1.292  14.625  0.0960  0.2284 -0.0928
27084W        W45288  14.711  14.090  17.493 -0.2406 -0.1661  0.2476
27085W        W45289   2.011   7.614   1.497  0.0258  0.1101 -0.0312
27086W        W45290   8.517   9.065  13.104 -0.0346 -0.1356 -0.2164
27087W        W45291   1.126  14.881   4.320 -0.4148 -0.0555  0.0071
27088W        W45292   7.216  10.298  13.512 -0.0411  0.1287 -0.0586
27089W        W45293   6.702   2.093  16.668  0.1623 -0.0571  0.1213
27090W        W45294  11.966   9.013  12.527 -0.0325 -0.3043  0.0344
27091W        W45295  12.180  13.178  13.833  0.0706 -0.0286 -0.0984
27092W        W45296  11.365   6.825   2.412 -0.1286 -0.0175  0.0975
27093W        W45297   6.102   2.487  11.894 -0.2752 -0.1547  0.0181
27094W        W45298  11.717  10.115   4.582  0.5284 -0.0978  0.1532
27095W        W45299   6.707  14.973   2.534  0.0155  0.0643 -0.0209
27096W        W45300  14.551   1.468   2.738 -0.0490 -0.1181 -0.1019
27097W        W45301  11.979   6.728   3.731  0.0861  0.1619  0.1718
27098W        W45302  16.467   2.975  16.499 -0.2218 -0.0953 -0.4261
27099W        W45303  14.710  14.675   1.490 -0.2206 -0.1364  0.1547
27100W        W45304   6.065   1.917   0.174  0.2985 -0.0168  0.0747
27101W        W45305  12.654   2.784  14.528 -0.2241  0.1737 -0.2018
27102W        W45306   5.707  10.425  12.482 -0.0820 -0.1657 -0.1097
27103W        W45307   4.482  11.151   4.983 -0.5848 -0.0404 -0.1315
27104W        W45308   1.471  15.825  15.429 -0.0437 -0.2101  0.1563
27105W        W45309   9.976   3.156  16.563 -0.1466 -0.3396  0.0468
27106W        W45310   6.380   5.983   0.946 -0.0648  0.0261  0.2467
27107W        W45311   9.073   6.189   5.214 -0.2643  0.1705  0.3178
27108W        W45312   1.680  15.018   2.338  0.3157 -0.1091 -0.2194
27109W        W45313  11.671   2.760   1.465 -0.0179  0.1400 -0.0010
27110W        W45314   5.559  16.986   1.024  0.0598  0.0798 -0.0403
27111W        W45315   9.212   2.415  13.916  0.0689  0.0605  0.1346
27112W        W45316   3.115   2.823   2.959  0.0624 -0.1159  0.2047
27113W        W45317   6.101   5.536  12.631  0.0344 -0.0676  0.0005
27114W        W45318  10.188  14.361  17.490  0.1831 -0.2191  0.0375
27115W        W45319   2.745  14.919   1.851  0.0407  0.0862  0.2497
27116W        W45320  11.678  15.666   2.596  0.1820  0.2312 -0.0208
27117W        W45321   3.513   3.433  16.541  0.0817  0.2179  0.1408
27118W        W45322   5.083  11.797  11.251 -0.1211  0.2978  0.0741
27119W        W45323  11.996   8.969  14.007  0.0846  0.1221 -0.1164
27120W        W45324   7.215  14.066  12.837 -0.1227  0.0743 -0.0222
27121W        W45325   8.486  13.678  12.247 -0.0971  0.3690 -0.1444
27122W        W45326  15.623   1.391   3.600 -0.2249  0.2060 -0.1801
27123W        W45327  10.299  17.299   4.507 -0.0109  0.0621 -0.0561
27124W        W45328   8.592   4.654   0.940 -0.1476  0.0575  0.0375
27125W        W45329  12.183   4.960   0.318  0.0126  0.3356 -0.0797
27126W        W45330  17.131  11.297   5.309  0.1108  0.0167 -0.0266
27127W        W45331  10.574   1.741   0.598  0.0223  0.0256  0.2474
27128W        W45332   4.273   7.301  13.164  0.1237 -0.1015  0.2348
27129W        W45333   8.649  12.386  15.921  0.1260  0.2227 -0.2417
27130W        W45334   2.212   8.478   0.427 -0.1430 -0.1105  0.1084
27131W        W45335  11.211  15.273  15.247  0.5164 -0.0633  0.2867
27132W        W45336   6.606  10.969  13.949  0.0374  0.0110 -0.0296
27133W        W45337   2.945  13.858   0.400 -0.1392  0.2594  0.0909
27134W        W45338   4.069   8.514  13.074 -0.3824 -0.1184  0.0789
27135W        W45339   9.098   3.563   5.550 -0.2748 -0.0714 -0.1616
27136W        W45340  16.768   8.740   3.609  0.1760  0.0102 -0.0943
27137W        W45341  11.205  12.878  17.402 -0.0034  0.3880  0.3584
27138W        W45342  13.445  11.665   5.570  0.2503  0.1297  0.0244
27139W        W45343  10.891  11.056   3.185  0.2891 -0.2107  0.0939
27140W        W45344   5.906   3.654   2.203  0.2819  0.1135  0.0034
27141W        W45345   5.695   5.576   4.767  0.2530 -0.0687  0.1936
27142W        W45346   7.222   7.565   5.394  0.0770  0.0789 -0.0704
27143W        W45347  16.633  14.096   1.650 -0.1413 -0.2462 -0.0560
27144W        W45348  12.789   9.827   2.316  0.0527 -0.1270 -0.0575
27145W        W45349   2.019   1.677   1.590  0.0986 -0.0224 -0.2870
27146W        W45350  11.460  15.677  16.858 -0.0701 -0.2118 -0.0329
27147W        W45351   1.918   6.948   5.395 -0.0401 -0.0552 -0.0252
27148W        W45352   0.177   8.951   4.309 -0.2620 -0.1238  0.2973
27149W        W45353   0.601  12.596  13.683 -0.0774 -0.2739  0.1262
27150W        W45354   8.684   5.358   0.256 -0.0834  0.1906  0.1022
27151W        W45355  13.983  14.965  15.991 -0.4096 -0.0973 -0.0544
27152W        W45356   4.478   7.004   0.464 -0.0738  0.1134 -0.2013
27153W        W45357  11.631  14.418   1.733  0.1271  0.1196 -0.4084
27154W        W45358   7.267  12.393   1.782  0.0980  0.0591  0.1006
27155W        W45359   8.821   3.420  12.936 -0.1608  0.0959  0.1031
27156W        W45360   0.939   8.956   1.337  0.2377 -0.0463  0.0951
27157W        W45361   6.822  13.161   2.287  0.0197 -0.2578  0.2042
27158W        W45362   7.944  12.741  15.795 -0.1130 -0.1423 -0.0222
27159W        W45363   1.422  16.644  12.770  0.0380  0.0697  0.1236
27160W        W45364   0.473  16.040  13.527 -0.0451  0.2042 -0.1440
27161W        W45365  10.964   7.870   0.766  0.4329  0.0067 -0.2648
27162W        W45366  13.274   6.651  17.349  0.1174 -0.0409  0.0210
27163W        W45367   8.168   5.078   5.200 -0.1445  0.1725  0.0881
27164W        W45368   6.261   7.851  16.831 -0.0953 -0.2148 -0.1221
27165W        W45369   9.043   0.248  15.412 -0.0640 -0.0956 -0.1056
27166W        W45370   3.853  15.594  13.028 -0.2114  0.2813 -0.3687
27167W        W45371   2.965  14.625   0.901  0.0587 -0.2270  0.1289
27168W        W45372   5.573  12.363  13.283 -0.1644  0.0269 -0.2797
27169W        W45373  10.302   4.783  14.984 -0.1663  0.0958  0.2501
27170W        W45374   0.102   2.057   4.498  0.0454 -0.1614 -0.0337
27171W        W45375   5.565   4.784  11.944  0.0902 -0.0554 -0.2724
27172W        W45376   5.107   6.572   2.493  0.2168 -0.0813  0.2200
27173W        W45377   2.374   9.778  14.018  0.2780  0.2473  0.4367
27174W        W45378   8.404  11.323  13.145 -0.1716 -0.2977 -0.0375
27175W        W45379  14.597   2.798   4.818 -0.0431 -0.1407 -0.0144
27176W        W45380  13.521   6.923   6.287  0.1421 -0.1667 -0.0137
27177W        W45381   0.618  16.447   3.155 -0.0945  0.1985  0.1203
27178W        W45382   0.122   3.103   1.850  0.1109  0.1216 -0.2947
27179W        W45383   7.629   6.638  13.439 -0.2371 -0.0829 -0.0686
27180W        W45384   2.818  16.064  15.058 -0.0566 -0.3743  0.2855
27181W        W45385  13.696  13.311   0.058 -0.0723 -0.3884 -0.0397
27182W        W45386   2.430   5.428  15.403 -0.2392  0.0106  0.3288
27183W        W45387   5.624   9.520  11.700  0.0812 -0.1007 -0.1635
27184W        W45388   3.613   8.504   5.039  0.1516 -0.2064 -0.0745
27185W        W45389   6.825   9.976   3.090  0.2608 -0.0903 -0.2264
27186W        W45390   7.568   9.925   1.730  0.3001  0.0315 -0.0763
27187W        W45391  12.763   3.131   2.685 -0.0816 -0.2179 -0.2253
27188W        W45392  12.347   7.781  14.692 -0.0699  0.1489  0.0418
27189W        W45393  15.156  13.834  15.068  0.0678  0.0599 -0.3287
27190W        W45394   3.451   6.552   2.317  0.1911  0.0399 -0.0332
27191W        W45395   4.618   3.387   0.163 -0.1366 -0.1614 -0.0700
27192W        W45396   3.087   0.569  13.570 -0.0649 -0.1650 -0.3861
27193W        W45397  14.499  11.632   5.520  0.2658 -0.1760 -0.4699
27194W        W45398   2.025  10.847   1.877  0.1991  0.1326 -0.4789
27195W        W45399   9.397  16.242   0.027 -0.2096  0.1734 -0.1558
27196W        W45400  10.024  16.953   4.664  0.0922  0.1839  0.4140
27197W        W45401   4.614   9.790   4.791 -0.1052 -0.1347 -0.2314
27198W        W45402   2.794   9.522  15.738  0.0223  0.2273 -0.1050
27199W        W45403   2.444   8.472   1.715  0.1784 -0.1993  0.5524
27200W        W45404  16.813   6.535  11.934  0.2067 -0.0050 -0.0032
27201W        W45405   2.737   5.698  14.483  0.1655  0.3459  0.0975
27202W        W45406  15.840   0.974  17.242 -0.1626 -0.4009  0.0544
27203W        W45407   0.139   4.302  14.862  0.1896  0.0858  0.1737
27204W        W45408   0.300   7.715  13.355  0.1844  0.0399  0.0047
27205W        W45409   6.474   2.990  16.492  0.1189  0.1076  0.0096
27206W        W45410   1.247  13.846   4.655 -0.1927  0.0055 -0.0524
27207W        W45411   9.872  13.501   1.799 -0.0337  0.1387  0.2876
27208W        W45412   2.388  16.057  13.988 -0.0734 -0.2837 -0.0213
27209W        W45413   8.149  14.413   2.700 -0.2940  0.0083  0.1714
27210W        W45414  13.779   6.068  16.608 -0.1781 -0.4238 -0.1719
27211W        W45415   5.574   9.447   4.581  0.0464  0.0823 -0.0806
27212W        W45416   6.733   9.155   4.162  0.0013 -0.0711 -0.0866
27213W        W45417   9.417  14.068  13.783  0.0551  0.0871  0.2840
27214W        W45418  17.119  14.586  14.946 -0.3482 -0.3078  0.1692
27215W        W45419  14.683  15.992  12.817 -0.0714  0.0216  0.1986
27216W        W45420  12.007  15.173  14.869 -0.2507  0.2679  0.2092
27217W        W45421  12.961   5.768  12.703  0.0581  0.4641 -0.0921
27218W        W45422  11.694   5.519   3.976 -0.3525  0.1157 -0.1353
27219W        W45423   2.945   0.161   0.549 -0.0221  0.3112 -0.1024
27220W        W45424  12.111  10.793   1.239 -0.0687 -0.1353 -0.0515
27221W        W45425  11.428   3.477  12.554 -0.1308 -0.1848  0.3068
27222W        W45426   5.735  15.717  17.489  0.2118  0.0481 -0.2593
27223W        W45427   2.106   6.765   1.092 -0.2120 -0.1230 -0.1290
27224W        W45428   2.419   9.791  17.170 -0.0453  0.0717  0.1323
27225W        W45429  14.778  10.052   3.583 -0.2375  0.2162  0.3302
27226W        W45430   9.527  15.875  15.134  0.0579 -0.0406  0.1099
27227W        W45431   4.639  16.091   0.549  0.1602 -0.2386  0.1486
27228W        W45432  14.684   8.609  15.274 -0.0817  0.2582 -0.0143
27229W        W45433  11.580  15.357   0.273  0.3370  0.1914  0.1980
27230W        W45434   3.045  12.129  17.222  0.3088  0.3707 -0.0114
27231W        W45435  11.992  12.240   5.308  0.0560 -0.1604  0.0130
27232W        W45436  13.308  17.065  15.562 -0.1606 -0.3575 -0.4746
27233W        W45437   1.928  10.200   3.411  0.3722  0.2764 -0.0088
27234W        W45438  15.315  14.829  12.939  0.1631  0.1549  0.1386
27235W        W45439   5.527  17.214   1.832  0.1547  0.1287 -0.0839
27236W        W45440   7.324   3.507   4.178 -0.3463 -0.0481 -0.0682
27237W        W45441  11.081   6.406  15.497  0.1029 -0.0187  0.0972
27238W        W45442  10.536  11.771   4.889 -0.1630 -0.1275 -0.3266
27239W        W45443  11.419   8.701   2.562 -0.2804  0.1586  0.0081
27240W        W45444  10.849  12.337   1.513  0.0400 -0.1035  0.0179
27241W        W45445  13.673   6.341   0.531 -0.4276  0.1051  0.2251
27242W        W45446   0.561   6.480  14.170  0.0881 -0.0747 -0.4391
27243W        W45447  12.925   9.499   1.345 -0.1741 -0.2147 -0.0723
27244W        W45448   3.847  10.486   4.679  0.1496  0.1112  0.1347
27245W        W45449  14.992  13.117  15.805  0.2522 -0.0127 -0.3018
27246W        W45450   7.416   8.762  13.545 -0.0957 -0.2735  0.0783
27247W        W45451   6.288   2.561  16.325  0.0351 -0.0641 -0.1395
27248W        W45452  10.424  10.550   0.942  0.1143 -0.1436  0.0570
27249W        W45453   9.130  10.665   1.667  0.0774 -0.1375  0.1750
27250W        W45454   3.690   6.121   0.730 -0.1549 -0.4746 -0.1393
27251W        W45455  12.763   3.646  12.341 -0.0170  0.2823  0.3409
27252W        W45456  13.416  16.304   2.877  0.2784  0.2223  0.0110
27253W        W45457  17.162  10.671  13.463 -0.0260  0.0723  0.0971
27254W        W45458   0.005   5.731  12.807 -0.0682  0.0978 -0.0003
27255W        W45459   3.177   1.266  16.463  0.1787  0.0289 -0.0873
27256W        W45460  13.173  16.427  16.778 -0.0178 -0.1322 -0.1062
27257W        W45461   9.110  11.142   4.999 -0.0850 -0.2528  0.1065
27258W        W45462  12.177  15.255   1.733 -0.0075 -0.0536  0.0522
27259W        W45463   3.819   3.603   4.369  0.1610 -0.0076  0.0487
27260W        W45464   7.577   7.051   0.687 -0.1215 -0.2189 -0.1782
27261W        W45465  13.494  15.416  17.365 -0.1186 -0.1449 -0.0900
27262W        W45466  15.372  14.102   3.136  0.0343  0.1448 -0.2246
27263W        W45467   1.749  14.935  14.536 -0.0141 -0.3162  0.1278
27264W        W45468  14.227  15.183  14.148  0.1376 -0.1728  0.1428
27265W        W45469   4.977  16.398  12.262  0.3421 -0.1899 -0.5373
27266W        W45470  11.515   5.792  17.009  0.0856 -0.1265 -0.1003
27267W        W45471  12.394  14.962  13.650  0.1222 -0.0386 -0.1373
27268W        W45472   0.531   1.205   4.712  0.0849 -0.1508  0.1313
27269W        W45473   2.392   0.851  15.020  0.2567 -0.0017  0.0428
27270W        W45474  16.190   6.460   2.144 -0.0697  0.2283 -0.0388
27271W        W45475  13.945  11.857  16.121  0.2875 -0.4521 -0.1841
27272W        W45476   7.338   2.578   2.344 -0.0504  0.1979  0.0406
27273W        W45477   9.107  14.019  14.155  0.1592 -0.3476  0.4630
27274W        W45478   4.722   0.032   1.254 -0.3009 -0.0740  0.0717
27275W        W45479   8.037  13.560  16.953 -0.0002 -0.1232 -0.1624
27276W        W45480  15.057  10.437   3.432  0.2071 -0.3509  0.3220
27277W        W45481   7.876   4.177  14.043  0.0075  0.0052 -0.2335
27278W        W45482   6.963   3.139  13.487  0.2864 -0.2866  0.1321
27279W        W45483  10.557   4.090   4.472  0.1793 -0.0863 -0.2118
27280W        W45484  14.936   4.587  14.261 -0.0472  0.0157 -0.1806
27281W        W45485  14.841   2.840   1.070  0.1872  0.1887 -0.0281
27282W        W45486   3.939   9.672   0.912 -0.1206 -0.4347 -0.2418
27283W        W45487   0.844  13.480  16.776 -0.1260 -0.2759 -0.2063
27284W        W45488  17.227   1.180  13.447 -0.0712 -0.1324  0.1534
27285W        W45489   6.221   4.013   2.294  0.1311 -0.0499 -0.3100
27286W        W45490  13.973   5.571   4.196 -0.1383 -0.0311 -0.5789
27287W        W45491   9.179   0.565  12.408 -0.1466  0.1556  0.0671
27288W        W45492   8.186   8.841   2.548 -0.0011 -0.1790  0.0329
27289W        W45493   7.327   9.238   4.113  0.0621  0.1347 -0.2007
27290W        W45494  15.795   4.994  12.159  0.3461  0.2591 -0.1484
27291W        W45495   1.107   1.277  12.534  0.1821 -0.0332 -0.0506
27292W        W45496  11.210  13.475  17.072  0.2634  0.0859 -0.0320
27293W        W45497  13.238   9.145  12.568 -0.2234  0.2182  0.1040
27294W        W45498  14.741  15.105  13.809  0.0269  0.1219  0.1957
27295W        W45499   0.238   3.774   4.835 -0.0832  0.3226 -0.0840
27296W        W45500   9.775   8.208   2.831 -0.4830  0.0716 -0.0663
27297W        W45501   8.228   1.548   2.329 -0.0770 -0.0920 -0.2612
27298W        W45502  13.940   1.845   4.863  0.2408 -0.2900  0.0703
27299W        W45503   6.080  13.308   5.298  0.1151 -0.0502 -0.1247
27300W        W45504   4.715  11.361   0.236 -0.0412  0.0453  0.3692
27301W        W45505   1.428  13.310  15.541  0.1592 -0.3290  0.0407
27302W        W45506  11.645   8.962  13.352  0.0610 -0.1328 -0.1639
27303W        W45507  13.553  16.424   3.842 -0.0084  0.1272 -0.1549
27304W        W45508  16.578  16.670   4.522 -0.0021  0.2664 -0.2805
27305W        W45509   0.399  12.994   1.625 -0.2943  0.1224  0.6270
27306W        W45510  11.306   7.495   4.473  0.0724  0.0113  0.0892
27307W        W45511   4.745   3.401  13.708 -0.0655  0.1179 -0.1234
27308W        W45512   8.047  10.426   4.175  0.0281 -0.2989 -0.4115
27309W        W45513  15.900  13.062  14.658  0.0762 -0.0013  0.0797
27310W        W45514   4.555   7.057  15.349  0.0668 -0.0733  0.0754
27311W        W45515   7.262  16.316  16.014 -0.0016 -0.0656  0.3243
27312W        W45516  14.573  12.076   5.875  0.1357 -0.1432 -0.2679
27313W        W45517   7.721  13.655   5.116 -0.0083 -0.1865  0.1671
27314W        W45518   4.156   9.645   1.459 -0.1213  0.1494 -0.0229
27315W        W45519   1.802   9.159   4.886 -0.1627  0.3205  0.0994
27316W        W45520   5.672   2.755   2.806 -0.1288  0.0661  0.3894
27317W        W45521  14.390   3.995   5.728 -0.1307  0.1983  0.1397
27318W        W45522  14.219  13.286  14.272  0.1480  0.1825  0.1293
27319W        W45523  10.057   0.966   4.205  0.1508 -0.1376 -0.1638
27320W        W45524   9.648   9.075   6.082  0.0502 -0.1835 -0.4047
27321W        W45525  11.831  16.829  13.977  0.0889 -0.0192 -0.2694
27322W        W45526   2.563  10.848  13.388 -0.0805  0.1363 -0.0330
27323W        W45527  14.613  16.325   2.606  0.0603  0.0886 -0.3071
27324W        W45528   9.930  16.080   1.464  0.0859 -0.4409 -0.0698
27325W        W45529   2.676   8.945  13.306  0.1995  0.3944 -0.1642
27326W        W45530   7.886  10.735  15.871  0.0535  0.1222 -0.1568
27327W        W45531   5.209  12.219  12.891  0.4861 -0.0131  0.4635
27328W        W45532   8.320  13.635  15.854 -0.0408 -0.0718  0.0810
27329W        W45533  10.764   7.546  13.080  0.0262 -0.1855  0.0052
27330W        W45534   3.884  16.745  14.521  0.0938 -0.1322  0.2127
27331W        W45535   4.458   5.107  13.800 -0.0103  0.2838  0.3661
27332W        W45536   5.239  16.733  14.373 -0.1213  0.0570 -0.3566
27333W        W45537  12.218  11.667   3.985  0.2893  0.2315  0.0155
27334W        W45538  10.445  11.765   4.037  0.0446  0.1517  0.3184
27335W        W45539  12.625  11.458  14.990 -0.0252 -0.2315  0.0337
27336W        W45540   6.096  10.040   2.297 -0.2876  0.0092  0.3600
27337W        W45541  13.348   9.210  13.292  0.3519 -0.1877  0.2842
27338W        W45542   6.213   5.823   2.028  0.2148 -0.0402  0.0106
27339W        W45543  15.052   0.243  13.480 -0.0304 -0.1373 -0.0530
27340W        W45544   9.103   5.015   5.497  0.0140  0.1299  0.0514
27341W        W45545   4.979   9.229  17.100 -0.0818 -0.2205 -0.2773
27342W        W45546   5.949  15.104   2.983 -0.0607 -0.2525  0.2769
27343W        W45547  10.842   5.963   2.841 -0.2033  0.0858  0.0286
27344W        W45548  16.707  12.403  14.826  0.1136  0.1949  0.1268
27345W        W45549   5.991   9.139   0.631  0.0021 -0.0653  0.0305
27346W        W45550   2.730  14.411   2.016 -0.1425  0.1455 -0.2001
27347W        W45551  10.767  11.068  15.429  0.0088  0.1211 -0.3997
27348W        W45552  13.178   6.812  14.681 -0.2033  0.3930 -0.0326
27349W        W45553   5.876   6.047   2.363 -0.2854 -0.2234 -0.0444
27350W        W45554   5.637   0.582  16.566 -0.1067 -0.0459  0.2346
27351W        W45555   8.776  12.849  16.198 -0.2486 -0.1327 -0.0630
27352W        W45556   2.687   6.907  14.245 -0.2740  0.0164 -0.2385
27353W        W45557   4.752   1.955   2.124 -0.0071  0.1539  0.0392
27354W        W45558   2.129   6.280  11.581 -0.0772  0.3400  0.2655
27355W        W45559  13.253  12.242  17.352 -0.1763 -0.3044  0.2760
27356W        W45560  11.931   2.738  12.905 -0.0176 -0.0064  0.0033
27357W        W45561   8.496   3.852   4.398 -0.1046 -0.1013 -0.0708
27358W        W45562  14.791  15.998   2.182  0.1486 -0.0279  0.1106
27359W        W45563   0.647   1.348  12.403 -0.0767 -0.0514  0.0483
27360W        W45564   3.745  16.094   1.121 -0.1759 -0.0683 -0.0238
27361W        W45565  14.778   6.482   2.510 -0.0158 -0.1449  0.1056
27362W        W45566   5.183   3.167  14.802  0.2665 -0.1019 -0.2107
27363W        W45567  11.925  11.237  12.992 -0.0833  0.0861 -0.0941
27364W        W45568   0.071   1.592   4.824  0.2791  0.0033  0.1099
27365W        W45569   1.374   5.351  14.017 -0.2909  0.0291 -0.0421
27366W        W45570   8.595   2.353  16.696 -0.0499  0.0620 -0.0301
27367W        W45571  10.161  13.238   3.595  0.4356 -0.1684 -0.0337
27368W        W45572   0.275   8.403   4.298 -0.1343 -0.0507 -0.0815
27369W        W45573  12.025  14.441   4.153 -0.1646  0.0216  0.0980
27370W        W45574  14.101   5.941   2.283 -0.4581 -0.1735  0.1363
27371W        W45575  11.690   5.740  12.817 -0.1602  0.0147  0.1656
27372W        W45576  13.157   4.051   2.488  0.1254 -0.1314 -0.0017
27373W        W45577   1.342   6.654  12.919  0.1931 -0.0078 -0.1029
27374W        W45578  15.094   7.616  12.597 -0.0238  0.3347  0.0378
27375W        W45579  14.837  11.713  15.628  0.0279 -0.0431  0.0445
27376W        W45580   5.941   3.957   4.559  0.0214 -0.2938 -0.1105
27377W        W45581   1.035  15.075   2.964  0.0595 -0.0494  0.5277
27378W        W45582  11.455   3.488   3.871 -0.0646  0.2396  0.1489
27379W        W45583  10.219   7.957  15.080 -0.3035  0.2961 -0.2209
27380W        W45584  13.567   1.879  13.825  0.0015  0.0770 -0.0545
27381W        W45585   2.085   8.287   1.277 -0.1579  0.1193 -0.0767
27382W        W45586   5.811   3.124   4.052 -0.1606 -0.0075 -0.0729
27383W        W45587   3.026  12.770  14.441 -0.1255  0.0608 -0.0935
27384W        W45588   9.750   0.996   2.971 -0.0779  0.1796  0.1612
27385W        W45589   8.746  13.955  12.831  0.0334 -0.0857  0.1368
27386W        W45590   8.563  11.703  15.078 -0.0559  0.3362  0.1975
27387W        W45591   2.579  13.791  16.785 -0.0135 -0.2086 -0.2097
27388W        W45592  11.161   2.524  16.147  0.1051 -0.0153  0.1533
27389W        W45593   3.998   9.844  15.345 -0.1763  0.0807 -0.1086
27390W        W45594  12.248   4.162  15.441 -0.0664  0.0132  0.0122
27391W        W45595   2.219   6.250   1.121 -0.0549 -0.2988 -0.1558
27392W        W45596   9.376   7.101  13.926  0.1651  0.1556  0.0244
27393W        W45597  14.102   6.269  12.617 -0.1756  0.1032 -0.3227
27394W        W45598  12.878   2.943   5.458  0.1831  0.1210 -0.0890
27395W        W45599   8.692   4.411   0.419 -0.1905  0.0843  0.3331
27396W        W45600   5.577  12.428   1.368 -0.1557 -0.1327 -0.2081
27397W        W45601   2.599  17.032   1.332  0.1647  0.1888 -0.0593
27398W        W45602  13.551  15.827  13.746  0.0022  0.0337 -0.3438
27399W        W45603   5.189  12.217   2.219  0.0512 -0.1976  0.1097
27400W        W45604  13.897  17.144  14.910 -0.1901  0.1577 -0.1011
27401W        W45605  15.214  12.878   1.022  0.1670 -0.2284 -0.1817
27402W        W45606  12.381   8.242  14.441 -0.0588 -0.0663  0.0896
27403W        W45607  14.527  13.513   4.385 -0.2535  0.0818  0.3798
27404W        W45608   9.860   3.506   4.107  0.1355 -0.1496 -0.0650
27405W        W45609   9.515   0.671  15.439 -0.0848 -0.1617  0.0505
27406W        W45610  11.489   9.155   3.511 -0.1962 -0.3716 -0.4294
27407W        W45611   3.294   6.771  15.852 -0.0692 -0.1154  0.2431
27408W        W45612  14.080  13.770  12.127  0.2071 -0.1430 -0.4336
27409W        W45613  12.220   9.610  15.061 -0.0833  0.0319 -0.2428
27410W        W45614   3.601  10.793  14.214  0.0621 -0.1391  0.0194
27411W        W45615   2.129   8.863   3.421 -0.1605  0.0078 -0.4379
27412W        W45616   2.068   9.728  15.588  0.1893  0.0561  0.1768
27413W        W45617  12.018  11.343   1.555  0.0829  0.2299 -0.0146
27414W        W45618   1.876   3.556   2.785 -0.1440 -0.2503  0.0892
27415W        W45619   8.341   6.511  14.552 -0.2325  0.1878  0.1219
27416W        W45620   3.060   5.090   1.273 -0.0672  0.0086  0.0140
27417W        W45621  12.428  16.548  15.365 -0.4989 -0.0301 -0.0144
27418W        W45622   1.742   5.277  12.554 -0.2773 -0.0074 -0.1815
27419W        W45623   6.323  11.377   4.122 -0.2378  0.2194  0.1981
27420W        W45624  10.578  16.198   5.680 -0.1171  0.0710  0.1932
27421W        W45625  15.870   3.184   5.192  0.1866  0.3948 -0.2703
27422W        W45626  10.267  16.604   3.336  0.2077 -0.1553 -0.0384
27423W        W45627  13.849  12.160   2.306  0.1837  0.1091 -0.1921
27424W        W45628   0.454   9.207   1.769  0.2248  0.2572 -0.1060
27425W        W45629   2.301  16.193   1.131 -0.0980 -0.1101  0.0455
27426W        W45630   5.648   0.141  13.254 -0.0374  0.0347 -0.0181
27427W        W45631   4.435   6.454  13.715  0.1960 -0.2858  0.1853
27428W        W45632  11.836   1.234  16.184 -0.0838  0.0841 -0.1043
27429W        W45633   2.219   1.210   0.056 -0.0436 -0.0742 -0.0641
27430W        W45634   0.743   6.779   3.994  0.3763  0.0769  0.2386
27431W        W45635   6.198   8.790   4.907 -0.3576 -0.0025  0.1203
27432W        W45636   0.463   6.199   1.439 -0.0016  0.0225 -0.1019
27433W        W45637  16.220   3.949  14.933 -0.2051  0.2798 -0.2730
27434W        W45638   6.198   8.890   0.168 -0.1348  0.1493  0.1543
27435W        W45639   6.314   5.388   2.354  0.1131  0.0219  0.4876
27436W        W45640   7.929   5.242  14.327 -0.0439 -0.0342  0.0444
27437W        W45641   6.627   4.126   0.938  0.0639 -0.3090 -0.1454
27438W        W45642   4.538   0.979  17.390  0.1779 -0.0626  0.1171
27439W        W45643   7.079   4.466  16.819 -0.0882 -0.1737  0.2894
27440W        W45644  16.299  16.612  16.657  0.1741 -0.0197  0.0321
27441W        W45645   1.365   6.513   3.239  0.2694 -0.1660 -0.1940
27442W        W45646   4.260   3.510   1.242 -0.1868 -0.3917 -0.1427
27443W        W45647   9.824  11.030  17.517  0.0349  0.3722  0.3438
27444W        W45648   9.841  10.594   0.243 -0.0300 -0.1511 -0.2871
27445W        W45649  10.770  14.658   4.716 -0.4662 -0.1288  0.1020
27446W        W45650   4.769  13.570  15.140  0.1248  0.2733  0.0491
27447W        W45651  17.083   6.611   2.884 -0.0610 -0.1884  0.1117
27448W        W45652   8.008   7.353  12.404 -0.2550  0.0046  0.1694
27449W        W45653   9.737  11.035  13.443 -0.0845  0.0523  0.1214
27450W        W45654  15.870  10.102  15.120  0.1461  0.2254 -0.0238
27451W        W45655   3.863   1.875   1.762  0.2222 -0.0493  0.2140
27452W        W45656  17.188   9.820  17.467 -0.1813  0.3306 -0.1508
27453W        W45657  14.583   8.903  14.873  0.0852  0.0616  0.1797
27454W        W45658  11.754   2.356  16.933  0.0237  0.2302  0.0662
27455W        W45659   0.171   2.709  15.126 -0.0737  0.0715  0.0262
27456W        W45660   8.185  11.221   3.754  0.0220  0.2035  0.4658
27457W        W45661  11.651   4.201  16.115  0.0209  0.1574 -0.0766
27458W        W45662   1.965  11.468  12.880  0.3214  0.0761 -0.0699
27459W        W45663   1.648   6.304   4.073  0.1441  0.0458 -0.1167
27460W        W45664  14.158  16.494   1.010 -0.1390 -0.0332  0.0368
27461W        W45665  15.372   4.453  16.053  0.1071 -0.0880 -0.0619
27462W        W45666   4.416  16.487  13.846 -0.0060 -0.2460  0.1374
27463W        W45667  12.220  14.167   3.104  0.2214 -0.0601 -0.1289
27464W        W45668   9.125   9.636  16.181 -0.0804 -0.0737  0.1067
27465W        W45669   5.206  12.614   0.021 -0.0786  0.2743 -0.2002
27466W        W45670  11.010   0.779  15.896  0.0645 -0.0955  0.0530
27467W        W45671   6.391   7.534  15.129  0.1669 -0.0348 -0.2121
27468W        W45672   7.167  11.263  16.303 -0.0030 -0.0149 -0.1988
27469W        W45673   7.987   6.424   5.888 -0.3398  0.0059  0.0244
27470W        W45674  14.953   1.639  13.435  0.2489  0.0815  0.2266
27471W        W45675   8.131   5.281  13.317  0.1493  0.2130  0.3880
27472W        W45676  10.862  10.492  12.405 -0.1168  0.4911 -0.1244
27473W        W45677   1.798  11.437   1.156  0.0316 -0.0518  0.0349
27474W        W45678  14.542  17.231   1.737  0.1270 -0.1059  0.0668
27475W        W45679   6.909   6.600   2.407 -0.0674  0.4081  0.0008
27476W        W45680   0.701   2.387  16.515  0.0407  0.1703  0.1682
27477W        W45681  12.159   7.102   4.040 -0.0629  0.1548 -0.2065
27478W        W45682   2.172  15.266   5.319  0.1055  0.1531  0.1827
27479W        W45683   3.437  15.748  12.842  0.0590 -0.1423 -0.0415
27480W        W45684  12.328   6.950  14.980 -0.1545  0.0908  0.0434
27481W        W45685  12.930  16.274   0.198  0.0163 -0.0668  0.0836
27482W        W45686   3.854  15.662  16.278 -0.0240  0.2132 -0.2374
27483W        W45687  14.667   8.891  15.812  0.1241 -0.1407 -0.0127
27484W        W45688  11.105   0.990  15.081  0.1784  0.0599  0.0920
27485W        W45689   8.716   9.115  13.584 -0.1004 -0.1182 -0.1437
27486W        W45690   9.712   6.703   4.466  0.0091  0.0133  0.0071
27487W        W45691   7.745  16.352  12.204  0.0696 -0.0319  0.0252
27488W        W45692  15.686   1.968   2.142  0.1128  0.1848 -0.0080
27489W        W45693  15.867   8.466  17.436 -0.2457 -0.1942 -0.2104
27490W        W45694   9.160  12.258  14.431  0.3474 -0.0035  0.1869
27491W        W45695   9.831  16.435  16.673  0.3097  0.1662 -0.1551
27492W        W45696  16.797   1.857  11.434  0.0551  0.1401  0.1647
27493W        W45697  13.718   6.532   0.011  0.0109 -0.2431  0.0468
27494W        W45698  14.111  16.979   3.199  0.4035 -0.0257  0.0048
27495W        W45699   6.399   7.788   4.976 -0.0067 -0.2091 -0.2346
27496W        W45700   0.145  16.557   3.325  0.2256 -0.2610 -0.1497
27497W        W45701   6.748   5.705  16.081  0.1088  0.1801  0.0382
27498W        W45702   9.357  10.804   0.178 -0.1198  0.0325 -0.1141
27499W        W45703   6.995   7.625  15.975 -0.0463  0.1499 -0.4370
27500W        W45704   5.539   9.497  13.073  0.1298 -0.0039  0.0658
27501W        W45705  16.740   9.521  14.570 -0.2128  0.0256  0.0815
27502W        W45706   8.475   1.984   1.461 -0.2556 -0.0680 -0.0319
27503W        W45707  14.689   8.326  15.860  0.1183 -0.1721 -0.0599
27504W        W45708  13.344   8.445   1.901  0.1420 -0.2643 -0.1002
27505W        W45709   8.124  17.064  16.443 -0.0048  0.0272 -0.0078
27506W        W45710  15.274  11.082  14.683 -0.0237 -0.1471  0.3529
27507W        W45711   0.888  14.283   3.107 -0.3333 -0.1152 -0.2916
27508W        W45712  10.015   5.635   4.433 -0.1671  0.1232 -0.0099
27509W        W45713   8.598   5.424  12.606  0.0190  0.1375  0.1349
27510W        W45714  13.484   8.145  11.628 -0.0521 -0.3892  0.0571
27511W        W45715   0.498  10.996  17.152 -0.1464 -0.2198 -0.0690
27512W        W45716   4.021   6.273   2.279  0.2843 -0.0550  0.0042
27513W        W45717   3.003  12.675  13.960 -0.1176 -0.0155  0.0527
27514W        W45718  16.548   7.584   1.156 -0.0657  0.0470  0.3099
27515W        W45719   3.797   6.680   0.529 -0.4196  0.1117  0.4327
27516W        W45720   9.687   7.091  11.452  0.3648 -0.2500  0.1713
27517W        W45721  14.578   7.161   3.401  0.1977  0.1320  0.1760
27518W        W45722   9.253   3.327  14.685 -0.4235 -0.3273 -0.1282
27519W        W45723  11.122  10.909   0.643 -0.1789  0.0315  0.0785
27520W        W45724   8.521  17.148  12.874  0.0725 -0.0908  0.0949
27521W        W45725   7.794   6.324  13.797  0.0546 -0.0310 -0.1355
27522W        W45726  10.109   8.521   1.225 -0.0662 -0.1062 -0.0339
27523W        W45727   7.231   6.318  13.772  0.0163  0.0042  0.0696
27524W        W45728   1.255   4.826   2.660  0.1005 -0.2745  0.3176
27525W        W45729  15.580   9.745  15.293 -0.1038 -0.2769 -0.3620
27526W        W45730   5.461  10.535   5.564  0.1058 -0.0051  0.0367
27527W        W45731   1.869   9.375   0.691  0.2084  0.1274 -0.0539
27528W        W45732   9.198  14.364   1.906 -0.0177  0.0732 -0.4001
27529W        W45733  16.990   1.149  13.940  0.2315 -0.0638 -0.1889
27530W        W45734  10.817   3.814  15.620 -0.0535 -0.0399 -0.1356
27531W        W45735   4.883   9.001  13.052  0.0869  0.1146 -0.1395
27532W        W45736  10.062   5.879   2.866  0.1344  0.0753  0.1052
27533W        W45737  13.800   9.538   6.299  0.3710  0.0877 -0.0011
27534W        W45738  11.316  10.687  16.923  0.1263 -0.0640 -0.3707
27535W        W45739  10.529   8.298  12.152 -0.0102 -0.0725 -0.0712
27536W        W45740  10.199   7.770   5.060 -0.1015  0.1006  0.0951
27537W        W45741   6.110  10.314  14.395 -0.1010 -0.0502 -0.1400
27538W        W45742  15.623   4.615  16.781  0.1830  0.0955 -0.2775
27539W        W45743   3.150  14.924   3.297 -0.1597 -0.0279 -0.1586
27540W        W45744   9.440   7.330   0.841 -0.0484  0.1318 -0.1356
27541W        W45745   0.590  13.807  15.961 -0.0338 -0.1819  0.2789
27542W        W45746   4.883   1.256  15.314  0.4104 -0.2160 -0.1494
27543W        W45747   8.631   2.116  15.181 -0.1767 -0.1000 -0.3434
27544W        W45748  14.612  14.620   0.105 -0.2453  0.2029  0.0681
27545W        W45749   5.601  15.524  14.084  0.1082 -0.2672  0.1932
27546W        W45750  15.643   1.272   2.870  0.0088 -0.1497  0.3081
27547W        W45751   2.897  16.081   4.043  0.0814 -0.1105  0.0339
27548W        W45752  16.364   1.944   1.537  0.1757 -0.2637 -0.0697
27549W        W45753   0.072  14.450   2.367  0.2390  0.2787  0.0657
27550W        W45754   4.777  13.256  13.870 -0.0127 -0.0890  0.0218
27551W        W45755   1.332   0.876   3.630  0.0610 -0.0732  0.1597
27552W        W45756  12.363  10.249  12.458  0.2089  0.0625  0.3860
27553W        W45757  15.682   0.711  12.739 -0.3078  0.1613 -0.1176
27554W        W45758  14.628  11.736  14.890 -0.2376  0.1100  0.1861
27555W        W45759   3.929  16.570   2.010 -0.0457  0.4318 -0.0515
27556W        W45760  15.264   2.725  16.027 -0.1082 -0.0509 -0.0230
27557W        W45761   2.104   4.698   4.176  0.0170  0.1214 -0.2377
27558W        W45762  13.845   6.956  11.146 -0.0873  0.0524  0.1978
27559W        W45763  16.544  10.369   2.027 -0.2516  0.1935  0.0318
27560W        W45764  15.849   3.754   1.277 -0.0034  0.1816  0.1814
27561W        W45765   2.288  10.857   2.761  0.0047 -0.1627 -0.2332
27562W        W45766  13.612   0.624  16.832 -0.0393  0.1117  0.2367
27563W        W45767   5.022  14.786  13.799  0.1848  0.1994 -0.0401
27564W        W45768  16.962  12.779   1.177 -0.1333  0.1859  0.0336
27565W        W45769   0.145  12.460   1.330  0.2656  0.2155 -0.0005
27566W        W45770  15.649  13.550  12.741 -0.3066 -0.0474  0.1293
27567W        W45771   5.654  13.327   3.174 -0.0268 -0.0300 -0.1125
27568W        W45772   0.796  14.321  16.887  0.3344 -0.2386 -0.0476
27569W        W45773   0.161   8.194  14.879  0.0340  0.1636 -0.0889
27570W        W45774   1.936   4.367   4.601  0.3997  0.0352  0.1607
27571W        W45775   9.131   4.888  14.690  0.0456  0.1874 -0.0003
27572W        W45776  10.413  15.299  14.943  0.2056 -0.4144 -0.1852
27573W        W45777  11.481  15.988   1.028 -0.1406 -0.4725  0.2475
27574W        W45778  14.035  16.654  15.046  0.0649  0.3237  0.0733
27575W        W45779   7.953   9.799  17.485 -0.0264 -0.2916  0.1888
27576W        W45780   3.116   0.524   2.816 -0.0061  0.5228 -0.3535
27577W        W45781  13.618   0.877  11.326 -0.0735  0.1079  0.0511
27578W        W45782   0.569  14.432   3.789 -0.0177 -0.0027 -0.1515
27579W        W45783  10.066   5.163   4.534  0.1294 -0.1935  0.5073
27580W        W45784   0.359   7.878   1.385 -0.0539 -0.1974  0.2441
27581W        W45785  14.335  10.621  16.770 -0.0981 -0.2897  0.1865
27582W        W45786  15.925   6.615   3.090  0.2483  0.0829 -0.1011
27583W        W45787   1.269   8.936  15.112  0.0085  0.1600 -0.1558
27584W        W45788   3.697  12.349  15.509  0.0619 -0.1050  0.2481
27585W        W45789   6.183  13.969  13.616 -0.0908 -0.1992  0.0701
27586W        W45790  12.872   4.802  12.651  0.1875  0.4715  0.3951
27587W        W45791  16.319  11.272   4.041  0.2632 -0.0147 -0.2926
27588W        W45792  11.653   3.617   5.154  0.0662 -0.1709 -0.1635
27589W        W45793  15.599  13.721  15.352  0.3574 -0.0653  0.1825
27590W        W45794   7.711  11.302   2.018  0.0963 -0.2910  0.0962
27591W        W45795   1.113   0.846   4.568  0.0941 -0.0284 -0.0728
27592W        W45796  16.514  13.790  16.144 -0.1892  0.0618  0.3819
27593W        W45797  16.275   1.180   5.308  0.0671  0.1087  0.1109
27594W        W45798   4.007   2.186   3.556 -0.0528 -0.1792 -0.2159
27595W        W45799   3.649  15.834   0.552 -0.0311 -0.0745  0.1695
27596W        W45800   2.970   7.990  14.252 -0.3979  0.0661 -0.2198
27597W        W45801   5.473  10.803   2.574  0.0393 -0.0646  0.1184
27598W        W45802  11.977  10.829   0.777  0.2545 -0.1318  0.0128
27599W        W45803   5.706  14.636  12.458  0.1859 -0.0464 -0.0860
27600W        W45804   5.270   2.904   1.885 -0.0084  0.0714  0.1999
27601W        W45805  14.196  16.647   3.956 -0.1553  0.1011 -0.3039
27602W        W45806   7.475   0.276  13.639  0.1548 -0.0088 -0.3294
27603W        W45807   0.448  13.751  12.839 -0.0761  0.2195  0.1328
27604W        W45808   9.264  12.095  14.000  0.1880  0.3554  0.1477
27605W        W45809   8.872   1.269  15.226 -0.0727  0.2083  0.1446
27606W        W45810  10.727   1.579  16.236 -0.0916 -0.0080 -0.2440
27607W        W45811   1.543  15.011   0.737 -0.0159  0.1940 -0.4008
27608W        W45812   8.953   9.593   4.899  0.2018 -0.3655 -0.1282
27609W        W45813   3.868   3.578  13.265 -0.1881  0.0311 -0.1310
27610W        W45814   3.963  15.983   2.859  0.3331  0.1608  0.1432
27611W        W45815   7.577  14.297  14.904 -0.2201  0.1631 -0.0530
27612W        W45816  10.728   3.485  15.963  0.1092 -0.2054  0.0885
27613W        W45817   0.061   0.207   0.260 -0.0549  0.3248 -0.0536
27614W        W45818   2.141  15.254   3.740  0.1615  0.0773  0.1286
27615W        W45819   5.620   5.575  15.193  0.1721  0.3379  0.0253
27616W        W45820   6.987   5.597   2.699 -0.1320 -0.0932 -0.2042
27617W        W45821  12.188   1.035   3.038 -0.1586 -0.0918  0.0822
27618W        W45822   1.537  15.121   4.112 -0.1495  0.0498 -0.0939
27619W        W45823   7.165   8.927  16.022  0.1410  0.1364 -0.2943
27620W        W45824   9.018  11.769   1.608 -0.0801  0.3400  0.1253
27621W        W45825   9.875   0.120   3.481  0.1400  0.2357  0.2917
27622W        W45826   6.940   3.924   0.477  0.0380 -0.0912 -0.3009
27623W        W45827  16.726  12.960  13.027  0.2072 -0.3515 -0.1364
27624W        W45828   6.662  14.191   4.468 -0.1689  0.2651  0.1184
27625W        W45829  12.671   5.568   5.625  0.2322  0.3809 -0.0140
27626W        W45830  10.551   1.110   4.951 -0.0439 -0.1867  0.0274
27627W        W45831   3.119   5.036   4.574 -0.1656  0.1154  0.2636
27628W        W45832  17.116   0.935   2.834 -0.4771  0.0247  0.0895
27629W        W45833   4.111  14.092  16.748 -0.1510 -0.0622 -0.1092
27630W        W45834   6.672  16.488  16.621 -0.0793  0.1656 -0.0517
27631W        W45835  13.716   3.370  16.356 -0.0837  0.0017 -0.1716
27632W        W45836  16.262  16.994  17.013 -0.0387 -0.1101 -0.1615
27633W        W45837  10.941   8.931   1.926  0.2722 -0.0023  0.0271
27634W        W45838   5.293   6.506  15.541 -0.0682 -0.0153  0.0347
27635W        W45839  15.034  13.433  14.036 -0.0699 -0.3126 -0.1348
27636W        W45840  15.506  14.258  13.431  0.1658  0.4255 -0.0055
27637W        W45841  14.799  16.981  12.917 -0.0445 -0.3476  0.2614
27638W        W45842  14.527  12.564   3.367  0.4589  0.0633 -0.1232
27639W        W45843  10.102   7.885   1.941  0.0944  0.1294  0.0997
27640W        W45844  11.269  11.022  15.375 -0.1691 -0.0108  0.0103
27641W        W45845   4.480   1.361  14.521 -0.2587  0.1431 -0.4661
27642W        W45846  11.584  17.337  17.167 -0.1271  0.0203 -0.1669
27643W        W45847  14.865   6.502   2.015  0.2697 -0.1572  0.0127
27644W        W45848  15.664   6.986   0.162 -0.0973 -0.2702  0.1904
27645W        W45849  10.073  15.239   1.451 -0.1834  0.2075  0.0816
27646W        W45850   7.740  10.379  16.629 -0.2044  0.2099 -0.0589
27647W        W45851   8.400   0.152   3.345 -0.2356  0.1463 -0.0408
27648W        W45852  15.178   0.085   2.274  0.0243 -0.1494 -0.1044
27649W        W45853   5.644  15.113  15.578  0.2395 -0.2707  0.2061
27650W        W45854  12.550   6.766   0.195 -0.2669  0.0304  0.0559
27651W        W45855  11.846  14.072  13.540  0.1164 -0.1259 -0.0912
27652W        W45856   1.981   5.908   4.243  0.0095 -0.1319 -0.2198
27653W        W45857   6.647  16.647   1.979 -0.1143 -0.0439  0.0313
27654W        W45858  14.833   2.868   0.558  0.1706  0.0203 -0.0759
27655W        W45859   2.193   1.744  15.420  0.0672  0.2113 -0.1394
27656W        W45860  10.001   7.606   1.513  0.1723 -0.0973 -0.2297
27657W        W45861   5.044   8.121   1.705  0.3646  0.0693  0.2503
27658W        W45862  11.479  10.240   5.034  0.0671 -0.2024 -0.1405
27659W        W45863   3.992   5.476   0.213  0.0289  0.3665  0.0965
27660W        W45864  16.396  13.179   3.096  0.0116  0.1747  0.1419
27661W        W45865   6.560  11.151  13.383 -0.1863  0.4545 -0.0131
27662W        W45866   4.396   1.323  17.048 -0.1179 -0.2514  0.3115
27663W        W45867  16.850  14.117  17.016 -0.0166  0.0144  0.1426
27664W        W45868   0.460  16.496   5.046  0.0677  0.0189  0.0070
27665W        W45869  14.567   8.528  16.738 -0.0342 -0.2399  0.0321
27666W        W45870  13.479   7.788   1.979 -0.0138  0.1772 -0.2570
27667W        W45871  15.865   6.614  12.738  0.0506 -0.1278  0.1366
27668W        W45872   1.863   1.524   3.091 -0.0768 -0.1016 -0.0267
27669W        W45873   5.093   9.022   2.005 -0.1293  0.0845 -0.2912
27670W        W45874  11.592  16.760  13.521 -0.4866 -0.0905 -0.0741
27671W        W45875   0.880  10.732  17.256 -0.3341 -0.0564  0.0907
27672W        W45876  13.997  10.189   1.566 -0.3259 -0.2348  0.1836
27673W        W45877  15.243  15.918  13.876 -0.3792 -0.0286 -0.1752
27674W        W45878  16.916   2.160  12.819 -0.1229 -0.3059  0.0166
27675W        W45879   0.595   2.095   4.723 -0.1965  0.2456 -0.2967
27676W        W45880   6.760   7.786  12.391  0.2365  0.0971 -0.0484
27677W        W45881   7.067  15.287  13.408  0.1097  0.0534 -0.0721
27678W        W45882   4.045  14.959   5.486  0.0264  0.1808 -0.1571
27679W        W45883   2.875   3.667  12.070  0.0563 -0.1934 -0.0424
27680W        W45884  10.840   0.362  16.680 -0.1866  0.0977  0.1807
27681W        W45885   1.237   3.364  10.986  0.1545 -0.4602 -0.2449
27682W        W45886   6.842   6.882   1.074 -0.3159  0.0205 -0.0121
27683W        W45887   8.510   8.341   3.836  0.2059 -0.1580 -0.0769
27684W        W45888  11.853  16.985   1.968  0.1975 -0.1309  0.0387
27685W        W45889   8.011  13.923   4.856 -0.2142  0.0503 -0.2559
27686W        W45890   9.948   5.129  16.460 -0.1046  0.0659 -0.1392
27687W        W45891  12.903   3.777   4.059 -0.0048 -0.0311  0.1518
27688W        W45892   8.042  11.365  12.690  0.0386  0.0188 -0.3650
27689W        W45893  16.388   4.276   3.367 -0.0236 -0.0849  0.0731
27690W        W45894  11.204   6.780   1.465 -0.0120  0.2401  0.0143
27691W        W45895   6.869   0.476   2.778 -0.2321  0.2121 -0.1856
27692W        W45896   8.776   4.881  16.227  0.1924  0.4025 -0.1950
27693W        W45897   6.220  16.104   1.427 -0.1855 -0.2995  0.0760
27694W        W45898  12.874  10.617   2.898 -0.2723  0.0182  0.2374
27695W        W45899  11.199   1.658  14.345 -0.0572  0.0346 -0.1385
27696W        W45900   5.931  11.724   2.334  0.1892 -0.2756 -0.1236
27697W        W45901   8.839   9.145   4.977  0.1564  0.1116  0.1080
27698W        W45902  13.695  15.481   5.538  0.1682  0.1826 -0.2338
27699W        W45903  16.901  13.638  16.795  0.0520  0.1069  0.1703
27700W        W45904  13.100   8.811  12.936  0.2280  0.1558  0.3702
27701W        W45905   5.276   0.905   3.134  0.0697  0.1053  0.4377
27702W        W45906   0.260  11.461   5.058  0.0556 -0.1608 -0.3863
27703W        W45907   2.263  16.294   2.206 -0.1622  0.1201  0.0046
27704W        W45908   8.948  16.716  13.799  0.1088 -0.1620 -0.1920
27705W        W45909  16.132  15.126   5.744  0.0858  0.1251 -0.4921
27706W        W45910  10.677  14.434  16.570  0.1094  0.1120 -0.0796
27707W        W45911   0.889   0.536   0.507 -0.2755 -0.3508 -0.1385
27708W        W45912  12.712   2.130  15.480  0.0594  0.0860  0.1830
27709W        W45913  12.481   6.216   0.064 -0.1931 -0.0356 -0.1811
27710W        W45914  14.756   9.247   0.957 -0.2431 -0.3062  0.1122
27711W        W45915  16.155  15.983  14.716 -0.3078 -0.2001 -0.0022
27712W        W45916  13.122   3.158  17.387  0.1077 -0.0514 -0.0017
27713W        W45917   0.524  13.404   4.131  0.1661  0.2000  0.0082
27714W        W45918   2.619   8.676  16.191  0.0708  0.2242 -0.1074
27715W        W45919  15.266   2.160   2.506 -0.0531  0.1455  0.0783
27716W        W45920   5.867   7.433   0.745 -0.1390 -0.1212 -0.2017
27717W        W45921   0.909   1.093   0.859  0.2402  0.2666  0.2857
27718W        W45922   2.396   3.769  13.895  0.0564  0.1832  0.1799
27719W        W45923   2.340   7.954   1.643 -0.0966 -0.0289  0.1596
27720W        W45924  14.170   8.647  17.102 -0.1733 -0.0941 -0.1019
27721W        W45925   5.819   4.359  15.576  0.0259  0.1376  0.2859
27722W        W45926  16.492  16.026  16.932 -0.0664 -0.1367 -0.0987
27723W        W45927   0.472  14.453   4.348 -0.0760 -0.2403 -0.0441
27724W        W45928   2.361   8.265   2.740 -0.2532  0.1440  0.0203
27725W        W45929  10.139   0.366   1.711 -0.0617  0.0318 -0.1474
27726W        W45930  17.147  16.827  16.416  0.0040  0.0258 -0.0117
27727W        W45931  13.033   0.005  16.373  0.2202  0.0966  0.2016
27728W        W45932   4.178   1.357  15.799 -0.0281 -0.1022  0.2424
27729W        W45933  15.672   8.022  17.335  0.2540 -0.0467  0.0288
27730W        W45934  11.345  13.639   2.919 -0.2425 -0.0208 -0.2699
27731W        W45935   3.038  11.671   2.341 -0.2760  0.1812  0.3837
27732W        W45936   4.355   2.478  13.801 -0.1603 -0.1527  0.1984
27733W        W45937   6.062   4.082  13.696 -0.1823  0.1457  0.3101
27734W        W45938   4.361  15.545  14.723  0.1081 -0.1093  0.1733
27735W        W45939  16.243   9.686  11.459  0.0906  0.2190 -0.3486
27736W        W45940   4.933   5.600  12.214 -0.2849 -0.0796  0.1590
27737W        W45941   1.759   2.779   2.353 -0.2093 -0.0034  0.0213
27738W        W45942   6.495   5.864   3.482 -0.0584  0.1439  0.2160
27739W        W45943  14.029  15.242   2.280  0.3387  0.1243  0.0976
27740W        W45944   1.917  12.207  14.759  0.0168  0.0307 -0.2027
27741W        W45945   9.956   1.450   2.981  0.0878  0.0955 -0.0338
27742W        W45946   3.542   4.765  12.407  0.1744  0.1870 -0.1690
27743W        W45947  11.286  16.501   0.886 -0.1354  0.0798 -0.1115
27744W        W45948   0.127   6.497  12.409 -0.2224  0.1521  0.2111
27745W        W45949  16.863   9.719  16.324 -0.0229 -0.3844  0.2063
27746W        W45950  13.183   7.152  17.195 -0.0520  0.0646 -0.2603
27747W        W45951   5.380  10.840  16.683 -0.1523 -0.0013 -0.0817
27748W        W45952  15.473   3.353   3.906  0.0125  0.5169  0.0041
27749W        W45953  13.601   0.555   2.904 -0.1081  0.0595  0.0763
27750W        W45954  13.673  11.476   1.251 -0.1793 -0.1158 -0.0181
27751W        W45955  10.993   7.315  15.175 -0.0842 -0.4459 -0.1868
27752W        W45956   3.654  15.170   3.183 -0.2492  0.0621 -0.2534
27753W        W45957   9.263  15.819   3.896  0.0900 -0.0307 -0.0855
27754W        W45958   4.372  15.728  17.385 -0.2234 -0.4125  0.0836
27755W        W45959  12.765   0.458   2.551 -0.2289  0.1621  0.1699
27756W        W45960  11.466   1.059  11.482 -0.0528 -0.0183  0.1343
27757W        W45961   7.929  17.206  17.299 -0.0549 -0.0769  0.3091
27758W        W45962  11.890   0.103   5.274  0.0795 -0.1912  0.2293
27759W        W45963   0.940  13.540   0.137  0.0703 -0.0284  0.1137
27760W        W45964   9.938   8.413   0.351 -0.2227 -0.1994 -0.2173
27761W        W45965   5.264  13.389   4.885  0.1381 -0.1254 -0.1796
27762W        W45966   4.942   0.083  16.683  0.1100 -0.1661  0.2306
27763W        W45967  16.895  16.365  17.458  0.0928  0.2025 -0.0044
27764W        W45968  13.690  10.803  14.056  0.2619  0.1377  0.2113
27765W        W45969  11.882  10.507   3.804  0.1438 -0.1315  0.1714
27766W        W45970  11.137   2.629  12.001  0.1294  0.1317  0.0668
27767W        W45971  16.393   5.420  12.900 -0.0478  0.2041 -0.0849
27768W        W45972   8.783   5.053   2.964 -0.0228 -0.0626  0.1203
27769W        W45973  14.545   5.475  12.413 -0.1889  0.1100 -0.0172
27770W        W45974   2.117   5.882  13.868  0.2726  0.2021 -0.3860
27771W        W45975  14.366   4.882  12.960 -0.1810 -0.0887 -0.0612
27772W        W45976   4.150  16.832  15.242  0.1293  0.3131  0.2172
27773W        W45977  13.724  14.123  15.980  0.0129  0.1033  0.1351
27774W        W45978   1.991  12.509   1.196  0.2326 -0.1830 -0.1432
27775W        W45979   9.961  10.733  14.014 -0.1182  0.0173 -0.1776
27776W        W45980   3.914   5.088   1.626 -0.1245  0.1031  0.0715
27777W        W45981  13.265   8.396  12.786 -0.2134 -0.2301  0.1209
27778W        W45982  11.091  10.080  12.103  0.0747  0.0057  0.0306
27779W        W45983   2.181  11.454  15.575  0.0347  0.0335 -0.1883
27780W        W45984   2.538  14.872   2.314 -0.0211 -0.3430  0.0734
27781W        W45985   4.118  10.805  12.413 -0.1507 -0.0584  0.1668
27782W        W45986   1.538   8.280   1.261 -0.1500 -0.2220  0.1297
27783W        W45987   2.552   2.848   1.002 -0.0209  0.0154  0.1999
27784W        W45988  12.200   0.519  16.770 -0.0985 -0.1234  0.3963
27785W        W45989   9.998   9.776   1.999 -0.1770 -0.0436  0.0271
27786W        W45990  10.865   0.637  15.433  0.2317  0.0582  0.0673
27787W        W45991  13.608   5.987   1.552 -0.0801 -0.1986  0.2718
27788W        W45992   8.487  12.141  13.387 -0.0647 -0.1112 -0.0428
27789W        W45993   3.729   7.162   2.328  0.2228 -0.2691  0.0178
27790W        W45994  16.811   3.280   2.274 -0.1431  0.0257  0.0160
27791W        W45995   1.562  12.713  14.972 -0.1316 -0.1162  0.0343
27792W        W45996  11.982  13.068  17.343 -0.0111  0.4312  0.1155
27793W        W45997  11.524  16.235   5.320  0.0220 -0.2411  0.3346
27794W        W45998   7.382  12.324  16.330 -0.1852 -0.1307 -0.0782
27795W        W45999  10.371   6.120  16.219  0.1424  0.2708  0.2293
27796W        W46000  11.216  13.100   2.189 -0.0615  0.2645 -0.0136
27797W        W46001   9.384  15.463   4.456  0.2466  0.0695  0.0761
27798W        W46002   9.193  12.700   0.255  0.1906 -0.0553 -0.0218
27799W        W46003  13.113  11.394   5.876 -0.2020 -0.0665  0.0621
27800W        W46004   5.040   5.958   4.150  0.0909 -0.1329 -0.0472
27801W        W46005  14.294   5.893  13.627  0.4051  0.1003 -0.1783
27802W        W46006   9.978   7.073  15.453  0.1693 -0.0308  0.0366
27803W        W46007  12.816  12.532   5.236  0.1000 -0.0172 -0.0703
27804W        W46008  16.676  16.215  16.517  0.0677 -0.2972 -0.2659
27805W        W46009   0.337   3.889   0.629 -0.0692  0.1542  0.1518
27806W        W46010  12.681  11.072  15.991  0.1038 -0.0451  0.1527
27807W        W46011   2.111   9.012  15.474  0.0127 -0.3595  0.2116
27808W        W46012  12.881   2.334   3.376  0.0749 -0.1833  0.0315
27809W        W46013   2.672   2.292  11.712 -0.0923  0.0185 -0.2690
27810W        W46014   0.077   3.204   5.294  0.0345  0.0932 -0.1437
27811W        W46015   1.319   6.766  17.015 -0.3853 -0.0080  0.0915
27812W        W46016   4.450  13.326   4.345  0.1105 -0.3247 -0.0250
27813W        W46017   9.946   7.295  17.108  0.0454 -0.0567  0.2284
27814W        W46018   3.855   5.220  14.935 -0.0582 -0.1263  0.3078
27815W        W46019   4.350  10.155  17.259 -0.1474 -0.3312 -0.3322
27816W        W46020   0.367   3.672   5.324 -0.2871  0.1199 -0.1385
27817W        W46021   9.658   0.914   4.496  0.1363 -0.0174  0.2674
27818W        W46022   4.469  14.431   2.223  0.0335 -0.3739 -0.0642
27819W        W46023  17.141   6.620  14.782  0.0481  0.0357  0.0367
27820W        W46024   2.229  12.785   0.570 -0.0630 -0.0412 -0.1635
27821W        W46025   7.445  13.254  16.096 -0.0411  0.2206 -0.1277
27822W        W46026   1.256  16.440   4.427  0.1300 -0.0674  0.2880
27823W        W46027   3.235  16.861  16.872  0.0771  0.0037 -0.3287
27824W        W46028  12.972   6.508  13.290  0.0645 -0.1044 -0.2024
27825W        W46029   2.860   1.028   4.484 -0.0987 -0.1463  0.0824
27826W        W46030  11.499   2.499  15.394 -0.0812  0.0396 -0.0749
27827W        W46031   7.100  13.258   1.395  0.1384 -0.0568 -0.2546
27828W        W46032  12.626   9.684  12.733  0.0802 -0.0841  0.0515
27829W        W46033  16.352  11.670  16.124 -0.0587 -0.0868  0.0172
27830W        W46034   3.679  11.240  16.989  0.2890  0.1017  0.1036
27831W        W46035  13.649  11.215   3.238  0.1817  0.4055 -0.1329
27832W        W46036   4.534  13.642   2.862  0.2164 -0.1154  0.0721
27833W        W46037   5.734   8.607  12.141 -0.1130  0.2031 -0.0634
27834W        W46038  11.217  13.560  13.920  0.0717  0.2158 -0.0790
27835W        W46039   4.141  16.398  14.225 -0.2357  0.0348  0.1872
27836W        W46040  14.563   3.307  13.469  0.1595 -0.0370 -0.1523
27837W        W46041  13.511  12.872  16.809 -0.1712  0.2031 -0.0407
27838W        W46042  10.727   0.778   2.877 -0.0584  0.0804  0.0254
27839W        W46043   8.046   4.466  13.707 -0.2125 -0.0078 -0.0125
27840W        W46044  13.154   6.282  12.417  0.0612 -0.3076  0.1821
27841W        W46045  14.417  14.838  14.511 -0.1600 -0.1043  0.2475
27842W        W46046   1.744  12.905  12.406 -0.1833 -0.1591  0.0943
27843W        W46047   7.510  10.232   4.759 -0.1415  0.1368 -0.0679
27844W        W46048   1.005   8.412   2.002 -0.1084  0.3360  0.1589
27845W        W46049   6.538   2.482  13.103  0.0919  0.1002  0.1370
27846W        W46050   8.335   1.099  12.497 -0.2882 -0.0354 -0.2901
27847W        W46051  10.161   6.676  14.026  0.0994  0.0260 -0.1232
27848W        W46052   3.917  13.542   4.452 -0.1603  0.0161 -0.2074
27849W        W46053   6.149  15.236  16.806 -0.3143  0.0672  0.1097
27850W        W46054   2.730  17.164  15.306  0.3134 -0.3445  0.1344
27851W        W46055   5.068   1.715  17.323  0.0863  0.3782  0.2465
27852W        W46056   3.740   0.324   1.118 -0.0096  0.0694  0.1537
27853W        W46057   5.799   0.799  12.834  0.1334  0.0690  0.0098
27854W        W46058   3.076   4.942  16.636  0.2478 -0.2768  0.0265
27855W        W46059   1.585  13.149  17.148  0.2085  0.4823 -0.1044
27856W        W46060   8.576  12.682  13.386 -0.0453 -0.2951 -0.0929
27857W        W46061   4.638  11.889  16.539  0.3021 -0.1650 -0.3182
27858W        W46062   1.843   0.675  16.929  0.1719  0.3518 -0.1670
27859W        W46063   4.454   8.497   4.033 -0.0759  0.0765 -0.0944
27860W        W46064   7.307   2.738   3.666 -0.4064  0.0850 -0.3148
27861W        W46065  16.676  10.538   5.600 -0.1058  0.0591  0.0594
27862W        W46066   5.481  15.607  15.518  0.0896  0.1084  0.3005
27863W        W46067   0.055   0.003   3.862 -0.2740  0.2677 -0.1725
27864W        W46068  10.817  14.022   5.362 -0.1470 -0.1018 -0.0285
27865W        W46069   9.098   7.581   0.083 -0.3510 -0.1241  0.0438
27866W        W46070   1.923  17.231   5.306 -0.0361 -0.0233 -0.0612
27867W        W46071   0.547  12.725  15.931 -0.0572 -0.1535  0.0308
27868W        W46072   5.081  15.346  15.401 -0.2066  0.3118  0.1573
27869W        W46073  14.570   2.237  15.540 -0.0584 -0.2202  0.0127
27870W        W46074   2.780   9.708  14.956 -0.0596 -0.4911  0.2368
27871W        W46075  13.351  11.442  12.489  0.3304 -0.3139 -0.1685
27872W        W46076   7.781  10.823   1.317 -0.2856  0.1271 -0.4164
27873W        W46077  11.379  16.873   4.499 -0.1264 -0.2663  0.0809
27874W        W46078   5.554  13.101   1.913  0.3052  0.1818 -0.2683
27875W        W46079   4.049  10.379  16.142  0.1724 -0.2897  0.2826
27876W        W46080   3.679  10.489   0.221 -0.1723  0.2083 -0.0388
27877W        W46081   4.170   9.263   4.160 -0.0607  0.2032 -0.0758
27878W        W46082   0.627   4.090  16.823 -0.1120  0.1901 -0.2704
27879W        W46083   6.972   8.726  17.470  0.0631  0.0290  0.0058
27880W        W46084   3.099   8.886  16.854  0.1067  0.0054  0.0147
27881W        W46085  12.666   2.968   0.479  0.1019 -0.0282  0.1960
27882W        W46086  16.593   4.642  16.280 -0.1587  0.0709 -0.0368
27883W        W46087   6.019   2.298  16.689  0.0811 -0.1823  0.1834
27884W        W46088  13.810   4.629  16.549  0.2712 -0.0088  0.3272
27885W        W46089  17.082   5.661   0.575 -0.0688  0.1959 -0.2250
27886W        W46090  16.953   0.998   4.564 -0.0792  0.1157  0.1155
27887W        W46091  14.910   9.056  13.255 -0.1303 -0.0212 -0.2752
27888W        W46092   9.501   4.657   0.656  0.0017 -0.0085  0.3395
27889W        W46093   8.189   4.391  14.785  0.0309  0.0873 -0.3028
27890W        W46094   8.983   8.098   0.217  0.2349 -0.2393  0.0411
27891W        W46095   1.692   5.997   2.427 -0.0655 -0.1117 -0.1265
27892W        W46096  14.358  10.790   1.903  0.0819 -0.3411  0.1559
27893W        W46097   2.686   6.868   0.765  0.3291 -0.0957 -0.1766
27894W        W46098  17.105  10.186   3.376 -0.0066 -0.2223  0.1098
27895W        W46099   9.735   5.838   1.914  0.1615  0.0562  0.1259
27896W        W46100   1.494   3.964   1.466 -0.1855  0.0581 -0.1052
27897W        W46101   9.388  14.499   1.100 -0.2511 -0.2182 -0.5205
27898W        W46102  14.467   1.278  13.252  0.0222  0.1264 -0.1589
27899W        W46103   8.130   2.819  12.539  0.2072  0.0422  0.2960
27900W        W46104  15.402   7.184  13.674 -0.4854  0.1196 -0.0262
27901W        W46105   1.302   3.617  16.099 -0.3327  0.3504  0.0960
27902W        W46106  11.025   4.229   5.508  0.0189  0.0621  0.1838
27903W        W46107   9.716   0.123  16.898 -0.2047  0.0002 -0.1077
27904W        W46108  15.225   6.638  15.937  0.0469 -0.4448  0.0680
27905W        W46109   8.593   7.951   1.525 -0.0962 -0.0088  0.0172
27906W        W46110   1.671  12.639   2.485  0.0585  0.0627 -0.4070
27907W        W46111   9.128   0.958   6.223  0.0091 -0.0937  0.1037
27908W        W46112  12.307  17.062   0.096 -0.1524  0.1249  0.0363
27909W        W46113  14.381   9.568  12.770  0.1504  0.2941  0.3095
27910W        W46114   4.048  11.724  16.266 -0.0553 -0.2070 -0.2970
27911W        W46115   1.401  14.074  13.575 -0.2050  0.0074  0.2395
27912W        W46116  16.201   5.481   4.921 -0.3037 -0.2636 -0.0123
27913W        W46117  12.913   6.741  12.806  0.2550  0.0059  0.1954
27914W        W46118  15.715   2.524  15.034  0.1662  0.0976  0.0652
27915W        W46119  14.400   5.738  14.136  0.2734  0.1778 -0.1748
27916W        W46120  15.723   2.660  17.439  0.2370  0.1411  0.1141
27917W        W46121  14.897   4.967  13.104  0.3627  0.1383  0.0549
27918W        W46122   4.564   4.590  15.390  0.1350 -0.0804  0.3725
27919W        W46123   1.787   3.462  14.694  0.1375  0.0480 -0.1508
27920W        W46124   0.858  15.744  16.766  0.2933 -0.2657 -0.1384
27921W        W46125  17.060   2.306   2.681 -0.1486 -0.1295 -0.2521
27922W        W46126   9.245   3.000  14.083 -0.0142 -0.0648 -0.1554
27923W        W46127  14.911  13.343  12.612  0.1229 -0.0808 -0.1915
27924W        W46128   6.080   9.728   4.086  0.0740  0.0802  0.0067
27925W        W46129   4.698  11.243   0.784 -0.0373  0.1229  0.3285
27926W        W46130   2.976   5.867  13.623 -0.1403  0.0963 -0.2750
27927W        W46131  15.823  16.292  17.502 -0.2490 -0.1406 -0.0731
27928W        W46132   7.066   1.217  14.800  0.2106  0.0883 -0.0900
27929W        W46133   8.788   4.742   1.726 -0.2187 -0.2901  0.3226
27930W        W46134   2.619  10.383   1.194  0.0901 -0.1659  0.1520
27931W        W46135   7.448   4.270  14.710 -0.1329  0.2112  0.2856
27932W        W46136   4.856   4.209   4.093  0.0811  0.3972 -0.0088
27933W        W46137  13.475  11.097  13.713 -0.2634 -0.4840 -0.3299
27934W        W46138  13.116  14.991  14.055 -0.0740 -0.2291 -0.0891
27935W        W46139   4.835   9.614  14.877  0.1722 -0.1458 -0.3295
27936W        W46140  10.400   9.608   0.739  0.1438 -0.3360  0.0561
27937W        W46141  13.630  12.364  16.681  0.0712  0.1095  0.1172
27938W        W46142   3.897  11.111  13.567 -0.0835  0.0103  0.1133
27939W        W46143   9.542  10.412   1.483 -0.2119  0.3064  0.1388
27940W        W46144   5.702   6.058  15.255 -0.1972 -0.1300 -0.0050
27941W        W46145  12.714   4.961  14.592 -0.1396  0.0602 -0.0281
27942W        W46146  16.311   5.706  15.459 -0.3016  0.2227  0.1642
27943W        W46147  14.169   7.117   4.763 -0.1469  0.0306 -0.1589
27944W        W46148   5.561  13.533   4.526 -0.2068  0.1835  0.0514
27945W        W46149   4.856  11.056   4.202  0.0095  0.1822 -0.1939
27946W        W46150  10.907   0.206  15.619  0.3111  0.0606 -0.0364
27947W        W46151  16.790   6.442  11.394  0.3074  0.0089  0.0796
27948W        W46152   6.660  15.388  14.750 -0.2578 -0.0218 -0.0916
27949W        W46153  10.288   2.682   5.066  0.0409 -0.0419  0.1491
27950W        W46154   7.454   4.717   0.938  0.1118 -0.0194  0.1631
27951W        W46155   2.953  15.601  17.166  0.2444 -0.2493  0.0312
27952W        W46156   9.397  11.028   2.865  0.1581  0.2103 -0.0482
27953W        W46157  10.284  10.249  14.045  0.1023  0.0705 -0.0420
27954W        W46158  16.708  16.663  14.035  0.1780  0.4080 -0.0947
27955W        W46159   1.739   9.291   2.860  0.1589  0.0549  0.2820
27956W        W46160  16.449   1.538   0.778  0.2480 -0.2049  0.1252
27957W        W46161   0.293  16.210   4.680  0.2172  0.1841 -0.0193
27958W        W46162  14.640  17.322   0.778 -0.0337 -0.0531  0.0810
27959W        W46163   7.319   7.226  11.792  0.0958 -0.1163  0.3607
27960W        W46164   5.943  14.255   5.077  0.0643  0.1054  0.2064
27961W        W46165   6.597   7.738  11.401 -0.2142  0.1348 -0.1931
27962W        W46166  11.902   6.883  14.458  0.0654 -0.0155 -0.0542
27963W        W46167   1.231   5.183  15.653  0.0400 -0.2053  0.0475
27964W        W46168   6.853   7.187   5.524  0.0985 -0.2959  0.0639
27965W        W46169  15.692   1.732  12.363  0.4110  0.1757 -0.0890
27966W        W46170  11.443  14.724  14.489  0.0187  0.0677  0.1833
27967W        W46171  16.496   7.539  16.352 -0.0878 -0.1515 -0.0200
27968W        W46172   2.196   3.993  17.247  0.0938  0.1907 -0.2416
27969W        W46173  17.034   3.220   2.687 -0.4015 -0.0477 -0.2389
27970W        W46174   9.961   2.824  16.916  0.4175  0.1568 -0.1440
27971W        W46175  16.888  15.714  15.388  0.0914  0.0865  0.1865
27972W        W46176   0.843   8.948  16.705 -0.1689  0.0816 -0.0351
27973W        W46177  12.425   3.241   4.796 -0.2065 -0.1162 -0.1245
27974W        W46178   5.563  12.377  15.561  0.2174  0.4011 -0.4175
27975W        W46179   2.851   6.181   3.050 -0.0345  0.0905  0.1498
27976W        W46180   1.658   3.076  14.949  0.0015  0.2457 -0.0916
27977W        W46181   3.652  15.111  17.121  0.3595 -0.3049 -0.2083
27978W        W46182   4.317  15.934   1.291 -0.4463 -0.0129  0.0357
27979W        W46183   8.596  14.535  16.327  0.0864  0.4241 -0.0053
27980W        W46184   3.297   6.832   1.447 -0.1267 -0.3068  0.3372
27981W        W46185   0.553   6.404   4.861  0.0945  0.3467  0.4929
27982W        W46186   5.715   8.378   1.727  0.0280 -0.1793 -0.3236
27983W        W46187   3.288  16.766   2.672 -0.0314  0.0929  0.1145
27984W        W46188  10.107  12.093   3.880  0.1030  0.0668  0.3506
27985W        W46189  11.348   3.244  16.584 -0.0490  0.0514 -0.0803
27986W        W46190   0.946  15.878  15.306 -0.1640  0.2439  0.0885
27987W        W46191  10.487   5.043  16.381 -0.1191 -0.0423 -0.5191
27988W        W46192  13.727  12.756  15.521 -0.0843  0.0413 -0.1252
27989W        W46193   2.106   2.239   1.588  0.1800  0.0102 -0.0573
27990W        W46194   2.319  11.494   1.306  0.1176 -0.0414  0.0412
27991W        W46195   9.877   5.317  12.877  0.1667 -0.2430  0.1561
27992W        W46196   9.385  14.833  12.506  0.1121  0.2373 -0.1412
27993W        W46197   6.925  12.305   4.938  0.0609  0.0229 -0.1488
27994W        W46198   1.544  13.780  17.169 -0.3220  0.1072  0.5685
27995W        W46199   5.873   4.196  15.085  0.3155 -0.2546 -0.1256
27996W        W46200  16.685   6.773  16.404 -0.0683 -0.0642 -0.1900
27997W        W46201   4.618  15.611  16.662 -0.0078  0.1321  0.0966
27998W        W46202  16.950   1.091  16.463 -0.0276 -0.0731  0.0207
27999W        W46203   1.180   7.116  13.924 -0.0106  0.1468  0.1034
28000W        W46204   7.944  10.877   3.433 -0.1288  0.1450  0.3062
28001W        W46205   4.447   4.541   0.223 -0.3894  0.1706  0.0572
28002W        W46206   1.846  16.153   0.208 -0.0757  0.2227 -0.2822
28003W        W46207  11.055   3.651  17.467  0.2702  0.0832 -0.0168
28004W        W46208   2.676  10.544   3.587 -0.3450 -0.1852 -0.0293
28005W        W46209   8.744   8.368   4.405  0.1750 -0.1312  0.0399
28006W        W46210   6.024  16.468   0.518  0.0385  0.1976 -0.0896
28007W        W46211  12.316   0.503   2.341 -0.1809  0.0311  0.1133
28008W        W46212   9.357   7.663   5.687  0.1549 -0.3111  0.1716
28009W        W46213   6.559   2.760  15.486 -0.0566  0.0575 -0.5574
28010W        W46214  10.633  16.997   5.330  0.1869 -0.1815  0.1419
28011W        W46215   9.021   2.929   1.837  0.1236  0.0122  0.0724
28012W        W46216   9.965   2.040  17.444 -0.1299 -0.1788 -0.1250
28013W        W46217   5.259   3.280   4.149 -0.2989 -0.2887 -0.1917
28014W        W46218   3.182   3.768  12.658 -0.0107 -0.0942  0.0912
28015W        W46219   7.194  11.295   0.872 -0.2229 -0.0621  0.1239
28016W        W46220  14.274  12.992  16.238 -0.0895  0.3125 -0.0431
28017W        W46221  12.767  14.101   3.444  0.0570  0.0627  0.1480
28018W        W46222   3.288   2.571   0.218 -0.0073 -0.0081  0.0144
28019W        W46223   4.843   8.986   4.634 -0.0266  0.2196  0.1375
28020W        W46224  11.511  11.113  13.321  0.0556 -0.0510  0.1542
28021W        W46225   1.398  11.616  13.434  0.0667 -0.0413  0.1145
28022W        W46226  15.942  15.821  12.135 -0.2220  0.0373 -0.1044
28023W        W46227   8.692  10.748  11.037  0.0058  0.4222 -0.1273
28024W        W46228   6.507   0.492  13.927 -0.1853  0.0482 -0.1330
28025W        W46229  15.871  12.860  17.006  0.0780  0.0563 -0.0081
28026W        W46230  15.561  13.935   5.011  0.1952  0.0775  0.2297
28027W        W46231   7.705   3.760   3.311 -0.0849 -0.0235 -0.3759
28028W        W46232  12.416   3.356   2.411  0.1000  0.0943 -0.2418
28029W        W46233   0.005   2.759   4.029  0.0745 -0.2300  0.0956
28030W        W46234   2.529  16.366   0.698  0.0966  0.1740  0.1712
28031W        W46235  15.533   8.701   3.101  0.0539  0.0669  0.1950
28032W        W46236  17.062   8.403   4.884 -0.3692  0.0062 -0.1926
28033W        W46237   2.017  13.951   0.574  0.0067 -0.0006 -0.0255
28034W        W46238   1.061   9.462   4.383 -0.0296  0.1105 -0.1738
28035W        W46239   6.206   9.754  15.038  0.6504  0.0200  0.0269
28036W        W46240   6.448  15.436  15.361  0.0612 -0.1501 -0.0918
28037W        W46241   3.121  14.946   5.381 -0.1655 -0.0295 -0.0898
28038W        W46242  11.246  12.705  12.266  0.0231  0.1339  0.1504
28039W        W46243   9.113  11.554  16.783 -0.0512 -0.4532  0.1029
28040W        W46244  16.652   5.038  14.128  0.2782 -0.1290  0.3123
28041W        W46245  13.910  12.721   2.181 -0.1446 -0.0114  0.2276
28042W        W46246   9.481   3.318   0.589 -0.1949  0.1728 -0.2205
28043W        W46247   4.297   3.186   0.702 -0.0734 -0.1303 -0.0443
28044W        W46248  14.991  16.944   4.252 -0.0595  0.0352  0.1146
28045W        W46249  16.648   0.797  12.439  0.2180 -0.0049 -0.2680
28046W        W46250   8.240   8.214   4.255 -0.2068 -0.2282  0.3744
28047W        W46251  12.237  17.310  14.864 -0.1772  0.0748 -0.0116
28048W        W46252   6.373   1.300  12.393  0.1849 -0.2221 -0.0708
28049W        W46253   3.657   8.108   4.808  0.1844 -0.0088  0.0647
28050W        W46254   3.341   3.674  11.888 -0.2068 -0.3394  0.2393
28051W        W46255  16.369  12.770  15.797 -0.1133 -0.0663  0.3735
28052W        W46256  13.482   3.743  14.292  0.2473  0.2299 -0.2688
28053W        W46257   2.360  16.124   0.256  0.0097 -0.0341  0.0255
28054W        W46258   5.992  13.516  13.409  0.0923 -0.1470  0.1723
28055W        W46259   5.951   5.318   1.922 -0.0712  0.2460 -0.0308
28056W        W46260  17.036  11.982  13.948 -0.1871 -0.0710  0.2358
28057W        W46261  17.035   6.430  16.780 -0.0236  0.1985  0.2345
28058W        W46262  14.463   7.878   0.448  0.1790  0.2565 -0.0625
28059W        W46263   3.593   9.755  17.275 -0.0774  0.1831  0.1297
28060W        W46264   1.589  14.099  14.051  0.2051 -0.1773 -0.0981
28061W        W46265  10.497   0.140   1.338 -0.0019  0.0112  0.2841
28062W        W46266  13.930   6.083   0.166 -0.2589  0.1995  0.0899
28063W        W46267   0.587   4.196   1.051 -0.0397 -0.3731  0.0432
28064W        W46268   9.432  11.805  12.786  0.2665 -0.0560 -0.1881
28065W        W46269  12.380   0.125  13.615  0.1420 -0.0244  0.0011
28066W        W46270  13.110   0.791  16.818 -0.0200 -0.1619  0.2477
28067W        W46271   6.643  15.864  14.512 -0.2257  0.1129  0.1928
28068W        W46272  10.118   4.811   1.699  0.2798 -0.0245 -0.0042
28069W        W46273  13.979   1.053  15.052  0.1247 -0.4171  0.1777
28070W        W46274   9.767   3.300  12.891  0.1516  0.1516 -0.1198
28071W        W46275   5.430   6.240  14.189  0.0196  0.2459 -0.1033
28072W        W46276  14.204   9.096   3.819  0.0135  0.2100 -0.0886
28073W        W46277   7.671  11.067  14.791 -0.1584 -0.0602 -0.3702
28074W        W46278   4.771  11.678   1.537  0.0979 -0.0138  0.0677
28075W        W46279   8.098   6.856  16.518  0.1112  0.0471 -0.1656
28076W        W46280  14.561   4.205  11.856  0.3236  0.0071  0.0745
28077W        W46281  10.450   5.440   5.483 -0.3479  0.0903 -0.0533
28078W        W46282   8.100   2.600   4.594 -0.1213  0.2416 -0.1560
28079W        W46283  12.826   9.147  15.304 -0.1768 -0.2117 -0.1041
28080W        W46284  15.754   7.165   0.941 -0.0435  0.1404 -0.2809
28081W        W46285  12.847  11.056   5.704  0.0952  0.0213 -0.0998
28082W        W46286   7.672   1.493  14.687  0.3632 -0.0966  0.1224
28083W        W46287  14.436  10.110   0.045  0.1206  0.3369 -0.2038
28084W        W46288  10.409   4.323   4.862  0.2637  0.2444  0.0063
28085W        W46289   6.019   4.619   3.804 -0.0722  0.1212 -0.1959
28086W        W46290  10.399   4.802  12.520  0.0160 -0.1932 -0.0511
28087W        W46291   6.812  16.054  16.550  0.4624 -0.0141 -0.2290
28088W        W46292   2.831   6.293  16.441 -0.1125  0.1704 -0.0732
28089W        W46293   1.735   8.283  13.222 -0.0890  0.0272 -0.0464
28090W        W46294  16.807   5.869   4.092 -0.1250  0.1837  0.0238
28091W        W46295  10.647  11.870  14.207 -0.0948 -0.2574 -0.2141
28092W        W46296   9.766   2.642   5.110 -0.0541 -0.0590  0.0884
28093W        W46297   3.936   1.762   2.680 -0.1563  0.1654  0.0912
28094W        W46298  16.164   9.612  13.100 -0.1611  0.0353 -0.3502
28095W        W46299   0.428   5.076   5.096  0.1289  0.0283 -0.1442
28096W        W46300   8.243   0.975   2.589  0.0376 -0.1671  0.0132
28097W        W46301   1.971   6.449  11.992 -0.0035 -0.1384  0.0310
28098W        W46302   1.854   7.066   2.764 -0.0091  0.0525  0.1011
28099W        W46303  10.105  17.025  15.246  0.0215  0.0219  0.0356
28100W        W46304  14.686   4.283   3.466 -0.2110  0.1389  0.2090
28101W        W46305  12.792  10.989   4.689  0.2884  0.0888 -0.1423
28102W        W46306   6.944  13.291   5.004 -0.0419  0.0900  0.2239
28103W        W46307   0.489   3.572   2.884  0.3352  0.0166  0.0580
28104W        W46308   5.808  11.217   2.568 -0.2089  0.0178  0.0396
28105W        W46309   8.591   4.832  17.042 -0.2879 -0.0474 -0.1157
28106W        W46310  11.204   0.190   0.812  0.2212  0.0038 -0.0800
28107W        W46311  17.275  14.106   4.377 -0.0625 -0.0187  0.2763
28108W        W46312  16.744   6.520   0.726 -0.0801 -0.1219  0.0175
28109W        W46313   2.544  11.821  16.489 -0.1264  0.2505  0.1795
28110W        W46314  15.674   3.756  16.628  0.0347 -0.2111  0.1695
28111W        W46315   0.644   2.804   3.416  0.5508 -0.2753  0.1313
28112W        W46316   4.510  16.341  14.590 -0.0198  0.3022 -0.3578
28113W        W46317   4.030  15.120   0.915 -0.3345 -0.2894 -0.0233
28114W        W46318  10.090   2.459   5.547  0.0926  0.1112 -0.1837
28115W        W46319  17.312  12.670   0.346 -0.1795 -0.0077  0.1193
28116W        W46320  14.724  16.396  14.345 -0.2644 -0.0086 -0.2052
28117W        W46321   3.893  15.685  13.734 -0.1464  0.1148 -0.0879
28118W        W46322   8.767   6.343  15.292  0.1378 -0.1267  0.1326
28119W        W46323   1.333  15.523  17.527 -0.0643  0.3151  0.0820
28120W        W46324   7.136  11.503   2.679 -0.2377 -0.0045 -0.2575
28121W        W46325   0.430  11.083   4.740  0.1151  0.1817  0.0305
28122W        W46326   2.943  10.215   0.027  0.1818  0.2005 -0.1835
28123W        W46327  15.008  10.350   2.326 -0.1246  0.2935 -0.2427
28124W        W46328   8.985   2.559  15.946  0.3500  0.0455 -0.0213
28125W        W46329   5.081  15.698  13.374 -0.3272  0.0898  0.3126
28126W        W46330   4.834  17.112   4.715  0.0761  0.1790  0.0783
28127W        W46331   2.575   8.764  15.299 -0.0261  0.1522  0.2714
28128W        W46332  14.696   1.024  16.192 -0.2820  0.5500  0.2522
28129W        W46333   1.618   8.674  15.700  0.0179 -0.3444 -0.6431
28130W        W46334   7.698  15.720   1.598 -0.1683  0.2651  0.0321
28131W        W46335  12.226   4.161   2.617  0.1234  0.1478 -0.2252
28132W        W46336   6.732   9.736   4.834  0.0992  0.1939  0.0387
28133W        W46337  13.950   5.179  13.151 -0.2677  0.2082  0.0386
28134W        W46338  10.679   3.398   1.585  0.0184 -0.2961 -0.1373
28135W        W46339   7.840   3.417   5.303  0.1511 -0.0038 -0.2198
28136W        W46340   9.400   8.637   3.709  0.0608  0.0500 -0.1056
28137W        W46341   4.789   7.769  14.170  0.3061  0.0662  0.1288
28138W        W46342   9.424  15.163   1.456 -0.2812  0.2132 -0.2651
28139W        W46343   0.560  11.735  16.372 -0.3279  0.1588 -0.0979
28140W        W46344   2.272   2.362  16.476  0.1765 -0.1569 -0.1742
28141W        W46345   2.531   3.883   4.058 -0.0043  0.0226  0.1960
28142W        W46346   3.878  14.268  15.415 -0.0301 -0.1146  0.1029
28143W        W46347  11.758   6.250  12.560  0.0147 -0.1157 -0.1379
28144W        W46348  10.409  14.855  17.260 -0.0357  0.1530  0.1480
28145W        W46349  12.406  13.573   5.356 -0.0648 -0.0318  0.1166
28146W        W46350  15.842  15.307  13.573 -0.1917  0.0328 -0.3605
28147W        W46351   6.371   9.805  13.568 -0.2120 -0.0886 -0.2233
28148W        W46352   1.176  10.113  15.688  0.0870 -0.2224  0.1231
28149W        W46353   6.589  11.840   1.791 -0.1355 -0.0291 -0.1036
28150W        W46354   2.667   6.541  14.636 -0.1361  0.0695  0.0708
28151W        W46355   7.205   6.752  16.267 -0.0759 -0.1469 -0.0017
28152W        W46356   5.466   9.573  14.089 -0.0778 -0.0566 -0.1661
28153W        W46357  11.845  14.828  12.082 -0.1120 -0.0147 -0.3103
28154W        W46358   9.686   9.303   0.674 -0.1198  0.1567  0.0382
28155W        W46359   7.134  15.944   1.230 -0.0969  0.2189  0.2016
28156W        W46360   3.542  13.080  13.446 -0.4825  0.1177  0.0003
28157W        W46361   6.275   5.132  16.801  0.2657  0.0056  0.1200
28158W        W46362   3.232  14.544  13.812  0.1119  0.2710 -0.1701
28159W        W46363   3.211  15.352  14.436  0.0882  0.0298  0.1059
28160W        W46364   7.825  16.268  13.344 -0.1074  0.0607  0.0124
28161W        W46365  15.343  12.838   2.562  0.1263  0.0119 -0.3128
28162W        W46366   9.467  10.537   4.350 -0.4518  0.3173  0.2265
28163W        W46367   5.969   0.158   2.256  0.4502  0.0647  0.2160
28164W        W46368   0.797   1.640   4.062  0.1267  0.0042 -0.1037
28165W        W46369   6.741  15.272   1.758 -0.0972 -0.2407 -0.0332
28166W        W46370  17.022   0.457   2.528 -0.0184 -0.0522  0.3797
28167W        W46371  13.282   8.761  17.203  0.0611 -0.5566 -0.2471
28168W        W46372  12.490  12.599   2.713  0.1475 -0.2143 -0.0469
28169W        W46373  13.718   2.328  13.947  0.1622 -0.1443 -0.2617
28170W        W46374   4.784   4.330   3.133 -0.0231 -0.2214  0.0518
28171W        W46375   6.597  15.958  17.469 -0.2362 -0.0122 -0.1506
28172W        W46376  13.756   4.134  16.203 -0.0384 -0.0311  0.0853
28173W        W46377   5.850   6.273   4.099  0.2085 -0.0089 -0.1961
28174W        W46378   4.015   8.970  13.799  0.1425  0.2947 -0.3567
28175W        W46379   5.379  14.518  13.981  0.0999 -0.0594 -0.2632
28176W        W46380   9.416  16.033   3.457 -0.2139 -0.0281  0.2352
28177W        W46381   4.962   7.080   1.712  0.2496 -0.2685 -0.0651
28178W        W46382  12.593  14.090  14.019  0.2114 -0.0357 -0.1585
28179W        W46383  13.929   6.693  16.130 -0.1116 -0.0159 -0.0775
28180W        W46384  12.016   4.819   3.404 -0.0594  0.0933  0.3329
28181W        W46385  14.517  12.339   4.808  0.2438  0.0499  0.1415
28182W        W46386  12.361  12.501   0.619 -0.1109  0.3495 -0.3862
28183W        W46387  15.197   1.008  17.417  0.0814 -0.1781  0.1579
28184W        W46388   9.600   4.982  14.268 -0.0738  0.4008  0.2391
28185W        W46389   4.736   6.519   2.798  0.0179 -0.0216  0.1384
28186W        W46390   5.336  14.766  12.940  0.1489 -0.0032  0.2978
28187W        W46391   1.386   8.373   5.247  0.2762  0.0277 -0.1553
28188W        W46392  13.009   4.171  13.671  0.1418  0.0334  0.2391
28189W        W46393  11.919  10.868   0.204  0.1234 -0.2613 -0.4838
28190W        W46394  15.952   0.282  12.477  0.2094  0.0209  0.3591
28191W        W46395  15.988  12.590  15.568 -0.0407  0.1833  0.3528
28192W        W46396   8.364  12.841   2.415  0.1566 -0.1458  0.2905
28193W        W46397  12.098   5.715  13.530  0.0567 -0.0010 -0.2633
28194W        W46398  13.310  16.001  17.290 -0.1983 -0.0045 -0.4202
28195W        W46399  15.614   0.622  14.803  0.0631  0.2505 -0.1490
28196W        W46400  14.145  13.737  16.064 -0.1438  0.1189  0.1168
28197W        W46401   3.923   0.767   0.912  0.2234  0.2989 -0.2190
28198W        W46402   8.577  12.387  16.506  0.2683 -0.1590 -0.0784
28199W        W46403   1.165   7.945  15.754  0.2394 -0.1493 -0.2500
28200W        W46404  12.807   3.272  11.973 -0.2275 -0.1170  0.1901
28201W        W46405   5.134   7.427  15.985 -0.2273 -0.3646 -0.1151
28202W        W46406   6.521  16.780  16.041  0.1466 -0.1503 -0.0831
28203W        W46407   0.350   7.118   0.360 -0.1162  0.0040 -0.1902
28204W        W46408   2.871   1.790  16.077  0.1638 -0.0871 -0.3270
28205W        W46409  16.587  14.785  12.795 -0.3092 -0.0008 -0.0174
28206W        W46410   1.098  10.532   4.389  0.1759 -0.2732  0.1550
28207W        W46411   6.661  14.280  16.811 -0.1550 -0.2628 -0.2256
28208W        W46412  14.040  15.885   3.512  0.1135 -0.0345 -0.2171
28209W        W46413  11.480   1.756   2.011 -0.1111 -0.2129  0.0206
28210W        W46414   1.575  14.837  13.128 -0.2190 -0.0345  0.1596
28211W        W46415   3.536   4.425  16.183  0.0769 -0.0217  0.2460
28212W        W46416  14.876   7.650   0.163 -0.2772 -0.2078 -0.0085
28213W        W46417  13.631  10.594   3.115 -0.1845 -0.1049 -0.0165
28214W        W46418  14.408  15.732   3.831 -0.0313 -0.0752 -0.2075
28215W        W46419   6.752   6.684  13.267 -0.1162  0.1744  0.0458
28216W        W46420   8.437   9.188   0.509 -0.0709 -0.0808  0.1544
28217W        W46421   4.452   8.949   4.953 -0.0662 -0.2091  0.3076
28218W        W46422   4.858   1.737  13.731 -0.1037 -0.2000  0.2890
28219W        W46423  11.036  14.289   0.784  0.1490  0.0075  0.1764
28220W        W46424  14.102  14.439   3.312  0.0369  0.1758 -0.1849
28221W        W46425   4.264   4.186   2.170 -0.1909  0.1091 -0.0999
28222W        W46426  10.064   0.698   0.470 -0.0245 -0.1251 -0.0454
28223W        W46427   1.345   7.292  14.984  0.0247 -0.1984  0.0886
28224W        W46428  11.760   2.818  15.685  0.0458  0.1053  0.2199
28225W        W46429   2.620   4.133  12.176  0.2696  0.1836  0.3294
28226W        W46430  16.079  11.020   6.190  0.1067  0.0228  0.1161
28227W        W46431  14.061   5.492   4.691  0.3441 -0.1197  0.1376
28228W        W46432  10.410  11.865  12.805  0.1079  0.2717  0.1820
28229W        W46433  11.181   3.055   4.350 -0.0362  0.0443  0.1258
28230W        W46434  12.272   9.611   4.926 -0.2496 -0.0693 -0.2654
28231W        W46435  10.966  13.591  14.360  0.4415  0.2769 -0.1045
28232W        W46436   3.253  14.147   2.538  0.4517 -0.2250 -0.0784
28233W        W46437   3.350  10.330   4.709  0.0291  0.0568  0.1362
28234W        W46438  15.871   2.308  15.449  0.0887 -0.2670  0.0648
28235W        W46439   4.835   1.242  13.461 -0.1935 -0.0851  0.1145
28236W        W46440  14.118   5.132  16.268  0.1654 -0.0161  0.0234
28237W        W46441  13.501  10.851   0.885  0.1319  0.5976  0.2440
28238W        W46442  16.741   0.286  14.799  0.0385 -0.1216  0.2113
28239W        W46443  16.295   0.891   3.404 -0.1242  0.1745 -0.1504
28240W        W46444  10.754   2.691  14.892  0.2419  0.0598 -0.2709
28241W        W46445   8.102   9.180  12.851  0.0196 -0.0578 -0.0454
28242W        W46446   3.104  14.233  13.076  0.2237 -0.0010  0.1231
28243W        W46447   4.799   6.360   5.373  0.2316 -0.2180  0.3578
28244W        W46448   2.930  16.142  16.221 -0.0117 -0.3812  0.0870
28245W        W46449  14.073  10.686  14.768 -0.0992 -0.0436 -0.0044
28246W        W46450   8.602   9.704   4.101  0.0686  0.2205 -0.0532
28247W        W46451  15.708  12.708  16.454 -0.0584  0.0339 -0.1174
28248W        W46452   7.062   2.511  14.229 -0.0918 -0.2355  0.0639
28249W        W46453  13.538   9.454   4.831 -0.0859  0.2112  0.1674
28250W        W46454   3.005  14.466   5.460 -0.1139  0.0871 -0.0852
28251W        W46455  10.589   6.518  13.781  0.1499 -0.1928  0.1237
28252W        W46456  15.471  12.812  14.520  0.1200  0.0686  0.0577
28253W        W46457   2.541   2.761  16.022 -0.0228 -0.0440 -0.2850
28254W        W46458  11.333  13.522  15.773 -0.1471  0.1315  0.1750
28255W        W46459  15.607  15.338   1.192  0.1776 -0.1993  0.1545
28256W        W46460   0.338   9.229   2.724  0.1503  0.0530  0.0474
28257W        W46461  17.135  13.666  14.496  0.0969  0.0664  0.1255
28258W        W46462   6.618   5.193  15.698 -0.1514  0.1494  0.0403
28259W        W46463   0.135  16.633  16.789 -0.1042 -0.1596 -0.0542
28260W        W46464   1.277  17.059  16.569  0.0172  0.0235  0.0047
28261W        W46465  10.078   8.705  17.425 -0.0503 -0.0309 -0.1664
28262W        W46466   6.674   6.160  14.644 -0.5127 -0.1113  0.0960
28263W        W46467   0.165   6.292   2.389 -0.1451 -0.2606  0.0226
28264W        W46468   2.141  13.709   4.897  0.0509  0.0753 -0.1039
28265W        W46469  16.110  14.875  14.018  0.0425  0.1464 -0.1173
28266W        W46470   9.382  16.557  17.099 -0.0661 -0.1906  0.4445
28267W        W46471   4.275   6.871  14.392 -0.0456  0.0168 -0.2478
28268W        W46472  12.860   4.262   2.108  0.1462 -0.2423 -0.0416
28269W        W46473   3.820  14.517  16.602 -0.1643 -0.1587 -0.4058
28270W        W46474   2.358  14.082   2.163  0.3175 -0.2098  0.0126
28271W        W46475   4.576  11.992  17.028  0.1228  0.1330 -0.0122
28272W        W46476  14.361   2.144   2.130  0.1068 -0.1572  0.2174
28273W        W46477  15.041  15.109  17.124 -0.4310  0.1380 -0.3634
28274W        W46478  10.747   3.253   4.329 -0.0244 -0.1484 -0.1243
28275W        W46479  15.714  13.481   3.597 -0.0033 -0.3843 -0.0660
28276W        W46480   1.019   8.302  16.960 -0.0990 -0.0080  0.3260
28277W        W46481   6.861  13.079  15.241  0.2408 -0.2057 -0.1815
28278W        W46482  15.860   3.929   2.689 -0.3040  0.0731  0.1504
28279W        W46483  10.619   7.017   1.994  0.1365 -0.2897  0.0179
28280W        W46484   4.304  12.529   1.900  0.0320  0.2248 -0.1544
28281W        W46485  16.261  10.567  14.013  0.0343  0.1175 -0.1953
28282W        W46486   9.476  14.619   0.644  0.3054 -0.0146 -0.2938
28283W        W46487   9.928   3.383   3.365  0.1044 -0.0222  0.2042
28284W        W46488  15.930  13.625   4.778 -0.1554  0.0830 -0.1793
28285W        W46489  13.589  14.738   1.670  0.3758  0.1358 -0.0429
28286W        W46490   1.198   5.115   4.242 -0.0948 -0.3283 -0.0835
28287W        W46491  13.247   2.719   3.801 -0.4387  0.0018  0.0718
28288W        W46492   0.316  11.741  15.337  0.1320  0.5040 -0.0710
28289W        W46493   1.920   7.388  12.797  0.1202  0.0680 -0.2728
28290W        W46494   4.496   5.720  16.111  0.0021 -0.0239  0.0012
28291W        W46495   9.231   8.231  15.170  0.0514  0.0406 -0.0071
28292W        W46496   3.306   6.743   0.680  0.0767  0.0939 -0.1128
28293W        W46497  16.391   8.628   3.313  0.0222  0.1663  0.0040
28294W        W46498  15.277   7.502  13.325  0.0546  0.0790  0.1352
28295W        W46499   2.814  16.425  12.365  0.1191  0.2834 -0.0313
28296W        W46500   1.517  12.758   1.083 -0.1897  0.2550  0.1245
28297W        W46501  16.054  15.835  15.981  0.0576 -0.0337 -0.1072
28298W        W46502  12.361  16.264  14.224 -0.3297 -0.1414 -0.0972
28299W        W46503   3.079   9.117   0.124 -0.2717  0.3832 -0.1347
28300W        W46504  14.848  16.629  17.135  0.2372  0.2539  0.1129
28301W        W46505  12.722   7.368   4.724  0.2310 -0.1740  0.2316
28302W        W46506   7.337   1.680  15.081  0.2525 -0.1340 -0.2515
28303W        W46507   2.980  11.019  11.798 -0.1298 -0.0406  0.1465
28304W        W46508  14.532   8.012   2.911  0.1115 -0.0047  0.0874
28305W        W46509  12.870   2.083  16.374 -0.0610  0.1402 -0.0494
28306W        W46510   1.684   1.047  12.449 -0.0655  0.0625  0.1825
28307W        W46511   6.962   9.822   2.625  0.1235  0.1968  0.0723
28308W        W46512   0.913  16.659   5.228  0.0399  0.1564  0.0044
28309W        W46513   6.577   5.188  12.575  0.1177  0.0110  0.3116
28310W        W46514  14.543   5.765  16.086  0.0510  0.0218  0.0389
28311W        W46515  17.015   4.257   0.526  0.0267  0.1741 -0.0709
28312W        W46516   1.160   8.439  12.419 -0.2738  0.1962 -0.0199
28313W        W46517   4.537  11.051   6.345  0.1355  0.0116 -0.0877
28314W        W46518  12.360  10.529   0.788  0.0229 -0.1608 -0.2119
28315W        W46519   5.945  12.370  15.869 -0.1843 -0.2149  0.0393
28316W        W46520  11.441   4.305  14.805  0.2452  0.0119  0.1409
28317W        W46521   9.483  13.674   5.180  0.0556  0.0237 -0.0566
28318W        W46522  13.077   2.800  12.346 -0.0177  0.1384  0.1074
28319W        W46523  12.084  14.402   5.185 -0.3230 -0.1374  0.1541
28320W        W46524   2.437  17.055  14.397  0.0171 -0.2272  0.0286
28321W        W46525  15.639  13.198   5.547  0.1421  0.0523 -0.1250
28322W        W46526   3.758  12.273   1.137 -0.1482 -0.1094  0.0348
28323W        W46527   3.370   6.790  14.948 -0.2020 -0.0432  0.1094
28324W        W46528   8.625   1.681  13.934  0.1898  0.2924 -0.1798
28325W        W46529  16.782  15.710  16.670 -0.4075  0.2952 -0.1366
28326W        W46530  11.551  13.673  13.059 -0.2141  0.2487  0.0108
28327W        W46531  10.109   2.001   2.076 -0.1550 -0.1416 -0.0454
28328W        W46532  13.411   3.256  13.252  0.1712  0.1143  0.1985
28329W        W46533  14.950  14.842   2.391 -0.3107  0.2330 -0.0172
28330W        W46534  11.302  16.934   2.118 -0.1306 -0.0596  0.0634
28331W        W46535   5.011   7.182  15.540  0.0242  0.1631 -0.0264
28332W        W46536   2.049  12.201  13.070 -0.2343 -0.0308 -0.1535
28333W        W46537  16.409   6.459  12.309  0.2246  0.0344  0.7107
28334W        W46538   1.669   9.468   1.272  0.2346 -0.0875  0.3681
28335W        W46539  10.492  16.691  15.793 -0.0828 -0.1933  0.0011
28336W        W46540  12.460  17.072  13.896 -0.2983  0.0543 -0.0013
28337W        W46541   1.342   2.829  16.771 -0.2023  0.1990  0.0596
28338W        W46542   3.707  12.657   4.487 -0.1797 -0.3189 -0.1482
28339W        W46543   5.631   6.302   0.735 -0.1669  0.0355  0.2940
28340W        W46544   3.734   3.082  16.181 -0.0873  0.1275  0.0433
28341W        W46545   2.013  12.731   3.034  0.0084 -0.1658  0.1937
28342W        W46546   0.171  16.778  17.263  0.0733  0.1933  0.0359
28343W        W46547  17.131  17.320  16.476  0.1518  0.1412 -0.1583
28344W        W46548  11.951   9.196   4.908 -0.1153 -0.1765 -0.3012
28345W        W46549  16.717   1.292  12.591  0.0656  0.1133 -0.4474
28346W        W46550  11.505  10.570  13.424 -0.2120 -0.0503 -0.0438
28347W        W46551  10.809  10.078  17.493  0.2488 -0.5066  0.3979
28348W        W46552   1.487  10.748   5.087  0.2231  0.1033  0.1489
28349W        W46553   3.456   3.069   5.202  0.3023 -0.2441  0.1343
28350W        W46554   6.241   2.040   4.263 -0.0161  0.0159 -0.1317
28351W        W46555   2.935   0.869   3.194  0.0474 -0.2289  0.2988
28352W        W46556   0.771  15.746  16.285  0.3105 -0.0540  0.0364
28353W        W46557  12.784   5.339   4.807 -0.2297 -0.0999  0.0610
28354W        W46558  13.416   1.060  14.895  0.2395  0.2924 -0.1358
28355W        W46559  14.863  14.229  14.156 -0.0907  0.1545 -0.3484
28356W        W46560   9.667   0.396  12.344  0.1575  0.0443  0.0917
28357W        W46561   5.627   5.969   0.165  0.0887 -0.0989 -0.1468
28358W        W46562   2.070  13.220   4.058  0.2836 -0.0159  0.2003
28359W        W46563  14.989  10.821  12.740 -0.0972  0.2321 -0.2170
28360W        W46564   2.960  10.367   3.976 -0.0306  0.2611  0.1962
28361W        W46565   0.636  15.596  13.559  0.1161 -0.0566  0.0899
28362W        W46566  10.585   3.404  13.049 -0.1788  0.0927 -0.1790
28363W        W46567   5.318   9.448   5.010  0.0981  0.1754 -0.2784
28364W        W46568   3.454  16.006  13.729 -0.1742 -0.1270 -0.2066
28365W        W46569  10.038   0.241   1.258  0.1408  0.0797 -0.0203
28366W        W46570   2.506   0.945  16.291  0.0418 -0.0998  0.4300
28367W        W46571  12.357  10.673  12.215 -0.0300  0.0950  0.2158
28368W        W46572   2.596   7.890   0.651  0.0621  0.1289  0.2707
28369W        W46573  10.997   8.560  17.081 -0.2729  0.0381 -0.0973
28370W        W46574   9.059   8.902  14.144  0.2811  0.4330 -0.1358
28371W        W46575   4.143   7.502   2.905  0.1360  0.3987  0.0415
28372W        W46576   2.629   2.256  14.743 -0.0606  0.1450  0.2198
28373W        W46577   8.461   7.332  14.173 -0.0438  0.1094 -0.0712
28374W        W46578   3.612   8.823  13.605  0.1419  0.0658 -0.0015
28375W        W46579   5.874  17.277   0.834  0.1700 -0.1829 -0.1544
28376W        W46580   4.712  11.294  13.856  0.3780 -0.1681  0.3228
28377W        W46581   1.773   8.851   5.330  0.1359  0.1750 -0.0777
28378W        W46582   4.924   4.626  12.692 -0.0798  0.1518  0.0942
28379W        W46583   1.821  10.978  14.669 -0.1815 -0.0549 -0.0683
28380W        W46584  15.343  13.094  13.870 -0.0290 -0.0140  0.1664
28381W        W46585  16.089   4.708   2.682  0.1137 -0.1339  0.0343
28382W        W46586   6.975   0.101   6.338  0.0801 -0.0876 -0.1813
28383W        W46587   5.207   6.315  16.404 -0.1615  0.1064 -0.1514
28384W        W46588  11.417  13.861  15.094 -0.3177  0.0323  0.1009
28385W        W46589  14.197  12.183  16.878  0.2041 -0.2718 -0.1488
28386W        W46590   9.407  10.781   0.671  0.1924 -0.0957  0.3403
28387W        W46591  14.893   3.594   1.107 -0.0583  0.3020 -0.1328
28388W        W46592   5.414  12.971  14.897 -0.3147 -0.0426  0.2065
28389W        W46593  10.385  10.066   4.727 -0.0576 -0.0013 -0.0274
28390W        W46594   8.045  14.351  15.354  0.1627 -0.1281  0.1697
28391W        W46595   2.481  10.351  16.097  0.0680  0.0475 -0.1334
28392W        W46596  10.695  14.755   2.507 -0.1366 -0.0860  0.0535
28393W        W46597  13.095  12.696  14.585  0.2878  0.3378  0.0375
28394W        W46598   1.238  16.815  13.232 -0.2458  0.0336 -0.0468
28395W        W46599   9.450   8.339  13.942  0.1684 -0.0067  0.4975
28396W        W46600   6.936   8.291  12.519  0.1906  0.0006  0.0855
28397W        W46601   6.181  10.734  17.338 -0.0868  0.1345 -0.1017
28398W        W46602   3.985   7.202  14.178  0.1837  0.0126 -0.1826
28399W        W46603   3.482   8.436   0.635 -0.0433  0.0129  0.1680
28400W        W46604   7.638  10.232  14.472  0.0118 -0.0466 -0.1239
28401W        W46605  16.104  12.670  17.494  0.0716 -0.2466  0.0836
28402W        W46606  13.940   1.027  15.941 -0.0152 -0.2482 -0.0757
28403W        W46607  16.939   7.343   0.420 -0.0830  0.0195 -0.1956
28404W        W46608   4.876   1.316  17.119  0.0389  0.1963  0.1420
28405W        W46609  13.723   8.019   4.314 -0.0705 -0.2441  0.1426
28406W        W46610   0.250   8.344   1.254 -0.0156  0.1517  0.1471
28407W        W46611  16.964   0.140   3.097 -0.1193 -0.1309  0.1543
28408W        W46612   5.639  17.013  15.698  0.1064 -0.1548 -0.0905
28409W        W46613  12.025   8.121  17.071  0.0067  0.0484 -0.0312
28410W        W46614   9.289   6.102  16.367 -0.0796  0.2516 -0.2039
28411W        W46615   5.668   8.866   3.509 -0.0591  0.1867 -0.0197
28412W        W46616   5.374  16.684  13.534 -0.1182 -0.1749  0.1399
28413W        W46617  12.565  13.624  15.269 -0.0731 -0.0478  0.1072
28414W        W46618  12.972   9.883   0.643  0.0084  0.5627 -0.2164
28415W        W46619   0.414   7.613   3.053  0.0051 -0.0631 -0.1237
28416W        W46620  15.164  12.093   0.855  0.2999 -0.3236  0.0012
28417W        W46621   3.044   1.705  13.432  0.1046 -0.0975  0.1388
28418W        W46622   1.806  17.081   5.758 -0.0673  0.1245  0.0562
28419W        W46623   7.090   1.243   0.913  0.0322  0.0353  0.4162
28420W        W46624   5.708   2.406  14.093  0.1755  0.1231 -0.1667
28421W        W46625   4.254  12.185   3.625 -0.3045 -0.2296 -0.1820
28422W        W46626  14.905  14.302  12.348 -0.3229  0.2191  0.0832
28423W        W46627   6.533   3.553   0.707  0.0786  0.0814  0.0307
28424W        W46628   6.127  15.479  13.782  0.0431  0.0570 -0.0414
28425W        W46629   9.556   3.199   3.689  0.1725 -0.1605  0.0354
28426W        W46630  10.951   0.712   3.702  0.1885  0.1170 -0.2637
28427W        W46631   5.688   1.252   3.186 -0.0235  0.0332 -0.3117
28428W        W46632  16.034   7.186   0.498  0.2241 -0.1158 -0.1923
28429W        W46633  14.132  16.173  16.048 -0.3503 -0.1214  0.2043
28430W        W46634   5.155   8.405  15.090  0.0533  0.2696  0.0347
28431W        W46635   5.229   5.642   0.473  0.2319  0.0340  0.0937
28432W        W46636   4.604   7.553  11.862 -0.0646  0.0257  0.1516
28433W        W46637  12.200   1.410  13.084  0.2351  0.2000 -0.2327
28434W        W46638  11.878   4.536   5.247 -0.1332  0.0056 -0.0535
28435W        W46639   0.037   6.753   5.315 -0.0282 -0.0764  0.0975
28436W        W46640  14.019   1.539  13.466 -0.2498 -0.1648 -0.3468
28437W        W46641   5.651  14.695   5.160  0.0339  0.0144 -0.0635
28438W        W46642   6.932  15.738  13.515  0.1036  0.2034 -0.1849
28439W        W46643  12.150   9.511   0.921 -0.2816 -0.0064  0.0788
28440W        W46644   6.195   3.002  15.113  0.0169  0.0517  0.0259
28441W        W46645   2.569   8.065   0.139 -0.3335  0.0603 -0.0230
28442W        W46646   3.355   2.526  15.452  0.1904 -0.0642 -0.0547
28443W        W46647   1.558   6.178   1.571 -0.1559  0.1565 -0.1839
28444W        W46648   9.859  10.284  14.319 -0.2323 -0.0526  0.0984
28445W        W46649   2.427   2.813  12.507  0.0186 -0.0931  0.2846
28446W        W46650  13.511   1.826   5.140  0.3637 -0.2824 -0.1587
28447W        W46651  12.333  14.330  15.994  0.1639 -0.0365  0.1910
28448W        W46652  16.874  15.895   2.010 -0.1315 -0.0749 -0.1147
28449W        W46653  11.923   6.737  16.909 -0.2558 -0.0724  0.0246
28450W        W46654  14.341   6.739   3.012 -0.0424  0.0818  0.2966
28451W        W46655   7.302  13.729  16.024  0.1026 -0.1597 -0.0645
28452W        W46656  14.561   6.909   3.836  0.2893  0.0841  0.1065
28453W        W46657   2.995  17.058   2.304 -0.1055  0.1367 -0.0709
28454W        W46658  12.026  15.203   0.298 -0.2620 -0.2223  0.0990
28455W        W46659   1.198   0.311   0.934  0.0521  0.1564  0.0121
28456W        W46660  12.166  16.528  12.817 -0.1873  0.0356  0.1087
28457W        W46661  16.794   5.974  15.469 -0.0797  0.0374 -0.2735
28458W        W46662   5.736   9.070   5.016 -0.1634  0.0264 -0.0584
28459W        W46663   8.171  16.144  14.058 -0.3278 -0.0820  0.2784
28460W        W46664   2.868  10.031   1.658 -0.0944  0.0624 -0.1098
28461W        W46665  10.747  15.677  13.871 -0.1989 -0.0414  0.1176
28462W        W46666   4.918  16.217  17.181 -0.1490  0.0660 -0.0040
28463W        W46667   9.349   9.273   4.972  0.1996 -0.0658  0.0224
28464W        W46668  14.320   1.662   2.298  0.1292  0.1953  0.3912
28465W        W46669  16.331  14.945   2.109  0.0816  0.0607 -0.1714
28466W        W46670  10.893   5.150  16.662  0.2630 -0.1934  0.1254
28467W        W46671   8.758  16.736   3.252  0.1864 -0.0733 -0.2346
28468W        W46672   3.243  14.997   1.597  0.0609  0.0439 -0.3434
28469W        W46673  17.237   1.071   5.420 -0.0151 -0.1675 -0.3169
28470W        W46674  14.561  15.078   4.908  0.0207 -0.2066  0.2198
28471W        W46675   3.126   0.821  15.650 -0.2144  0.0696  0.1404
28472W        W46676  15.029   1.983  13.865 -0.1783 -0.0076  0.2345
28473W        W46677  13.859   8.252   3.907 -0.2542 -0.1039  0.0634
28474W        W46678   4.725  17.338  17.431 -0.1458  0.3454  0.3983
28475W        W46679   3.728   4.620   4.402  0.1401 -0.1318 -0.0382
28476W        W46680  14.838  13.717   5.662  0.3041 -0.1379  0.3192
28477W        W46681   9.534   3.308   5.631  0.1152 -0.1536  0.3804
28478W        W46682   3.233   9.876  16.350 -0.0798 -0.0757  0.0690
28479W        W46683   3.740  16.858  12.733 -0.0273  0.2571 -0.0538
28480W        W46684  14.522   5.215   0.008 -0.0294 -0.2451  0.0385
28481W        W46685   1.005   6.629  13.882  0.1996  0.3165 -0.1744
28482W        W46686  11.179   8.638  16.141 -0.0914 -0.1619  0.3175
28483W        W46687  13.417  10.663   2.270 -0.0002  0.1171  0.2298
28484W        W46688  14.124   6.835   1.718  0.1733  0.1490 -0.1505
28485W        W46689   3.930   8.595   0.440  0.0584  0.0306 -0.0289
28486W        W46690  15.048  12.209   4.125  0.2274  0.2273 -0.3291
28487W        W46691   8.335   5.091   1.028 -0.3319  0.0065  0.2041
28488W        W46692  16.237   0.660  17.263  0.0065 -0.0441  0.1313
28489W        W46693  11.579   6.360  15.529 -0.4419  0.0018 -0.0706
28490W        W46694  11.299   7.907  17.125 -0.2823 -0.0315  0.1496
28491W        W46695  13.085   8.845   3.424 -0.0388  0.2274 -0.1881
28492W        W46696   4.507   0.013   0.720  0.1548  0.2462  0.0138
28493W        W46697  12.786   9.845  11.826  0.4883  0.2825 -0.3042
28494W        W46698   2.159   4.848  14.279 -0.3130 -0.1633  0.3105
28495W        W46699   2.125   5.362   1.009  0.3999 -0.1256  0.0308
28496W        W46700  14.619  12.636  12.938 -0.1587  0.2280  0.2642
28497W        W46701  12.783   7.813   5.052  0.1265 -0.2469 -0.1471
28498W        W46702   4.768   3.757   0.410  0.0046 -0.0397  0.1326
28499W        W46703   2.604   2.008  15.580 -0.2106  0.1214 -0.0418
28500W        W46704  14.777  17.188   5.057  0.0336 -0.0510 -0.0450
28501W        W46705   8.331   0.359   3.920  0.1343 -0.1390 -0.1111
28502W        W46706  10.233   8.398   1.725  0.2230  0.3702 -0.3399
28503W        W46707  13.269   1.639   2.402  0.0451 -0.4274  0.0236
28504W        W46708   0.593   8.607   1.015 -0.2099 -0.0551  0.3893
28505W        W46709   3.298  14.037   3.253 -0.0489 -0.2465  0.3436
28506W        W46710  13.007   0.796   0.754 -0.2470  0.0815 -0.4861
28507W        W46711   2.504  11.704  14.614  0.0691 -0.1969 -0.0130
28508W        W46712   4.640   7.416  15.908 -0.0991  0.0416  0.3892
28509W        W46713  16.223  11.073   2.270  0.1705  0.3218  0.0264
28510W        W46714  10.095   0.907   4.795 -0.0051 -0.0445 -0.1634
28511W        W46715  11.990  13.867  16.812  0.0957  0.1964  0.1728
28512W        W46716  12.254   4.730   4.978 -0.0288 -0.0155  0.1689
28513W        W46717  11.689   3.261  13.376 -0.0408  0.2026 -0.1626
28514W        W46718   7.190   1.391  16.393  0.0263 -0.3165 -0.2082
28515W        W46719   9.730   4.905   1.334  0.1599 -0.2950 -0.1738
28516W        W46720   6.557   9.993  14.507  0.0025  0.1002  0.0894
28517W        W46721   8.332  16.186  13.413  0.4090 -0.0267 -0.2704
28518W        W46722   0.118   6.535  16.372  0.1551 -0.0538 -0.0124
28519W        W46723   7.209   7.592   4.395  0.0597 -0.2242 -0.1391
28520W        W46724  17.141   5.116   2.105  0.2151 -0.2241  0.0203
28521W        W46725   6.175   6.661   3.151  0.0757 -0.2378  0.1094
28522W        W46726   1.993   6.671  15.571 -0.3225 -0.0376 -0.2091
28523W        W46727   0.843   3.952   0.613  0.0197 -0.0143 -0.2125
28524W        W46728  17.294  15.968  16.762  0.5347  0.2558 -0.0459
28525W        W46729   4.392   4.256  16.753  0.0303 -0.0043  0.1190
28526W        W46730   9.547  11.713   3.072 -0.1239 -0.3440 -0.2315
28527W        W46731   8.860   9.700  16.906 -0.0296  0.2011 -0.1019
28528W        W46732   5.799  11.406   1.953  0.0929  0.0254  0.1878
28529W        W46733   6.953   2.096   1.340 -0.0171  0.0022 -0.0439
28530W        W46734  16.890  11.927  15.455 -0.0933 -0.0924  0.0308
28531W        W46735   6.960   4.986   3.963 -0.0191 -0.1718 -0.0046
28532W        W46736   9.428   0.749   0.388  0.4088  0.0546  0.0144
28533W        W46737   4.169   5.851  11.686  0.2186 -0.5140  0.0671
28534W        W46738  16.818   7.929   0.870 -0.0365  0.0640 -0.2136
28535W        W46739   7.476   4.519   4.630  0.2129  0.1067 -0.0249
28536W        W46740   8.899   1.048   3.160 -0.1876  0.5327 -0.1957
28537W        W46741  10.428   5.222   1.699  0.0787  0.1524 -0.0822
28538W        W46742  15.730   3.203  16.805 -0.0553  0.0000  0.2015
28539W        W46743   7.350  14.084   0.983 -0.2478  0.2476  0.1660
28540W        W46744   6.003  16.956   3.983  0.0230 -0.0932 -0.1845
28541W        W46745  13.639   2.758   1.614 -0.1408  0.2008  0.1505
28542W        W46746  15.672  12.459   0.253  0.3200  0.1166  0.0627
28543W        W46747   0.496   3.370   3.939  0.0773 -0.2669 -0.0090
28544W        W46748  15.153   8.848  15.060 -0.0065 -0.0410  0.2064
28545W        W46749  13.120   7.472  12.766  0.0993 -0.0303 -0.0998
28546W        W46750   0.363  16.296  17.478  0.0909  0.1916  0.1496
28547W        W46751  13.035   7.573   0.799  0.1318 -0.1045 -0.3479
28548W        W46752   6.398  11.685  17.431 -0.0871 -0.0657 -0.3475
28549W        W46753   8.529  10.674   4.802  0.2863 -0.1200  0.1798
28550W        W46754  12.228  15.313  16.887  0.2053  0.0672  0.0151
28551W        W46755   0.701  11.836  14.596 -0.1765  0.0057 -0.1628
28552W        W46756   1.827   9.637   5.027  0.2632 -0.0650 -0.0613
28553W        W46757   3.954   1.834  12.746 -0.2433 -0.1093 -0.2687
28554W        W46758   7.026  10.156   4.918 -0.0746 -0.0371 -0.0751
28555W        W46759  17.135   2.918   0.940 -0.1286  0.1519 -0.1873
28556W        W46760   3.887   6.835   3.114 -0.0107 -0.2611  0.2611
28557W        W46761  15.386   9.046   4.557 -0.5054  0.1612 -0.0562
28558W        W46762  10.566   1.495   3.492 -0.0581 -0.1588  0.0416
28559W        W46763  14.760  14.988  14.893  0.3412 -0.1675 -0.0311
28560W        W46764   4.993  11.815  14.430 -0.0778 -0.0874 -0.2114
28561W        W46765  11.623   4.785  15.071 -0.2943 -0.0634  0.2528
28562W        W46766  10.556   7.854  12.441  0.1053 -0.0706  0.0238
28563W        W46767   1.899   9.209  16.515 -0.0263 -0.0479  0.1293
28564W        W46768   0.371  15.062   1.590 -0.0222  0.2662 -0.0504
28565W        W46769  15.586   3.674   3.541 -0.2857  0.4097 -0.2868
28566W        W46770   2.288  10.657   3.277  0.2811  0.0113  0.0549
28567W        W46771  16.446   9.392   2.463  0.3797  0.0764  0.1216
28568W        W46772  15.050  10.296   0.905  0.1132  0.1644 -0.2924
28569W        W46773   2.705   3.277  12.450 -0.1365  0.0975  0.2488
28570W        W46774   3.155  11.424  16.680 -0.2061  0.0178  0.1679
28571W        W46775  10.638   1.338  16.774 -0.2839  0.1311 -0.1431
28572W        W46776  15.503  15.027  17.385 -0.1198  0.0211  0.3193
28573W        W46777   9.181   0.698   4.477  0.1953 -0.2328  0.1133
28574W        W46778  13.168   6.779  12.331 -0.2020 -0.0283  0.2946
28575W        W46779   8.723  17.341   4.740  0.1859 -0.0990 -0.0793
28576W        W46780   5.310  15.947  17.378  0.0107 -0.0212 -0.3874
28577W        W46781   1.610   9.714  14.201  0.1077 -0.1406  0.3947
28578W        W46782  11.146  14.178   4.846 -0.0997 -0.0665  0.0798
28579W        W46783  17.307  14.722  16.606  0.0222 -0.3067  0.0885
28580W        W46784   0.148   2.375   0.679  0.0877 -0.0760 -0.0087
28581W        W46785   5.082   2.290  14.428 -0.0337 -0.1609 -0.0243
28582W        W46786  14.734  14.044   1.103 -0.2880 -0.2467 -0.1192
28583W        W46787  14.277   0.417  14.408  0.2838 -0.2346 -0.0358
28584W        W46788   4.071   4.319   4.592 -0.2844  0.1241  0.2946
28585W        W46789   3.368   5.537   2.939 -0.0455  0.1232  0.2238
28586W        W46790   5.853   3.480   6.475  0.4281 -0.0593 -0.3136
28587W        W46791   3.624   1.971   0.417 -0.0194 -0.2716  0.0137
28588W        W46792  12.156   4.591   5.696  0.1735 -0.1385 -0.2468
28589W        W46793   7.783  11.190   4.870  0.0192  0.2068 -0.1462
28590W        W46794   9.065  10.391   3.559 -0.3096  0.1157 -0.2955
28591W        W46795  10.166   2.973  14.249  0.0584 -0.0250 -0.3194
28592W        W46796  14.240   9.160  12.330 -0.1997  0.0285 -0.0003
28593W        W46797  10.170   5.996  13.258 -0.4787 -0.1220 -0.1222
28594W        W46798   7.318  15.928  15.015  0.1306  0.1249  0.0477
28595W        W46799   6.045  10.273  16.713 -0.1786 -0.1359 -0.0339
28596W        W46800  12.080  16.130   3.041 -0.1084 -0.0061 -0.0775
28597W        W46801   1.634   9.592  12.846  0.1727 -0.0183  0.0381
28598W        W46802   1.462  16.875   3.592  0.0577 -0.0878 -0.1209
28599W        W46803   3.816   1.338  14.563  0.2075 -0.0541  0.3136
28600W        W46804   9.168   0.392   3.960  0.3872  0.0137 -0.1467
28601W        W46805   5.703  11.382   3.652  0.1835 -0.0209  0.0622
28602W        W46806   0.192  11.602   2.225 -0.1319 -0.0094 -0.0345
28603W        W46807   3.899   5.565   4.251 -0.0742  0.3520  0.0897
28604W        W46808  11.430  11.177  13.956  0.2566 -0.0280 -0.0615
28605W        W46809   9.590  10.857  14.873 -0.0756  0.2564  0.0136
28606W        W46810   8.159  11.122   2.017 -0.2678  0.3866  0.1947
28607W        W46811   1.192   0.042  17.212  0.0833  0.2624 -0.5352
28608W        W46812   6.401  16.391   4.663  0.0860 -0.0681  0.0096
28609W        W46813   1.924   3.497  12.092  0.2317 -0.2863  0.2552
28610W        W46814   7.424  14.449  13.862 -0.1382  0.1156  0.1608
28611W        W46815   4.141   8.563  11.872 -0.1647  0.1088 -0.0567
28612W        W46816   2.771  15.173   1.399  0.0738 -0.1339  0.1371
28613W        W46817   2.210   7.505   2.771  0.0355  0.0762 -0.0192
28614W        W46818  14.223  13.958  14.792 -0.0406  0.1450 -0.1043
28615W        W46819   2.106  10.970   4.938  0.0090  0.0395 -0.2451
28616W        W46820  17.079  12.954  13.680 -0.1739 -0.2828 -0.1297
28617W        W46821   7.944   8.418   2.382  0.2304  0.0660  0.1665
28618W        W46822   7.972   7.244   1.024 -0.0046 -0.0508  0.0457
28619W        W46823   0.750  11.642  15.070  0.0386 -0.1634  0.2217
28620W        W46824   1.581  11.150   1.892  0.0555 -0.2430 -0.2474
28621W        W46825   3.145  11.031   1.215  0.0183 -0.0840  0.1325
28622W        W46826   7.701   9.569  13.158 -0.0733 -0.0562  0.0651
28623W        W46827  15.967   4.354  13.046 -0.1409  0.0620  0.1154
28624W        W46828   9.488  12.795   5.148  0.5303  0.0335 -0.2252
28625W        W46829   5.306  14.187  15.056  0.1587 -0.0485  0.0152
28626W        W46830   1.960  12.459  15.952  0.2299 -0.0889  0.0842
28627W        W46831  17.217   2.237   3.188 -0.0272 -0.2695 -0.0945
28628W        W46832   0.133  16.646   0.670  0.1514 -0.1838  0.0912
28629W        W46833  12.578  13.179  14.244  0.0661 -0.3246 -0.0430
28630W        W46834   6.029  14.454  13.368 -0.2815  0.0783  0.1399
28631W        W46835   2.169   4.771   2.099 -0.0183  0.1661 -0.1675
28632W        W46836   2.310  14.470  13.389 -0.0985 -0.0899 -0.0596
28633W        W46837  16.952  12.461  15.270  0.1495  0.0999 -0.3043
28634W        W46838   9.974  12.375   0.240  0.4736 -0.1986 -0.0866
28635W        W46839   6.457   6.242   1.793  0.2243 -0.0037 -0.0513
28636W        W46840  10.176   9.113  15.266  0.0516 -0.0238  0.2740
28637W        W46841  16.783   9.960   1.260  0.0636  0.0101  0.1451
28638W        W46842   1.861  14.223   3.747 -0.0433  0.0556 -0.1020
28639W        W46843  16.766  10.308   5.147 -0.0305 -0.3177  0.4038
28640W        W46844   2.747  11.809   4.006 -0.2651  0.1626 -0.0419
28641W        W46845  12.614   8.169  14.023 -0.0384 -0.0169 -0.2597
28642W        W46846  16.683   9.798  14.165  0.0402 -0.2963  0.1375
28643W        W46847   2.559  12.664  12.370 -0.1723  0.1753  0.0931
28644W        W46848   2.140   8.242  14.851  0.1526 -0.3346 -0.0658
28645W        W46849   4.364   9.532  16.613 -0.1868 -0.2713  0.1320
28646W        W46850   5.439   9.571   2.930 -0.3142  0.0051  0.1340
28647W        W46851  13.510  13.765   1.251  0.0989 -0.0261  0.0667
28648W        W46852   2.991   8.505   0.897  0.0142 -0.1351  0.0808
28649W        W46853   1.161  10.052   4.432  0.1485  0.1755  0.2432
28650W        W46854   8.013  11.892   0.952  0.2091  0.3524 -0.0234
28651W        W46855   9.610  16.093  17.080 -0.0910 -0.0681  0.0090
28652W        W46856   6.180  12.369   4.281 -0.1514 -0.4602  0.0795
28653W        W46857  12.255   4.519   3.023 -0.1058  0.0525 -0.1213
28654W        W46858  17.138  12.044   4.057  0.0174  0.0150  0.0793
28655W        W46859   5.173   5.034  15.058 -0.1602  0.0334  0.1094
28656W        W46860  13.487  12.558   4.218  0.0472 -0.0084  0.3246
28657W        W46861  10.579  15.462  15.556 -0.2176 -0.1649  0.1763
28658W        W46862   7.706   4.226  12.239  0.1581 -0.2361  0.1179
28659W        W46863  13.405   4.840   5.827 -0.0082  0.1988 -0.0345
28660W        W46864  11.035   3.198  12.453  0.0602 -0.0989  0.0005
28661W        W46865  11.613   2.369   2.952 -0.1513 -0.1615 -0.0867
28662W        W46866  12.196   6.059   1.789  0.1631 -0.0048 -0.2330
28663W        W46867  11.716  13.011   2.357 -0.0678 -0.0596  0.1721
28664W        W46868   6.455  12.350   1.918 -0.0880  0.0165  0.2747
28665W        W46869   7.268  10.316   3.578  0.0256 -0.0562 -0.0345
28666W        W46870  11.223   8.491   4.680 -0.0774 -0.0563 -0.2292
28667W        W46871   9.230   1.409   3.225 -0.0438  0.1534  0.0304
28668W        W46872  12.966  16.542   1.782  0.1078 -0.1472  0.2233
28669W        W46873   5.280  12.953  12.555 -0.1142  0.0654  0.3553
28670W        W46874   9.416  12.461   3.764  0.0746 -0.2000  0.2095
28671W        W46875  11.371   1.671   4.556  0.0930  0.0931  0.1546
28672W        W46876  13.543   9.996  14.681  0.1577 -0.1583  0.1154
28673W        W46877   1.193  15.391   0.858 -0.0478 -0.0582  0.2300
28674W        W46878  13.167   8.110   0.619  0.0784 -0.0000  0.0990
28675W        W46879  17.108   5.287  17.382  0.1535 -0.0120  0.0447
28676W        W46880   9.888  11.155  12.797  0.1406  0.0181 -0.1496
28677W        W46881  15.461   9.206   6.433 -0.0384 -0.3198  0.1199
28678W        W46882   4.635   7.782   0.808  0.3296 -0.0260  0.0816
28679W        W46883   8.370   7.747   1.914 -0.2381  0.1254 -0.0028
28680W        W46884   2.426  13.532   3.385  0.2109 -0.0320 -0.0345
28681W        W46885  16.499   8.064  15.824  0.0355  0.1403 -0.2041
28682W        W46886  14.889  17.007  15.330 -0.0418 -0.1456  0.0354
28683W        W46887  12.154   1.502   3.197 -0.0997 -0.1294 -0.0824
28684W        W46888  15.099   9.585  12.070  0.0937 -0.0113 -0.0577
28685W        W46889  12.685   0.220   3.031  0.2910  0.2377  0.1315
28686W        W46890   2.135   5.160   0.602  0.1198  0.1351  0.0236
28687W        W46891  17.209   4.695   3.898  0.0827 -0.2346  0.0596
28688W        W46892   6.951  15.901   5.432  0.0593 -0.1210  0.1384
28689W        W46893  12.036  11.637   5.088  0.0553  0.2087 -0.3206
28690W        W46894   9.829  14.374   1.364 -0.2162  0.2119  0.1331
28691W        W46895   1.439   0.019   2.947 -0.1418 -0.2511 -0.1264
28692W        W46896  16.901  16.131  15.065 -0.1090  0.1844 -0.2372
28693W        W46897  16.889   7.356  12.942  0.0296  0.0949 -0.1386
28694W        W46898  10.001  12.962   4.164  0.0002 -0.2269  0.1191
28695W        W46899  13.991  10.724   4.341 -0.1065  0.2198  0.1141
28696W        W46900   1.721   7.087  14.022  0.2542 -0.0958 -0.0161
28697W        W46901   2.190  10.612   0.979  0.1271 -0.2404  0.0960
28698W        W46902  14.962   0.089  12.832  0.0610 -0.3321 -0.1681
28699W        W46903  15.899  12.085  17.137  0.0225 -0.1677 -0.1485
28700W        W46904   0.800   7.830   3.297  0.1631 -0.1224  0.2722
28701W        W46905  14.968  17.301  14.491  0.1666  0.0278 -0.1665
28702W        W46906   9.226   8.651  12.318  0.0473 -0.0202  0.0467
28703W        W46907  14.521   8.858  13.649  0.0531  0.0811 -0.1097
28704W        W46908   3.536   7.301   1.511 -0.0967 -0.0180 -0.0980
28705W        W46909   8.308  13.782   2.665  0.0898 -0.0614 -0.0960
28706W        W46910   6.317   4.714   3.385  0.1529 -0.0792  0.0792
28707W        W46911  11.591   7.226  12.883 -0.0481 -0.1839 -0.2364
28708W        W46912  11.872   3.275   2.359  0.2673 -0.3258  0.0419
28709W        W46913   7.086  10.241  14.599  0.1637  0.2760 -0.3077
28710W        W46914   3.605  14.276   3.652  0.0740 -0.0853 -0.2343
28711W        W46915  10.446  17.005  16.624 -0.0673  0.2972  0.2010
28712W        W46916   4.558  10.948   1.156 -0.1510  0.3406  0.2432
28713W        W46917   0.626  15.971   5.031  0.1342  0.0955 -0.0198
28714W        W46918   5.476   8.796   5.414  0.0212  0.0587 -0.0170
28715W        W46919   6.136   4.168   3.279 -0.1446  0.1068  0.0315
28716W        W46920   4.889  13.538  16.962 -0.0151  0.4227 -0.0846
28717W        W46921  11.604   0.549   0.653 -0.1964 -0.0583 -0.2376
28718W        W46922  15.152  12.069  14.043 -0.1436 -0.2506  0.0051
28719W        W46923   6.310   9.997   3.173  0.2577 -0.0280  0.1934
28720W        W46924   6.298  14.315   3.789  0.2153 -0.0310  0.3127
28721W        W46925   2.546   2.250  16.030 -0.2162 -0.2018  0.1843
28722W        W46926   2.489   0.071   5.162 -0.1001  0.0143  0.2071
28723W        W46927   2.939   6.083   1.211 -0.2748 -0.1919 -0.0786
28724W        W46928  12.661   6.934  14.407  0.0122  0.1077  0.1021
28725W        W46929  10.752  10.959   4.950 -0.3222 -0.0189 -0.0035
28726W        W46930  17.063   1.603  13.743 -0.1681  0.3415 -0.0779
28727W        W46931  10.801   8.222   3.526  0.1689  0.1220  0.3191
28728W        W46932  11.293  11.137   5.064  0.0415  0.4048  0.1484
28729W        W46933   4.289  15.081  14.939 -0.2531  0.2077 -0.2274
28730W        W46934   3.895  13.502   0.886 -0.0417 -0.3000  0.1204
28731W        W46935   9.122   0.896  14.565  0.1034 -0.1069  0.1854
28732W        W46936   4.382   9.026  12.496  0.1774 -0.2478  0.1061
28733W        W46937  11.004   6.804   3.358 -0.1032  0.1071  0.0293
28734W        W46938   4.160   8.484  15.427 -0.1102  0.5397 -0.1892
28735W        W46939  10.005   4.451   3.758  0.1630 -0.2594 -0.1689
28736W        W46940   8.265   0.352   1.180 -0.0598 -0.0821 -0.0338
28737W        W46941   3.261   0.402  14.601 -0.1206  0.1717 -0.0382
28738W        W46942   2.893  16.329   4.518  0.1732 -0.0205 -0.0894
28739W        W46943   7.396   1.080   2.135  0.1083 -0.0761 -0.0442
28740W        W46944   5.038  11.203   5.072  0.1547  0.1638  0.1103
28741W        W46945  12.492   8.582   2.689  0.0450  0.0207 -0.0663
28742W        W46946   9.336  15.619  13.339 -0.1104 -0.2455  0.1693
28743W        W46947  15.817   8.748  16.261  0.0994 -0.0716  0.0012
28744W        W46948  13.791   9.514  16.692  0.4826  0.0978 -0.1488
28745W        W46949  13.615  15.099  14.081  0.1187 -0.1366  0.0909
28746W        W46950  14.228   2.651  15.873 -0.1187  0.0622 -0.0413
28747W        W46951   5.934  12.983  15.096  0.2638  0.0134  0.0116
28748W        W46952   4.517   4.311  14.950  0.0468  0.1049 -0.3063
28749W        W46953   7.233   1.004   3.820 -0.3680 -0.3529  0.0500
28750W        W46954  12.546   3.942   1.627 -0.0725  0.0370 -0.2675
28751W        W46955  10.208  11.070  13.207  0.2190  0.1340  0.0548
28752W        W46956   4.741   1.263  15.816 -0.0289 -0.0687 -0.2057
28753W        W46957   6.573   7.708  14.527  0.0148 -0.1595  0.0378
28754W        W46958   8.943  13.730  17.301  0.0105  0.1909  0.0484
28755W        W46959   0.584   4.903  14.879 -0.0267 -0.1359  0.1768
28756W        W46960   6.824   8.008   4.028 -0.0756  0.4069  0.2373
28757W        W46961   5.816  10.564   1.858  0.1999  0.2569  0.0698
28758W        W46962   9.501  16.585   5.225  0.1734  0.0509 -0.1392
28759W        W46963   2.120   3.762  12.518 -0.1404 -0.1026 -0.0302
28760W        W46964   6.120   7.301  15.506  0.2227  0.0663  0.1362
28761W        W46965  15.239  15.229   6.201 -0.1822  0.2639  0.1185
28762W        W46966   5.562  11.198  16.990 -0.0411 -0.0273 -0.2206
28763W        W46967   2.171   2.354  11.718  0.0400  0.1580 -0.0977
28764W        W46968   8.806   1.271  11.171  0.0569  0.0856  0.0216
28765W        W46969   7.866  15.233   3.320  0.2101  0.0400 -0.0811
28766W        W46970   0.715   6.054   5.135 -0.1680 -0.0879  0.1425
28767W        W46971   9.365  11.220  16.371 -0.0076 -0.2499 -0.1106
28768W        W46972   0.865   0.546  14.541  0.0982 -0.2326 -0.1216
28769W        W46973   3.972   9.127   0.381 -0.2949 -0.2273  0.2019
28770W        W46974   0.042  15.965  15.314  0.1983  0.0704  0.0321
28771W        W46975   3.726   4.867  15.849 -0.2207  0.1404 -0.0458
28772W        W46976  12.170  16.842  16.748  0.0252 -0.1573 -0.1287
28773W        W46977   2.431  17.258   0.762  0.0081 -0.0770 -0.0701
28774W        W46978  12.782   5.885   3.983  0.2342  0.2797  0.1169
28775W        W46979  13.531  15.315   4.035 -0.0103 -0.0285 -0.2157
28776W        W46980  11.854   7.769   5.192 -0.3836 -0.1009 -0.0941
28777W        W46981   7.915   6.266   4.546  0.3373 -0.0497  0.1189
28778W        W46982   1.380  14.113   3.812  0.3055 -0.1108 -0.0567
28779W        W46983  16.442  11.254   1.423 -0.1335  0.3728 -0.0914
28780W        W46984   6.951   2.167   2.273  0.1004 -0.0570  0.2768
28781W        W46985   2.236   1.399   0.551 -0.0541  0.0823  0.0814
28782W        W46986  13.345  15.754   3.340 -0.1734  0.3137 -0.0227
28783W        W46987   7.386   1.003   3.307 -0.0455  0.1320 -0.1307
28784W        W46988  15.043   8.359  14.971  0.1158  0.1921 -0.1223
28785W        W46989   1.050   9.437   5.446  0.1985 -0.1546  0.3035
28786W        W46990   7.706   9.481  15.554  0.2798  0.0707  0.0647
28787W        W46991   2.002   4.026   1.443 -0.1050  0.0896 -0.0756
28788W        W46992  16.442  16.423   2.349 -0.0239  0.2502  0.0976
28789W        W46993   3.469  11.226  15.624 -0.1309  0.2485 -0.0095
28790W        W46994   8.322  14.470   1.242 -0.3238  0.0683 -0.0699
28791W        W46995   4.745  11.010  14.463  0.3615 -0.0338  0.2011
28792W        W46996   4.778   5.512  12.689  0.0964  0.1872 -0.0501
28793W        W46997   9.934  17.076   1.145 -0.0511  0.0162  0.0986
28794W        W46998   4.297  12.263   0.150  0.0829  0.4220 -0.3343
28795W        W46999   1.115  17.224  15.768  0.0026 -0.2892 -0.0211
28796W        W47000  14.884  12.341  12.631  0.1553  0.0021 -0.3016
28797W        W47001   7.983   3.025   1.846  0.3213  0.1760 -0.0760
28798W        W47002  13.862   0.318   2.469  0.0968 -0.0773  0.4777
28799W        W47003   8.561  14.536  13.622  0.0596 -0.2548 -0.1973
28800W        W47004  15.584   3.126  13.287  0.1364  0.2562 -0.2070
28801W        W47005   9.540  14.042   0.918  0.0382 -0.7243  0.1203
28802W        W47006   9.231  17.044   0.286 -0.0402  0.2635  0.0300
28803W        W47007  14.089   7.899  13.742  0.0368  0.0514 -0.1127
28804W        W47008   0.622   5.187  15.473 -0.1845  0.0750 -0.1035
28805W        W47009   3.411  11.872   5.706 -0.2497 -0.0337 -0.0849
28806W        W47010   5.438   1.558   2.787  0.0078 -0.1451 -0.4028
28807W        W47011  15.795   2.176  16.472 -0.0366  0.1397  0.2089
28808W        W47012   1.089  13.765   3.071 -0.2355  0.0438  0.3678
28809W        W47013  14.729  13.172   2.174 -0.1883  0.0391  0.1057
28810W        W47014   5.343   5.419   1.004 -0.0322 -0.2981 -0.1309
28811W        W47015   0.912  16.835  16.921 -0.0052  0.0246  0.0314
28812W        W47016  15.506   2.219  13.714 -0.1704 -0.0921 -0.2260
28813W        W47017   4.478  10.389   3.469  0.0778  0.0207  0.0200
28814W        W47018  15.994  12.746  15.087  0.1043  0.3078  0.0865
28815W        W47019   4.430   9.474   3.529 -0.2211  0.2863  0.2117
28816W        W47020   2.904  15.201  12.792 -0.0076 -0.1378 -0.1845
28817W        W47021   3.828   5.655  13.675  0.1752  0.2474  0.0644
28818W        W47022  10.106   4.257  15.717  0.0698  0.0810  0.3155
28819W        W47023   9.275   4.801   1.524 -0.0258  0.0451 -0.1318
28820W        W47024  13.864   9.315  17.184  0.0050 -0.0483  0.2756
28821W        W47025  10.446   1.237   2.883 -0.1514 -0.0192 -0.1584
28822W        W47026   3.762   5.122   4.489 -0.2774  0.2300  0.2726
28823W        W47027   9.430   1.761   2.963  0.0227  0.0107 -0.0915
28824W        W47028   4.655   8.411   1.470  0.1369  0.1582  0.1983
28825W        W47029   7.845   4.007  15.971  0.5837  0.1279 -0.2539
28826W        W47030   4.070  11.153  15.033  0.3302 -0.3677  0.0060
28827W        W47031  10.105   3.218   3.804 -0.0076  0.1048  0.2251
28828W        W47032   5.705  15.440  14.578  0.0278 -0.1665 -0.0241
28829W        W47033   6.939  10.345  16.130  0.0496  0.3809  0.1401
28830W        W47034  16.086   6.765   4.667  0.2575  0.0998 -0.1076
28831W        W47035  14.758   0.367   4.283 -0.2050  0.3792 -0.0973
28832W        W47036  11.333  16.606  12.632 -0.2793  0.0177  0.1476
28833W        W47037  12.344   1.802   2.759  0.4122 -0.1918 -0.0928
28834W        W47038  15.357  15.548  17.514  0.0184  0.2471 -0.0303
28835W        W47039  17.283  11.444  14.414  0.3279 -0.1241  0.1706
28836W        W47040  16.572   4.606   2.732 -0.1170 -0.2930 -0.1133
28837W        W47041  10.808   3.082   5.626 -0.1035  0.0327 -0.0325
28838W        W47042  13.147  10.216   3.965  0.0849  0.0906  0.0470
28839W        W47043  13.501   1.076  14.160  0.0062  0.0368 -0.3285
28840W        W47044   3.151   3.349  17.305 -0.1179  0.0437  0.1770
28841W        W47045  15.535   4.823   1.202  0.0285  0.3398  0.3325
28842W        W47046   8.975  12.145   1.006 -0.1797  0.1039  0.1998
28843W        W47047   3.074   2.483  13.223 -0.2117  0.2796  0.2370
28844W        W47048  16.221  12.227   0.487  0.0314  0.0377  0.1261
28845W        W47049  14.733   1.314   0.007 -0.0740 -0.2211 -0.0154
28846W        W47050   7.984  11.310  13.382 -0.2691  0.4366 -0.0617
28847W        W47051   5.406  10.364   4.078  0.2166  0.0249  0.2261
28848W        W47052  11.671   0.181  14.972 -0.1529 -0.2738 -0.3089
28849W        W47053  16.367   6.386   1.040  0.3269  0.2094  0.0560
28850W        W47054   6.108   9.589   4.659  0.1892 -0.1987  0.2101
28851W        W47055  14.751   6.587  15.734 -0.0047 -0.1664 -0.2135
28852W        W47056   8.449   8.050   0.325 -0.2648 -0.0487  0.0398
28853W        W47057   7.954  10.519  12.252 -0.2606 -0.1110 -0.2797
28854W        W47058   0.392  13.485   2.529 -0.2183  0.0073 -0.1755
28855W        W47059   0.722  11.772  14.108  0.1310 -0.0104  0.0188
28856W        W47060   9.180  14.300   5.728  0.1897 -0.1051 -0.3475
28857W        W47061  11.407   9.435   2.495 -0.0823 -0.0576 -0.1124
28858W        W47062  16.942  12.206   0.173  0.1162 -0.0532  0.2159
28859W        W47063   6.203   2.177   2.416  0.0975 -0.0745 -0.0190
28860W        W47064   2.672   1.424  16.401  0.1813  0.0781  0.3645
28861W        W47065  11.713   0.274   4.753  0.2176  0.1185 -0.1717
28862W        W47066  16.258   4.171   5.420  0.0578  0.1124  0.0153
28863W        W47067   4.888  10.294   2.548 -0.0961  0.1165  0.1290
28864W        W47068   9.506  15.919  14.093  0.2210 -0.0641 -0.3192
28865W        W47069  13.757   9.220   2.360 -0.0017  0.4495  0.1341
28866W        W47070   0.947  11.842  13.665  0.3006  0.2032  0.1171
28867W        W47071   0.686   8.764  12.360 -0.0377 -0.0889  0.0245
28868W        W47072   3.745   3.109  13.368 -0.1314  0.6479 -0.3262
28869W        W47073   6.286   8.342   2.560 -0.0160  0.4091 -0.0673
28870W        W47074   3.405   4.373   2.563  0.1944  0.0091  0.0919
28871W        W47075   6.484  16.303  13.097  0.0532 -0.0392  0.0193
28872W        W47076   1.461   6.617   5.187  0.1098  0.1909 -0.2728
28873W        W47077  14.487  16.035  14.630  0.2535  0.1386 -0.2490
28874W        W47078   9.607   5.660  14.950 -0.0286  0.0256 -0.0945
28875W        W47079   1.718   1.545  15.373  0.1326 -0.2597 -0.0564
28876W        W47080  11.740  12.042   4.852  0.0812  0.0004  0.2173
28877W        W47081   3.143   1.788   2.889 -0.2617 -0.0511 -0.0489
28878W        W47082   5.961   5.969   2.844  0.2024  0.0353  0.2609
28879W        W47083   2.227  15.270   3.245  0.2059 -0.0766  0.0855
28880W        W47084   9.014   6.741   2.989  0.0436  0.0177 -0.2017
28881W        W47085   7.983  15.513   4.533 -0.1186  0.1533  0.1363
28882W        W47086   7.007   4.942  16.471  0.1451 -0.1747  0.0634
28883W        W47087   4.370  12.346  16.694  0.0141 -0.1686  0.1914
28884W        W47088   3.832   3.699   2.133 -0.2122  0.3645 -0.1350
28885W        W47089  13.572   4.802  13.232 -0.0082 -0.1336 -0.1006
28886W        W47090  12.573   2.834  13.610  0.0003 -0.1145 -0.5609
28887W        W47091   0.101  10.722  12.476  0.0593 -0.0832 -0.0654
28888W        W47092  17.155   2.545   4.493  0.1311  0.1788  0.1690
28889W        W47093   2.288  10.937  16.672  0.1036 -0.0899 -0.0920
28890W        W47094   7.204   6.469  13.223  0.1305  0.0239  0.1538
28891W        W47095   3.906  13.293   4.887  0.2641  0.1301 -0.0651
28892W        W47096   5.781   8.149  12.454  0.0187  0.1119  0.1668
28893W        W47097   1.337  16.769   2.311 -0.1520 -0.1242  0.0024
28894W        W47098   7.144   5.398   5.523 -0.1132 -0.0885 -0.0559
28895W        W47099  10.628  14.230   4.927 -0.2499  0.1034  0.2208
28896W        W47100  13.157   9.963   3.508  0.0732  0.0413  0.2010
28897W        W47101  11.030   9.233   3.323 -0.1272 -0.4116  0.2919
28898W        W47102  14.390  15.856  13.773 -0.0738  0.1208  0.3383
28899W        W47103   9.610   2.550  13.567  0.0846  0.2535 -0.4425
28900W        W47104  13.120   3.717   1.399 -0.4857  0.2372 -0.1363
28901W        W47105  14.302   8.358  13.497  0.2387  0.1729  0.0717
28902W        W47106  12.930  10.062   4.868  0.2396  0.3129 -0.1757
28903W        W47107   3.465  13.578   3.297 -0.2164 -0.0976 -0.0585
28904W        W47108   3.224  14.614   1.949 -0.1961 -0.0497 -0.1176
28905W        W47109  12.886  16.791  15.427  0.2815  0.3114 -0.2163
28906W        W47110   3.249   7.548   0.775  0.0198 -0.1115  0.0130
28907W        W47111   8.266  16.282  12.400 -0.0523 -0.0260  0.0719
28908W        W47112   8.004  15.276   5.054 -0.0923  0.0622  0.0544
28909W        W47113  12.997   0.093  16.897  0.1003 -0.0467 -0.2624
28910W        W47114   1.518   2.129  14.119  0.1851 -0.1876  0.1835
28911W        W47115   1.527  12.053   4.701 -0.1198  0.1515 -0.2943
28912W        W47116  15.402   0.511  16.720  0.4690 -0.0334  0.0704
28913W        W47117  13.556   7.895   2.801  0.0072 -0.1721  0.1159
28914W        W47118   9.732   2.501   2.942  0.0476  0.0735 -0.2638
28915W        W47119   8.067  16.217   3.396  0.1833 -0.1428  0.4873
28916W        W47120  15.250   2.348  14.841  0.0005 -0.2211  0.0671
28917W        W47121   3.969   7.718  13.045  0.0850  0.0020  0.2148
28918W        W47122   8.431   8.454   2.375 -0.1006  0.2996  0.0418
28919W        W47123  14.765  13.024   3.519  0.2585  0.1403  0.1726
28920W        W47124   2.485  10.840   2.107 -0.4089 -0.1527 -0.0310
28921W        W47125   8.759   6.594  17.086  0.2651  0.0463 -0.0044
28922W        W47126   8.900   6.486  12.887  0.1213  0.1730  0.0653
28923W        W47127  14.946   8.283   2.656  0.0948  0.2167  0.3736
28924W        W47128   7.362   9.410  15.876 -0.3915  0.0197  0.1433
28925W        W47129  13.213  12.486   1.210 -0.1417  0.0729 -0.1876
28926W        W47130  15.018   8.446  11.794  0.0320  0.1143 -0.0358
28927W        W47131   9.787   4.852  13.785 -0.0685  0.3029  0.1571
28928W        W47132  11.173   7.522  13.483  0.1952 -0.1249  0.0654
28929W        W47133   8.945   5.429   1.737  0.0656 -0.1832 -0.1842
28930W        W47134   3.335  12.411  16.281 -0.0437  0.0252 -0.1234
28931W        W47135   9.561   4.162   0.504  0.1679 -0.0937  0.2486
28932W        W47136   6.169  11.273   5.178  0.0974 -0.1572 -0.0187
28933W        W47137  17.002  11.689   0.904 -0.2908  0.0301  0.0999
28934W        W47138   0.262   3.302  14.902 -0.0921 -0.0033  0.0512
28935W        W47139  11.018   8.478  12.979  0.0009  0.0974 -0.1339
28936W        W47140   9.174   0.643  16.395  0.1445  0.0100  0.1953
28937W        W47141  10.737  11.111  13.880  0.0726 -0.1974  0.0340
28938W        W47142   9.003  12.586  14.760 -0.2272 -0.0136 -0.4955
28939W        W47143  11.123   3.401  12.966  0.0603 -0.2522  0.0061
28940W        W47144  11.581   8.864   5.212 -0.2168 -0.3964  0.0050
28941W        W47145  13.115   5.714  14.978 -0.0440 -0.2390 -0.1203
28942W        W47146   5.767  13.813  15.051 -0.2659 -0.0881  0.0586
28943W        W47147   6.942   7.820   3.142  0.0002  0.0709 -0.1258
28944W        W47148   9.919  12.313   2.442 -0.0097 -0.1816  0.0053
28945W        W47149   0.123   8.540  15.705  0.1220 -0.0383  0.1677
28946W        W47150  13.113  15.497  16.902 -0.2624  0.1206 -0.2245
28947W        W47151   6.900   1.556   5.221 -0.0431 -0.0235 -0.1842
28948W        W47152   0.068  11.561   4.178 -0.0396 -0.2152  0.1496
28949W        W47153   4.211   7.293  13.760 -0.1170  0.3312 -0.3319
28950W        W47154   8.725  16.989  14.880 -0.0894  0.0983  0.0511
28951W        W47155  14.801   4.043  12.242 -0.0923  0.2058  0.1996
28952W        W47156   5.961  13.879   3.814  0.0350  0.2295 -0.1904
28953W        W47157  10.975   8.178  12.521  0.3380  0.3875 -0.0081
28954W        W47158   4.426   7.257   2.063  0.0998 -0.1523  0.2066
28955W        W47159  12.680  12.669  13.334 -0.0659 -0.0953  0.2339
28956W        W47160   5.358  11.885   4.067  0.0656 -0.2874  0.0547
28957W        W47161   3.615  13.845   2.283 -0.1042 -0.3329 -0.0634
28958W        W47162  16.615   8.333  14.749 -0.1245 -0.0313  0.1286
28959W        W47163   0.576  11.507  13.677  0.2177  0.0337 -0.0227
28960W        W47164  12.466   9.255   1.213 -0.1663  0.1442 -0.4368
28961W        W47165   4.579   6.977   3.437  0.1214 -0.1263 -0.1720
28962W        W47166   6.852   8.163  17.530  0.0067 -0.1156  0.2365
28963W        W47167  14.993  11.067  13.333 -0.0049  0.0816 -0.4990
28964W        W47168   0.100  11.007   2.883  0.1616 -0.4772  0.1145
28965W        W47169  10.419   7.460   2.098 -0.2546  0.0723 -0.1815
28966W        W47170   4.729   4.210  12.161 -0.1562  0.0278 -0.3194
28967W        W47171  13.538  14.887  12.800  0.1972 -0.1532  0.0767
28968W        W47172   1.437   6.629   4.586  0.1800  0.0200 -0.0538
28969W        W47173  11.511   2.722  13.263 -0.0215  0.1319 -0.2970
28970W        W47174   7.187  15.715   6.194 -0.3367  0.5887  0.0120
28971W        W47175   1.727  15.775  17.413 -0.0543  0.0561 -0.1147
28972W        W47176  16.989   6.996   0.852  0.1857  0.1011 -0.2152
28973W        W47177  14.711  14.645  13.966  0.4000  0.3604  0.1305
28974W        W47178   5.349  10.626   2.151 -0.0571  0.0124 -0.0657
28975W        W47179   4.396  13.154   0.209  0.0321  0.2342  0.3356
28976W        W47180   1.631   6.565  12.343  0.1700  0.0891  0.0033
28977W        W47181   4.482   9.063   0.471  0.1348 -0.2472  0.1894
28978W        W47182  16.823   7.293   4.736  0.0541 -0.2167 -0.4062
28979W        W47183   0.377  12.486  16.989  0.0319 -0.2313 -0.1762
28980W        W47184  10.893   7.634  17.085  0.1058 -0.2348 -0.2597
28981W        W47185  11.395   8.776   1.629 -0.0143  0.1679  0.0573
28982W        W47186   8.743  10.561  15.366  0.1692  0.1714  0.0664
28983W        W47187  10.626   3.385   0.731 -0.1694  0.1705 -0.2376
28984W        W47188  16.431  14.520  13.644 -0.0394 -0.1652  0.0270
28985W        W47189   3.275  13.089   2.204 -0.1102 -0.2329  0.0377
28986W        W47190  14.677   4.162  15.382  0.1910 -0.0483 -0.1602
28987W        W47191   9.212  12.914   3.989 -0.1430  0.0295  0.2710
28988W        W47192   7.999  15.629   2.622 -0.1859 -0.2069  0.0905
28989W        W47193  16.042  12.685  14.249  0.2326 -0.2913  0.0373
28990W        W47194   8.063   5.550  12.615  0.3617  0.0390  0.0620
28991W        W47195   8.046  14.021  16.748 -0.0293  0.0709  0.0680
28992W        W47196   6.948  13.426  16.901  0.3486  0.0996  0.1293
28993W        W47197  15.461   2.762  17.011 -0.0750  0.1536  0.1745
28994W        W47198  10.399   7.087   4.858 -0.1354  0.1200  0.2014
28995W        W47199   4.920   2.787   1.525  0.0992  0.1333  0.1750
28996W        W47200  12.509  16.148   3.688 -0.1836 -0.0660 -0.1761
28997W        W47201   5.944  15.153  14.046 -0.0527  0.1706 -0.1339
28998W        W47202   3.836   1.651  16.941 -0.0242  0.2221 -0.2674
28999W        W47203   6.812   0.660   5.125  0.1343 -0.0022  0.1095
29000W        W47204   5.490  15.005   2.397 -0.3512  0.0035 -0.2855
29001W        W47205   6.361  13.205   2.510 -0.2128 -0.1189  0.0499
29002W        W47206  14.734   1.402  14.539  0.1579 -0.0703 -0.1189
29003W        W47207  13.702   9.853   1.895  0.2208  0.2758  0.2254
29004W        W47208   4.061  17.191   0.488  0.1300 -0.1200 -0.0573
29005W        W47209  13.856   9.199   5.393 -0.2778  0.3479 -0.2086
29006W        W47210  15.447  16.389  15.908  0.0473 -0.1307 -0.0742
29007W        W47211   1.276  11.100  14.681 -0.2487 -0.0736  0.1593
29008W        W47212  12.332   3.913   0.208  0.1971 -0.2065 -0.0437
29009W        W47213   0.268  14.774  16.191  0.3223  0.2442  0.1148
29010W        W47214   9.467   7.609  13.959 -0.0433  0.1999 -0.2563
29011W        W47215  15.329  16.860  12.833  0.0215  0.1917 -0.0515
29012W        W47216   2.477  11.190  15.938 -0.1091  0.1131  0.1032
29013W        W47217   9.810   3.373   1.769  0.0169  0.0917  0.1931
29014W        W47218  12.501   4.873  13.635 -0.1360  0.2017  0.0002
29015W        W47219   9.125  13.958   3.133 -0.0619  0.2636 -0.0242
29016W        W47220   2.293  11.659   4.258 -0.0723  0.3597 -0.2258
29017W        W47221  13.417  10.129   2.194  0.0686  0.2205 -0.4166
29018W        W47222  15.150   5.869  13.375  0.1251  0.2109 -0.1771
29019W        W47223  13.365  10.486  13.120  0.2078 -0.2286  0.0467
29020W        W47224   5.076   9.588   3.718 -0.0147  0.3956  0.1261
29021W        W47225   8.067  15.612  14.576  0.2758 -0.0135 -0.0143
29022W        W47226   0.574   8.723  15.779 -0.1714 -0.4385  0.1107
29023W        W47227  12.709   6.794   2.462 -0.2645  0.0320  0.1459
29024W        W47228  16.388   1.741  13.335 -0.0330  0.0757 -0.3844
29025W        W47229  11.389   1.573   1.518 -0.1001 -0.1680  0.0927
29026W        W47230  12.678   1.956   4.084 -0.0445 -0.2595  0.4176
29027W        W47231  14.495   3.281   4.024  0.1772 -0.2143 -0.4611
29028W        W47232   7.906  15.806   4.973  0.0997 -0.0187  0.0240
29029W        W47233  12.938   5.056   1.455  0.0063  0.0743  0.1109
29030W        W47234   7.853   7.960   4.063 -0.2147 -0.2878  0.1296
29031W        W47235   5.933  12.383  16.365  0.2210  0.0876 -0.1877
29032W        W47236   2.831   7.649   3.576 -0.0384  0.0633  0.2668
29033W        W47237  12.077  17.106  12.868 -0.1475  0.3772 -0.0700
29034W        W47238   9.244  12.835  15.192  0.0525  0.0657  0.0380
29035W        W47239   7.307  15.462  14.729 -0.0200 -0.3847 -0.2064
29036W        W47240  12.348   9.140   4.008 -0.2389  0.0450 -0.1006
29037W        W47241   8.815  11.106   5.581  0.1112  0.1620  0.1102
29038W        W47242   9.727   3.038   1.293 -0.1444  0.1371  0.0025
29039W        W47243   4.590   6.861  12.271 -0.0621  0.3611 -0.2222
29040W        W47244  12.845   0.231   0.554  0.0728 -0.0877  0.4004
29041W        W47245   0.493   3.313  16.661 -0.0086  0.1236 -0.1161
29042W        W47246   9.835  13.288   0.096  0.0604  0.1704 -0.3114
29043W        W47247  13.070   5.251   5.815  0.0714 -0.1143 -0.0228
29044W        W47248  13.948   3.793  16.532  0.3478  0.4466 -0.0758
29045W        W47249   9.743   6.881   0.785 -0.0676  0.1986  0.0212
29046W        W47250  15.235  14.821  13.433  0.0640 -0.1239 -0.3154
29047W        W47251   1.864  14.208   2.246  0.0279 -0.3355  0.2258
29048W        W47252   8.071   0.561   2.015 -0.3746  0.1157 -0.1461
29049W        W47253  13.196  10.372  14.671  0.1377 -0.0238  0.0926
29050W        W47254   3.724   9.162   4.376 -0.1206  0.2175 -0.0377
29051W        W47255   5.302   4.662  14.751 -0.3208  0.4542 -0.0536
29052W        W47256   9.904   2.151  14.264  0.1216 -0.0133 -0.0773
29053W        W47257   7.505  15.512   2.572 -0.0390  0.1858  0.1708
29054W        W47258  10.658  10.778  13.264 -0.3437  0.0380  0.0939
29055W        W47259   2.643   8.417  14.984  0.1428 -0.0446 -0.2511
29056W        W47260   9.589   9.251  12.605 -0.0640 -0.1641 -0.0167
29057W        W47261  16.994   7.959   1.964  0.0391 -0.2414 -0.1427
29058W        W47262  10.223   6.841  17.306  0.0441  0.0146 -0.1628
29059W        W47263   6.751   7.132   5.007  0.0173  0.0319 -0.0095
29060W        W47264   3.639  15.700  14.547  0.1522 -0.1355 -0.2171
29061W        W47265   9.553   3.787   5.530 -0.1298 -0.0262  0.1304
29062W        W47266   3.812   5.499  12.667 -0.1014  0.2859  0.1657
29063W        W47267   2.102  10.242  15.382  0.4168  0.2319  0.1211
29064W        W47268   8.052   6.095   5.091  0.3268  0.1621 -0.2182
29065W        W47269   4.648  12.127   1.735  0.2399 -0.1417  0.2401
29066W        W47270  16.215  17.250  16.503  0.0905 -0.2418  0.0356
29067W        W47271   7.953   8.895  15.171 -0.2056  0.2836  0.2210
29068W        W47272   3.232   5.206  12.468  0.2422 -0.0203 -0.1433
29069W        W47273  15.564  10.275  13.346 -0.1324 -0.0082  0.0224
29070W        W47274   0.392  12.100   2.232  0.2808 -0.1120 -0.0270
29071W        W47275   4.411   1.769  14.047  0.1786 -0.2563  0.3595
29072W        W47276  15.459  13.319  15.679 -0.1173 -0.0665  0.0395
29073W        W47277   2.229  16.154   1.604  0.0691 -0.0502  0.0357
29074W        W47278  16.217   4.527  16.572 -0.2837 -0.2077 -0.1893
29075W        W47279   6.100   5.032  13.741 -0.2386  0.2080  0.2215
29076W        W47280  13.133   2.461  15.352  0.2135 -0.2057 -0.0334
29077W        W47281   6.998  17.189  17.163 -0.0432 -0.0381 -0.0695
29078W        W47282  10.431  10.020   1.048  0.4635  0.2156  0.3139
29079W        W47283  12.946  14.271   1.832 -0.0067 -0.0606  0.2989
29080W        W47284  16.825   9.798   2.572 -0.1830  0.0244 -0.1813
29081W        W47285  12.846   6.096   3.485  0.0849  0.0423  0.0398
29082W        W47286  13.763   2.028   3.294  0.2348  0.1134 -0.0757
29083W        W47287   8.077  16.779  12.375  0.1226  0.2390  0.1669
29084W        W47288  10.747   5.719   4.200  0.0990 -0.0588 -0.0559
29085W        W47289   7.644  13.904  17.348  0.3192 -0.1154 -0.0586
29086W        W47290   6.326  10.940   4.458 -0.1106  0.0464 -0.0390
29087W        W47291   8.013   0.710  14.239  0.2704  0.2234  0.0764
29088W        W47292   5.351   5.786  13.937  0.0107 -0.0625  0.2290
29089W        W47293   4.773   3.431  15.214 -0.0654 -0.0448 -0.1910
29090W        W47294   7.422   3.857   0.229 -0.1155  0.0221  0.0318
29091W        W47295  13.301   2.989  14.573  0.0677  0.0365  0.0663
29092W        W47296  12.865  12.767  14.113  0.1656 -0.1390  0.1414
29093W        W47297   5.117   4.138  14.236  0.3267 -0.0999  0.1308
29094W        W47298   2.988   8.611  13.039  0.0090  0.2991 -0.2414
29095W        W47299  12.922  12.838   3.429  0.0399  0.0763  0.0567
29096W        W47300   0.353   5.336  16.455  0.1094  0.0350 -0.0888
29097W        W47301   1.959   7.184  13.289  0.0540 -0.0714 -0.0011
29098W        W47302  15.493   6.315  13.471  0.2078  0.1026  0.0453
29099W        W47303  15.023  10.297   0.082  0.2411  0.2733 -0.0968
29100W        W47304   4.190   3.521   3.478 -0.0672  0.0281 -0.1979
29101W        W47305   2.963   0.311  16.228  0.2442  0.3632 -0.1168
29102W        W47306   8.471   6.733   1.502 -0.0357 -0.1418  0.0504
29103W        W47307   4.372  11.767  12.344  0.2471  0.0168 -0.3149
29104W        W47308   5.063   2.884   2.967 -0.0483 -0.3070  0.2467
29105W        W47309  11.791  15.328  16.655  0.2787  0.0445  0.0713
29106W        W47310   7.312  16.834  14.822  0.2240 -0.2208  0.1262
29107W        W47311   5.894   0.557   5.545 -0.2932  0.1198 -0.0995
29108W        W47312   7.466  10.886  13.976 -0.3379 -0.3044 -0.1098
29109W        W47313   4.825   6.274   4.637  0.1994 -0.0593  0.0008
29110W        W47314   3.241  11.167   2.397  0.1608  0.0906 -0.5045
29111W        W47315  15.127  11.995  15.168 -0.1429 -0.1015 -0.1338
29112W        W47316  10.793   5.521  12.439 -0.3126 -0.2986 -0.3719
29113W        W47317   2.040   9.727  17.514 -0.0519 -0.1655  0.4163
29114W        W47318   4.857   6.964   4.687  0.0267  0.1083  0.2176
29115W        W47319   6.743   9.980   1.234  0.2335  0.2074  0.0144
29116W        W47320   0.997   0.770  15.878  0.2389  0.0857  0.0504
29117W        W47321  15.692   0.654   0.120 -0.3024 -0.2445  0.2109
29118W        W47322   4.536  16.183   2.487 -0.2283 -0.0176  0.1163
29119W        W47323  16.921  15.128  14.099  0.1985  0.3969  0.0129
29120W        W47324  17.027   3.956  16.368  0.1368 -0.0905 -0.0339
29121W        W47325  15.378  11.833  17.207 -0.1162 -0.0109  0.0756
29122W        W47326   6.720  11.265   2.533  0.0313 -0.2662 -0.0254
29123W        W47327   9.567   3.870  13.516  0.0791  0.1329  0.0550
29124W        W47328  10.428  15.189  11.968 -0.0849  0.0097  0.0216
29125W        W47329   1.722   5.142  17.522 -0.1087 -0.0372  0.0669
29126W        W47330   3.491   5.202  14.120  0.1580  0.0435  0.1494
29127W        W47331   6.364  14.101   2.196 -0.1020  0.2886  0.0965
29128W        W47332  13.346  16.333   5.128  0.0317  0.0533 -0.1392
29129W        W47333  13.096   4.407   5.859 -0.1519 -0.1069 -0.0696
29130W        W47334   0.967   4.493  16.722  0.0400  0.5361 -0.0165
29131W        W47335   4.655   2.497  16.255 -0.2314 -0.0890 -0.0044
29132W        W47336   6.894  16.203   3.192  0.0296 -0.1244  0.2528
29133W        W47337   0.576   2.892   4.007 -0.2150  0.0061 -0.3610
29134W        W47338  14.219   3.445  16.359 -0.1445  0.1276 -0.1747
29135W        W47339  14.956  12.914   0.349 -0.3219 -0.3586 -0.2921
29136W        W47340  15.006   4.695   4.155  0.0722 -0.2087 -0.0580
29137W        W47341   0.801   7.887  13.378  0.3489 -0.0075 -0.4156
29138W        W47342  15.385   7.820   0.139 -0.0241 -0.2068 -0.4035
29139W        W47343   2.876   9.030   1.546  0.0197 -0.1077 -0.1827
29140W        W47344   0.626  15.186   5.472 -0.1595  0.0489 -0.0963
29141W        W47345   1.038   9.105   3.517  0.1616  0.3708 -0.1044
29142W        W47346   0.019  12.537   0.817  0.1512  0.0057  0.1135
29143W        W47347   6.166   4.656  17.191 -0.1201 -0.0669  0.3186
29144W        W47348  15.545  16.864   5.472 -0.0442  0.1391 -0.0162
29145W        W47349  11.850   0.423  14.065  0.0000  0.0327 -0.0946
29146W        W47350   0.931  11.580  15.964  0.3138  0.2239 -0.0844
29147W        W47351   0.218  13.581   4.584 -0.1984 -0.1938 -0.0694
29148W        W47352   3.788   6.271  16.501  0.1256 -0.2800  0.0756
29149W        W47353   5.685  11.506  17.404 -0.0054  0.0069 -0.2221
29150W        W47354   9.116  16.633   0.033 -0.0644  0.3644 -0.0779
29151W        W47355  14.498   3.114  16.109 -0.0235  0.0492 -0.0410
29152W        W47356   1.224  12.695   2.303  0.0510  0.0786  0.1001
29153W        W47357  12.322  11.735  15.520  0.1540  0.1252  0.1861
29154W        W47358  17.168   0.699  17.071  0.1990  0.2187  0.1920
29155W        W47359   9.176   3.870   3.290  0.0317 -0.3230 -0.0438
29156W        W47360   9.880   0.380  12.876  0.2450  0.0784  0.0107
29157W        W47361  10.894   2.675  11.369 -0.2131 -0.2629 -0.0255
29158W        W47362   8.849  10.495  16.481  0.2164 -0.0883  0.0123
29159W        W47363   7.398   5.946  13.516  0.1964 -0.0118 -0.0423
29160W        W47364  17.048  15.941  14.566  0.1252 -0.1531  0.0907
29161W        W47365   2.662  12.055   0.033 -0.2987 -0.0764  0.2958
29162W        W47366   5.212  16.640   3.739  0.1428 -0.1542  0.1039
29163W        W47367   1.004   6.096  15.334  0.1601  0.0270  0.1765
29164W        W47368   1.457   3.283  16.980  0.1201 -0.1905 -0.2709
29165W        W47369  12.214   9.959   0.143  0.2333  0.0296  0.3930
29166W        W47370   2.476   2.592   1.517  0.0258  0.2033  0.2074
29167W        W47371   0.939   7.578  14.236 -0.1388  0.2290 -0.0391
29168W        W47372   2.608   9.563  16.209 -0.0446 -0.2287  0.4597
29169W        W47373   6.637   9.970  15.014  0.2940  0.1845 -0.0708
29170W        W47374   7.280   3.088   1.147 -0.2566  0.2465 -0.1574
29171W        W47375   6.063   3.615  15.960  0.0144 -0.0765  0.1398
29172W        W47376   0.474   3.254  12.473 -0.1535  0.0363  0.3144
29173W        W47377   3.593   9.976  14.530  0.3322  0.0049 -0.2174
29174W        W47378  11.762   5.723   4.876 -0.1763  0.1520  0.2235
29175W        W47379   0.110  15.131  12.394  0.0712  0.2887  0.0757
29176W        W47380  11.234  13.502   1.406  0.1525 -0.0729 -0.3755
29177W        W47381   5.613  16.672   1.891  0.0041 -0.0087 -0.0112
29178W        W47382  16.182  17.224  15.498  0.2723 -0.2017  0.1072
29179W        W47383  15.932   5.706  15.141 -0.1100  0.1776 -0.1921
29180W        W47384  15.990   9.241  13.992  0.2341 -0.0846 -0.0095
29181W        W47385  10.448  13.684   5.205 -0.1951 -0.0295 -0.0834
29182W        W47386   4.905   6.750  14.189 -0.0386 -0.0076 -0.0638
29183W        W47387   9.089  15.350  13.886 -0.0644  0.1532  0.1502
29184W        W47388  10.749   4.583   5.275 -0.0048 -0.0891 -0.1107
29185W        W47389   3.638   0.792  15.617 -0.1369 -0.0501 -0.2822
29186W        W47390   7.297  16.721   4.345  0.1843 -0.2210 -0.1531
29187W        W47391   8.585  15.317  15.304  0.1100 -0.2632 -0.0125
29188W        W47392   6.487   0.545  14.481  0.0959 -0.0601  0.0827
29189W        W47393   2.405  14.995   4.956  0.0955 -0.1565 -0.0397
29190W        W47394   1.670  12.547  13.745 -0.0010 -0.1088 -0.0126
29191W        W47395   3.537  11.394   4.691 -0.0883 -0.2862 -0.1660
29192W        W47396   3.633   2.604   2.979 -0.0218 -0.0530  0.0265
29193W        W47397   5.436   4.887   1.365  0.1572  0.1390  0.3932
29194W        W47398  12.707  16.184   4.595 -0.0865 -0.2660 -0.2265
29195W        W47399   2.526   5.205   5.301  0.1194  0.0538 -0.0572
29196W        W47400  13.514   2.575  12.528 -0.2216  0.1017  0.2003
29197W        W47401  15.525   0.194   0.364 -0.3031  0.3244 -0.1931
29198W        W47402  12.641   4.669  12.190 -0.0313 -0.2890 -0.0409
29199W        W47403   3.759  16.176   4.685  0.0857  0.1373 -0.2440
29200W        W47404  16.448   8.501   5.067  0.2113 -0.0012  0.1229
29201W        W47405   4.531   6.490   3.615 -0.2795  0.2569 -0.3230
29202W        W47406  11.836   1.843   2.658 -0.1464 -0.3483 -0.2308
29203W        W47407   0.277   4.465  12.199 -0.0319  0.0821  0.1882
29204W        W47408  15.382   2.801   3.792 -0.0191 -0.3127 -0.1865
29205W        W47409  15.655  17.129  14.035  0.1620  0.0069 -0.2441
29206W        W47410   1.106  17.275  12.702  0.1359  0.2662  0.0088
29207W        W47411   6.578  16.951  17.134 -0.1072  0.1527 -0.0895
29208W        W47412   6.344   5.152   3.043  0.0973 -0.0842 -0.0974
29209W        W47413   5.189  10.516   2.932  0.0216 -0.3570  0.0619
29210W        W47414  10.525  12.238   5.086 -0.0182 -0.1786  0.0323
29211W        W47415   3.114   7.658  13.462 -0.1020  0.0766 -0.3837
29212W        W47416  10.267  13.909  14.722  0.1197  0.2193 -0.0755
29213W        W47417   6.312   2.055  16.965 -0.1017  0.0266 -0.0857
29214W        W47418  14.546   1.611  13.670 -0.3627 -0.0610 -0.0522
29215W        W47419  14.113  11.237  12.360  0.0546  0.0897 -0.0473
29216W        W47420  11.997  15.656   3.011 -0.3313  0.2118  0.0199
29217W        W47421   9.551   4.225   3.700  0.0400  0.1608  0.4723
29218W        W47422   4.735   6.016  12.636  0.0256 -0.2822 -0.1141
29219W        W47423  13.903   8.092  13.313  0.0217 -0.0277 -0.0569
29220W        W47424  16.368   9.912   1.664  0.0751 -0.2374  0.0027
29221W        W47425  16.783   0.439   3.485  0.0021  0.1948  0.1968
29222W        W47426   5.756  12.015   4.443  0.0757  0.0187 -0.2227
29223W        W47427  11.919   5.126  16.984 -0.1189  0.0821  0.4438
29224W        W47428  13.802  15.315   3.530  0.2801  0.1104 -0.2937
29225W        W47429   4.780   1.564  12.342  0.2369 -0.0225 -0.0225
29226W        W47430   6.991   0.102  12.730 -0.0034 -0.1799 -0.0692
29227W        W47431  11.836  10.887  12.503  0.0716  0.0602  0.0354
29228W        W47432   9.100  14.035  13.180 -0.0481 -0.1455  0.2603
29229W        W47433   6.444  15.279   2.906 -0.2475  0.2662 -0.4413
29230W        W47434  17.223  13.585   2.746 -0.1950  0.0019  0.4577
29231W        W47435  11.287   6.154  12.653 -0.1007 -0.2683  0.2840
29232W        W47436   0.963   6.519   4.357 -0.1382 -0.1722 -0.0884
29233W        W47437   7.183  11.201  16.818 -0.1624  0.1390  0.0014
29234W        W47438   3.145  10.685   0.270  0.3420 -0.2864 -0.0480
29235W        W47439   2.186   7.719  17.429  0.2847 -0.1361  0.2237
29236W        W47440   5.831  14.736   4.327  0.3961  0.1156  0.2077
29237W        W47441   0.191  10.714   0.134  0.1030 -0.1314 -0.1722
29238W        W47442   7.272  10.636   2.222  0.0026 -0.1445  0.1092
29239W        W47443   0.115  15.247  12.934 -0.0282 -0.4546  0.2015
29240W        W47444   5.177   8.437  16.450  0.1107 -0.0262  0.0510
29241W        W47445  11.754  12.470   2.670  0.1388  0.0517 -0.1038
29242W        W47446   8.292   6.038  13.458 -0.0265  0.2060 -0.2369
29243W        W47447   0.275  13.155   2.859  0.2164 -0.2075  0.1224
29244W        W47448  14.847   4.820  17.452  0.1998  0.3267 -0.0739
29245W        W47449  12.054   9.843  12.471 -0.1929 -0.1650  0.0410
29246W        W47450   9.074   4.731  15.843 -0.0025  0.1225 -0.1217
29247W        W47451   5.677  16.194   1.529  0.1571  0.0174 -0.2857
29248W        W47452   0.742  10.448   5.011  0.1401  0.1090 -0.1479
29249W        W47453  14.324  15.376   2.617 -0.0043  0.0149 -0.3523
29250W        W47454   7.129   3.943   1.859  0.0399 -0.0164 -0.0976
29251W        W47455   0.890   9.066   4.804  0.0957  0.1715 -0.1465
29252W        W47456  16.258   2.168  16.237 -0.1209 -0.1037  0.1535
29253W        W47457  11.717   4.444  17.204  0.0806  0.2042  0.1786
29254W        W47458   5.818   1.221  17.019  0.1028  0.0959  0.1250
29255W        W47459  11.365  15.291   5.377 -0.1082 -0.0896  0.2722
29256W        W47460  15.724   2.800   0.709 -0.2321  0.0422 -0.0109
29257W        W47461  16.641   6.326  14.822 -0.1369  0.1637  0.0128
29258W        W47462   6.569   5.034   1.181 -0.0033 -0.0614 -0.0481
29259W        W47463  14.845   7.646  14.332  0.1162  0.2296 -0.2571
29260W        W47464   4.417  12.433   3.021  0.0917 -0.0143 -0.0619
29261W        W47465   3.665  17.165  15.321 -0.2312  0.0098  0.3557
29262W        W47466   8.446   9.225   2.812  0.2365  0.0376  0.3916
29263W        W47467   3.295   0.468  15.257 -0.0734 -0.2977  0.2473
29264W        W47468   3.504   5.125   5.905 -0.1036 -0.0102  0.0479
29265W        W47469  11.857   2.081  15.040  0.0867  0.0393 -0.0110
29266W        W47470  16.451   5.032   1.427  0.0832 -0.1123  0.1958
29267W        W47471  15.727  15.560   2.355  0.0656  0.0374  0.2001
29268W        W47472  16.320   6.173  15.707 -0.2231  0.1151  0.0800
29269W        W47473  14.296   9.739   2.614 -0.2362 -0.5511 -0.1208
29270W        W47474   1.856   8.293   4.097 -0.3156 -0.1097  0.2850
29271W        W47475  16.061   7.765  14.814  0.2056 -0.1060  0.1868
29272W        W47476   2.758   5.039   3.374  0.0276 -0.0919  0.1560
29273W        W47477  13.984   1.798   5.379 -0.1239  0.0547 -0.3044
29274W        W47478   4.990  12.524  12.594 -0.1187 -0.2525 -0.0220
29275W        W47479  14.692  12.538  17.528  0.2264 -0.1060  0.0928
29276W        W47480   2.817  14.618   1.443 -0.4123  0.1151  0.3171
29277W        W47481   3.696  12.737  16.441  0.0458  0.1176 -0.1004
29278W        W47482  14.343   5.336   2.806  0.3364 -0.1352 -0.1040
29279W        W47483  16.935  12.720   2.480 -0.1089  0.1913 -0.0525
29280W        W47484   4.500   8.665  17.117  0.1272  0.1303 -0.1156
29281W        W47485   2.733   3.637   3.513  0.0086  0.0570 -0.0227
29282W        W47486   7.522   5.076   5.307  0.2105  0.0438 -0.2054
29283W        W47487   3.091   8.389  16.862  0.0394  0.1683  0.3387
29284W        W47488   7.665   1.700   2.919  0.2454 -0.0390 -0.0770
29285W        W47489  12.232   0.537   1.854  0.0960  0.2235 -0.2023
29286W        W47490   0.017   3.560   3.006 -0.2354  0.1037 -0.3513
29287W        W47491   3.391  10.900   4.597 -0.0867  0.1002  0.4836
29288W        W47492   3.899  10.178  13.190 -0.0241 -0.1106 -0.2334
29289W        W47493   1.088   0.486   5.126 -0.0064  0.1493 -0.2062
29290W        W47494   3.813   5.914   4.619 -0.1625 -0.3006 -0.1739
29291W        W47495  15.969   3.894   3.321 -0.0787  0.1966  0.1429
29292W        W47496  12.470   6.830   4.367 -0.1433 -0.1551 -0.0557
29293W        W47497  13.623  13.216  13.892  0.0881  0.1880 -0.2787
29294W        W47498  17.192   8.471   4.274  0.0645 -0.0714 -0.0598
29295W        W47499  13.542   3.431  12.092 -0.1382  0.2305 -0.2463
29296W        W47500  11.589  14.671   4.302  0.1722  0.1810 -0.0771
29297W        W47501   1.816  12.647  14.566  0.0655  0.0205 -0.2063
29298W        W47502   2.239   4.496   2.690 -0.1624  0.2605  0.2780
29299W        W47503   2.976   6.094   4.451 -0.0245  0.0259 -0.0271
29300W        W47504   2.603   4.031   3.051 -0.2572 -0.2222 -0.1737
29301W        W47505  15.823   7.549   1.302 -0.0573  0.2079 -0.2467
29302W        W47506   5.552  12.708  16.458 -0.0026 -0.1645 -0.0856
29303W        W47507  17.102   4.886   4.311  0.2629 -0.0855 -0.2485
29304W        W47508   6.610   4.791   5.783  0.0578  0.3211 -0.2493
29305W        W47509   4.221  12.047   2.042  0.0286 -0.2137 -0.3271
29306W        W47510  10.390   8.374  13.222  0.1848  0.1090 -0.2510
29307W        W47511   6.997   6.501  14.751  0.0000 -0.0308  0.0086
29308W        W47512  13.382   4.458  16.383 -0.0795 -0.0889 -0.1061
29309W        W47513   6.316   4.439  15.136  0.0986 -0.0133 -0.1545
29310W        W47514  14.166   6.203  13.967  0.1545  0.0496  0.0349
29311W        W47515   8.728  11.078   3.357 -0.0631 -0.0319  0.2264
29312W        W47516  14.599   3.612  16.058 -0.1532 -0.3192  0.1881
29313W        W47517  11.091  14.880   2.867 -0.1978 -0.0097  0.1237
29314W        W47518   0.543  13.824  17.469 -0.2171 -0.2221 -0.1648
29315W        W47519  14.414   2.807   4.336  0.0359 -0.0658 -0.1119
29316W        W47520  16.137  11.016   3.136  0.3856  0.0937 -0.0049
29317W        W47521   8.796   8.818  17.398  0.2844  0.1700  0.1246
29318W        W47522   4.460   2.959  16.483  0.0529 -0.1528  0.0166
29319W        W47523   0.344   0.802  12.178 -0.2164  0.2100 -0.0647
29320W        W47524   3.877   0.210  13.921  0.0008 -0.1084  0.1126
29321W        W47525   5.292  11.644   5.035  0.1846  0.0823  0.1973
29322W        W47526   3.195   0.320  16.862  0.0723 -0.1724  0.1084
29323W        W47527  16.876   1.390   4.186 -0.0798 -0.1153 -0.0799
29324W        W47528   5.770  15.443  12.968 -0.0212 -0.3159  0.0704
29325W        W47529  10.663   4.906  14.196 -0.0230 -0.0978 -0.3212
29326W        W47530   3.583  14.729   5.417 -0.1008 -0.0058  0.0485
29327W        W47531  11.838  10.370   3.160  0.1456  0.1440  0.0003
29328W        W47532   2.867   0.435  13.084 -0.2839  0.0267  0.0778
29329W        W47533  10.343  13.850   2.843  0.0863  0.0451 -0.2109
29330W        W47534  11.378  12.675  16.935 -0.3476  0.0607  0.3858
29331W        W47535  16.371  13.885  15.226  0.3079  0.0852 -0.0310
29332W        W47536  14.041  10.407   2.914 -0.2255 -0.0663 -0.1559
29333W        W47537  11.196   0.432   3.348 -0.0985 -0.1078 -0.1760
29334W        W47538   4.270   6.267  12.719  0.1336 -0.2602 -0.2438
29335W        W47539  11.158  15.943   3.301 -0.2695 -0.1064  0.1781
29336W        W47540  13.541   7.032   2.532 -0.2408  0.1536  0.0030
29337W        W47541  14.978  15.852   0.086  0.1072  0.0340 -0.2335
29338W        W47542  17.142   1.946  14.679  0.1683 -0.0506  0.0531
29339W        W47543   0.328   6.102  12.614  0.3630  0.2098 -0.0066
29340W        W47544  13.612  17.124   0.799 -0.0384 -0.0490 -0.0880
29341W        W47545  14.991  12.395   3.410  0.3270 -0.1333  0.1550
29342W        W47546   9.633   8.668   0.680 -0.3215  0.0588  0.2607
29343W        W47547  17.299  14.047   5.362  0.0380  0.0289 -0.1253
29344W        W47548   0.463  15.542   0.063  0.0148  0.1091 -0.2238
29345W        W47549  15.291   3.436  15.239  0.0843 -0.0587  0.0193
29346W        W47550  11.496  15.111  13.500  0.2456 -0.0128  0.0787
29347W        W47551   8.208  14.984   0.830 -0.0332 -0.0419  0.1441
29348W        W47552   0.859   7.422   2.286 -0.1438  0.1987 -0.1584
29349W        W47553   2.008  12.835   4.356  0.3955  0.2366 -0.0638
29350W        W47554  10.038   1.025  13.432 -0.3626 -0.1132 -0.1032
29351W        W47555   4.877   3.662  12.903  0.0994 -0.4965 -0.0339
29352W        W47556   2.809   5.815   0.787 -0.1358  0.2057  0.0627
29353W        W47557  15.290  13.254  14.445 -0.1371 -0.0453  0.3003
29354W        W47558  16.493  11.578   4.465 -0.0862 -0.0727 -0.1782
29355W        W47559   2.925   7.392  14.299 -0.0602  0.0558 -0.0415
29356W        W47560   2.317  11.711  17.323  0.0979 -0.0189 -0.3161
29357W        W47561  13.654   6.992  14.626 -0.0751 -0.0048 -0.2343
29358W        W47562  13.225  15.292   3.520  0.1207  0.0764 -0.2034
29359W        W47563  12.315  10.334  15.388  0.0701 -0.3778 -0.1987
29360W        W47564  16.379   5.054   5.057  0.1024 -0.2350 -0.1590
29361W        W47565  14.123   9.052   4.306  0.0010 -0.0692  0.0970
29362W        W47566  10.439   1.145   5.479  0.0488  0.1377  0.1836
29363W        W47567  14.403   1.112   2.388  0.0978 -0.0529 -0.2394
29364W        W47568  13.429  12.479   1.654 -0.1435  0.2244  0.1237
29365W        W47569   6.838  16.714   0.915  0.2542  0.4626  0.0300
29366W        W47570   6.744   7.652   3.614  0.2383 -0.1187  0.0815
29367W        W47571   2.229   0.459   1.003  0.2242  0.1183 -0.2826
29368W        W47572  15.578   5.391  13.547 -0.2609 -0.1230 -0.1089
29369W        W47573   1.758  11.802   2.610  0.0291 -0.1152 -0.0812
29370W        W47574   1.282   4.136  15.954 -0.0064 -0.0688 -0.0987
29371W        W47575  11.306   7.219  13.838  0.1435  0.1615  0.0172
29372W        W47576   1.991  12.170  15.294  0.1326 -0.0835  0.3668
29373W        W47577   9.848   7.663   0.966 -0.0350 -0.0946  0.2830
29374W        W47578  16.856   0.616  16.683 -0.0585 -0.1290 -0.2557
29375W        W47579  10.741   8.424   2.034  0.2060  0.1010 -0.5217
29376W        W47580   6.594  12.306  14.324  0.1386  0.0979  0.2018
29377W        W47581   0.374   1.897   2.166  0.2410  0.1419 -0.0809
29378W        W47582  14.903   5.376   3.763  0.0077 -0.1125  0.0192
29379W        W47583   8.675   8.408   0.830  0.0175 -0.0328  0.1111
29380W        W47584  12.721  12.421  14.851  0.0646  0.0922  0.0641
29381W        W47585  16.863   5.116   6.092 -0.3082 -0.1434  0.0437
29382W        W47586  14.136  14.169  12.955  0.0779  0.0507 -0.0488
29383W        W47587  13.579  17.050   0.083  0.0253  0.0300 -0.2458
29384W        W47588   9.514   7.812   1.856 -0.1083  0.0157  0.3778
29385W        W47589   7.671   9.468   4.404  0.2190  0.0821  0.1166
29386W        W47590   4.919   3.070  15.536  0.1596  0.2304  0.0233
29387W        W47591   2.885  11.893  16.040  0.0435  0.0654 -0.0640
29388W        W47592  15.112   3.429  11.521  0.1200 -0.0793 -0.2447
29389W        W47593   1.919  11.419   1.621 -0.0595  0.1380  0.0336
29390W        W47594   6.143  17.322   1.235 -0.1837 -0.0397  0.2128
29391W        W47595  10.755   4.075  17.441 -0.0608 -0.1691  0.1440
29392W        W47596   9.691   0.009   1.523  0.1828 -0.2518  0.1935
29393W        W47597  15.409   9.671  12.785 -0.2275 -0.0013  0.0733
29394W        W47598   5.642   4.153  12.950 -0.1558  0.1901 -0.2053
29395W        W47599   4.465   1.193  12.444 -0.1173 -0.0157  0.0423
29396W        W47600   1.429   4.361   4.651 -0.3823 -0.3582 -0.2617
29397W        W47601   2.846  12.277   3.233  0.0572 -0.2464  0.2847
29398W        W47602   1.685   4.018   0.982 -0.2143 -0.0901  0.1224
29399W        W47603  11.414  11.839  14.791 -0.1124  0.0700  0.4287
29400W        W47604   2.982   6.815   1.919 -0.0145 -0.0542  0.0248
29401W        W47605   4.025  16.277   2.382 -0.2627  0.0350 -0.6207
29402W        W47606  13.530   0.754   0.870 -0.0225  0.1484 -0.0092
29403W        W47607  16.645   2.152  14.879  0.2095 -0.1383 -0.0781
29404W        W47608  13.141  15.953  15.915  0.1126 -0.0602  0.0194
29405W        W47609   9.684   6.823  13.624 -0.0797 -0.2153 -0.0264
29406W        W47610   3.938   4.486  12.336  0.2727  0.0199 -0.0057
29407W        W47611  10.611   8.374   3.095 -0.0929 -0.0698 -0.1969
29408W        W47612   0.139   0.820  14.024  0.2364 -0.0472  0.0752
29409W        W47613   2.007  13.834   0.085 -0.1446  0.0781 -0.3108
29410W        W47614   4.567   6.266   1.675 -0.1908  0.0192 -0.0507
29411W        W47615   7.754   2.368  12.543  0.2118  0.0548 -0.1286
29412W        W47616  12.915   6.227  12.891  0.0323 -0.3192  0.1523
29413W        W47617   5.692  16.288  12.689 -0.1782 -0.4095 -0.1803
29414W        W47618   2.228  16.803  15.499  0.0145  0.0323 -0.1872
29415W        W47619   1.672   3.554  14.219  0.1590 -0.3416  0.2243
29416W        W47620   8.359  12.178  14.207  0.2451 -0.1472  0.0045
29417W        W47621  11.778  15.478  13.244  0.1789 -0.0186  0.2060
29418W        W47622   4.146   7.327  14.707  0.0361 -0.1435  0.1308
29419W        W47623  13.161   3.301   4.170  0.1618  0.2547 -0.0282
29420W        W47624   1.853   4.216   1.896  0.0145  0.1598  0.2280
29421W        W47625  14.629   6.360   2.930 -0.4114 -0.0077  0.1405
29422W        W47626   6.895  16.432   4.566 -0.0208  0.3118 -0.1037
29423W        W47627  12.606   1.561  15.666  0.0282 -0.0138 -0.1063
29424W        W47628   2.154  17.202   3.688 -0.1608  0.0144 -0.0378
29425W        W47629   0.238  17.010  16.378 -0.0473  0.4267  0.1935
29426W        W47630  10.146  14.776  12.712 -0.0953  0.3536 -0.1196
29427W        W47631   9.054  10.034  12.194 -0.2351  0.1797  0.1105
29428W        W47632   0.070   2.128   0.086 -0.1213 -0.3085  0.1380
29429W        W47633   4.367   8.224  13.376  0.1070  0.0679  0.3181
29430W        W47634   3.825   0.792   0.444 -0.2884  0.0027 -0.1128
29431W        W47635   2.100   5.338  13.972  0.3518  0.3615  0.0314
29432W        W47636   3.005   5.842  16.253  0.0836 -0.1026 -0.2749
29433W        W47637  13.983   6.011   1.222 -0.0079 -0.1050 -0.2683
29434W        W47638   9.523   9.279  16.088  0.0632 -0.0367 -0.0942
29435W        W47639  13.673  12.939   4.468 -0.1649 -0.0102 -0.2914
29436W        W47640  10.704   9.433   1.121 -0.1311 -0.3397 -0.0785
29437W        W47641  12.667   9.370   0.743  0.0198  0.1004 -0.0769
29438W        W47642   4.118  15.178   3.093  0.0917  0.2274  0.0746
29439W        W47643   2.252   0.672  13.636  0.2083  0.2266  0.1885
29440W        W47644  13.159   0.958  12.288 -0.2726  0.1283 -0.0561
29441W        W47645   9.277   8.476  17.312 -0.3661 -0.0031 -0.0324
29442W        W47646  16.920  16.062   4.002  0.0695 -0.0198 -0.0396
29443W        W47647  10.007   5.383   2.989 -0.0603 -0.0860  0.2709
29444W        W47648  16.617  13.148  13.824  0.0132 -0.0250  0.1123
29445W        W47649  12.131   5.868   1.350  0.0142  0.5041 -0.1693
29446W        W47650  10.027  17.110   4.060 -0.0496 -0.0886  0.1663
29447W        W47651   5.991   6.653   2.551  0.1936  0.0095 -0.2570
29448W        W47652   6.332   2.715  12.353 -0.0819  0.2172  0.3586
29449W        W47653   4.865   9.351   1.632  0.0807 -0.0816 -0.0203
29450W        W47654   4.578   2.364  12.692 -0.3456  0.1352  0.1188
29451W        W47655   1.335   0.763  14.557 -0.1949 -0.2914 -0.0211
29452W        W47656   6.314  12.271   0.048 -0.2872 -0.0983 -0.2078
29453W        W47657   1.697  15.466   3.634 -0.0057  0.0184 -0.1335
29454W        W47658   9.276   8.303   2.786  0.0518 -0.0059 -0.2720
29455W        W47659  10.730   1.425  15.226 -0.2030  0.4387  0.0530
29456W        W47660   0.605   5.353   2.429 -0.1792 -0.0087 -0.2483
29457W        W47661   5.973  15.501   0.804 -0.1841 -0.1383  0.0869
29458W        W47662   9.495  10.732  16.005 -0.1303  0.0025 -0.0347
29459W        W47663  16.590   5.494   5.226  0.0402  0.0310  0.2414
29460W        W47664  15.775   6.972  12.291  0.1723 -0.0036  0.1874
29461W        W47665   6.136  14.617   3.240  0.2516 -0.1188  0.0020
29462W        W47666   1.741  10.934  13.053  0.1831 -0.1765 -0.0882
29463W        W47667  11.152  10.771   3.539 -0.0620  0.1615 -0.2682
29464W        W47668  16.129   5.569   3.106 -0.0174 -0.4416  0.1671
29465W        W47669  13.310  14.487   2.208  0.1802  0.1019  0.1463
29466W        W47670  11.549   5.430   1.488 -0.0422 -0.3120  0.3519
29467W        W47671   0.547  15.317   3.649  0.3230  0.1405  0.0362
29468W        W47672  10.834   8.316   4.381  0.0751 -0.0698 -0.3244
29469W        W47673  11.225   2.149   5.445 -0.0018  0.2148  0.2782
29470W        W47674   8.148  13.911   1.058 -0.2672 -0.1452  0.1026
29471W        W47675  11.612  16.351  14.627  0.1703 -0.3837 -0.3275
29472W        W47676  12.065   7.858  15.659  0.0664  0.3501 -0.2393
29473W        W47677  12.816  17.043   5.089 -0.1189 -0.0678 -0.1288
29474W        W47678  15.670  16.697   3.145 -0.0280 -0.1109 -0.1407
29475W        W47679   4.314   0.730   0.268 -0.2179  0.1290  0.3824
29476W        W47680   7.856   5.234  13.771  0.3664  0.0424  0.0122
29477W        W47681  13.499  13.446  16.856  0.2471 -0.1248  0.2680
29478W        W47682   2.241  15.779   2.330  0.1181 -0.2687  0.2327
29479W        W47683  11.825   5.089  11.551  0.1734 -0.0993  0.0683
29480W        W47684  16.103   4.141   3.736  0.2020  0.1585 -0.1588
29481W        W47685   6.752   3.535  16.522  0.0564  0.1600  0.0026
29482W        W47686  16.719   0.672  17.204  0.2404 -0.1031  0.1088
29483W        W47687   6.496   2.325   0.253  0.5672 -0.0046 -0.1341
29484W        W47688   4.920  10.679   1.397  0.1157  0.2108 -0.0272
29485W        W47689   2.581   8.666  12.741  0.0120  0.0103 -0.2028
29486W        W47690   5.747  15.414   3.675 -0.2325 -0.0305 -0.1487
29487W        W47691   2.305   7.422   3.635  0.0391 -0.1131 -0.2960
29488W        W47692  16.079   0.030  12.896  0.0203 -0.1344  0.0010
29489W        W47693  14.958   3.917  16.260  0.2770 -0.0299 -0.1589
29490W        W47694   7.097  17.124  14.457 -0.1396 -0.1435 -0.0100
29491W        W47695  15.493   4.818   2.214 -0.0453 -0.1775 -0.0422
29492W        W47696  16.934   6.579  14.319 -0.1216  0.0842  0.2182
29493W        W47697   0.367   0.652  16.500  0.1679 -0.2076 -0.2360
29494W        W47698  15.965  16.014  17.012  0.0672  0.0041  0.0102
29495W        W47699  10.845   9.891   1.282 -0.1849 -0.1643  0.1252
29496W        W47700   2.302  10.156  14.395  0.1032 -0.0968  0.0902
29497W        W47701   6.517  15.599   4.245  0.2102 -0.0878 -0.1353
29498W        W47702   1.539  16.588   1.513 -0.0437 -0.1619 -0.2157
29499W        W47703   8.362   3.544   0.024  0.1787 -0.3041 -0.0322
29500W        W47704  16.060   1.397  13.330 -0.0453 -0.0056 -0.2292
29501W        W47705  13.820  15.966  14.244 -0.0326  0.4039 -0.0258
29502W        W47706  15.753  10.570  14.208 -0.4597  0.0255  0.1420
29503W        W47707   3.258   9.535  15.960 -0.3715 -0.0201  0.0220
29504W        W47708   3.566   5.562   1.965  0.1201 -0.1135 -0.0788
29505ION     NA47709   4.441   4.791  11.024 -0.0635 -0.2294 -0.2260
29506ION     NA47710   4.646  15.737  11.630 -0.0821  0.0684  0.0315
29507ION     NA47711   1.221  15.252  11.704 -0.1942  0.3927  0.3502
29508ION     NA47712  14.782  14.662   5.205 -0.0519  0.1724  0.0057
29509ION     NA47713   9.575   5.700   6.407 -0.1087  0.0666  0.0846
29510ION     NA47714   2.593  11.344  11.600  0.1601 -0.0495  0.2239
29511ION     NA47715   0.224   4.424   5.885 -0.0876  0.2098 -0.0684
29512ION     NA47716  13.542   6.216  16.111  0.0942  0.0681  0.0445
29513ION     NA47717  17.189  12.716  11.734 -0.1342 -0.3753  0.1760
29514ION     NA47718  10.542   1.448   6.269  0.2441  0.0525 -0.1852
29515ION     NA47719   2.787  12.939  11.410 -0.1136 -0.1200 -0.2938
29516ION     NA47720   5.966   0.648   4.277 -0.0189  0.1077  0.0278
29517ION     NA47721  10.007  15.685   6.167 -0.2234 -0.0302 -0.1008
29518ION     NA47722   9.835   1.766   6.401  0.0777 -0.0672 -0.1133
29519ION     NA47723   9.649  16.641   6.018  0.1058  0.1050 -0.0539
29520ION     NA47724   4.016   9.853  11.306 -0.2561  0.0803 -0.1427
29521ION     NA47725  11.372  11.622   2.675  0.0685  0.0352 -0.0223
29522ION     NA47726   0.682   5.630  11.169 -0.2506 -0.1048 -0.1970
29523ION     NA47727   8.361  13.737  14.567 -0.0626 -0.0269  0.0177
29524ION     NA47728  14.890  10.968   2.505 -0.2008 -0.0192 -0.0747
29525ION     NA47729   3.912  16.654   6.103  0.3310 -0.4000 -0.0151
29526ION     NA47730  12.537  16.439  12.466  0.0297  0.3947 -0.1711
29527ION     NA47731   1.233  15.101   6.288 -0.1023 -0.1430  0.2435
29528ION     NA47732   8.104   5.972   6.109  0.0198  0.1516 -0.1585
29529ION     NA47733   2.485  13.867  11.680 -0.1558 -0.5134 -0.0510
29530ION     NA47734   0.261   5.618   5.868 -0.0554  0.4007  0.2006
29531ION     NA47735  12.901  15.460  11.448 -0.0721 -0.2523  0.1208
29532ION     NA47736   7.397   0.739   4.182  0.1951 -0.0030 -0.2987
29533ION     NA47737  17.143  12.671   5.807  0.3084 -0.0618 -0.0523
29534ION     NA47738  11.687   8.909   6.211  0.0234 -0.2205 -0.3705
29535ION     NA47739   7.833   7.326   6.433  0.0378  0.0886  0.1751
29536ION     NA47740  16.980   0.690  11.256  0.0611 -0.2715 -0.0090
29537ION     NA47741  17.011   4.011  15.190  0.2715  0.0784  0.0424
29538ION     NA47742   0.319   1.410  11.423 -0.1621  0.0097 -0.0846
29539ION     NA47743  11.952   6.830   0.810 -0.0119 -0.1479  0.1260
29540ION     NA47744  15.405   9.954  11.953 -0.2207  0.5670 -0.0595
29541ION     NA47745   8.841   4.867  11.430 -0.2158 -0.1089 -0.0142
29542ION     NA47746  12.197   1.816   5.704  0.0903 -0.0251 -0.0304
29543ION     NA47747  17.263   6.093   5.987 -0.0138 -0.0206 -0.0786
29544ION     NA47748   0.483   5.148   4.512  0.0965 -0.0623 -0.0831
29545ION     NA47749   5.164  14.359   0.853 -0.1511  0.1200  0.0217
29546ION     NA47750   6.712   0.314  11.484  0.0163  0.1089 -0.0061
29547ION     NA47751   6.438  13.536   6.238  0.0575 -0.0424  0.2211
29548ION     NA47752   7.830   8.167  14.609 -0.2303 -0.2383  0.1318
29549ION     NA47753   6.617   9.104  11.240 -0.1138 -0.1420  0.1693
29550ION     NA47754  15.635  12.502  16.006 -0.0471 -0.2458  0.1424
29551ION     NA47755   4.671   1.679   6.094 -0.0708 -0.0542  0.0159
29552ION     NA47756  13.254   0.602  11.510  0.1865  0.1108  0.2688
29553ION     NA47757   1.653   7.484   6.221  0.1654  0.0300 -0.2388
29554ION     NA47758  12.331   7.426  15.721 -0.0748 -0.3593  0.0329
29555ION     NA47759   3.381  17.166  11.732  0.1799  0.0497  0.1002
29556ION     NA47760   4.434  17.171   5.997  0.0987 -0.0240  0.1149
29557ION     NA47761   3.778  12.789  11.482  0.2011  0.1557 -0.0770
29558ION     NA47762   7.066  10.370  11.296  0.3109 -0.1732 -0.0141
29559ION     NA47763  11.826  11.290   6.296 -0.0958 -0.1629 -0.3403
29560ION     NA47764   9.799  15.840  11.415  0.0702 -0.3492  0.1620
29561ION     NA47765   1.062   4.959   6.191  0.0941 -0.3054  0.1064
29562ION     NA47766  13.903  13.743   6.590 -0.0599 -0.1218 -0.0820
29563ION     NA47767   2.162  14.346   0.154  0.0428 -0.0950 -0.0293
29564ION     NA47768  14.001  14.498  11.628 -0.0163 -0.1503  0.1811
29565ION     NA47769   5.313  12.989   6.170  0.2073  0.1796 -0.1071
29566ION     NA47770   5.909  11.894   6.156 -0.2133 -0.2495  0.2728
29567ION     NA47771   3.801  14.594  11.508 -0.0115  0.0441  0.3136
29568ION     NA47772  14.261  10.755   5.861 -0.0738  0.1470 -0.1157
29569ION     NA47773   8.181  16.142   6.105 -0.2333 -0.1059  0.0106
29570ION     NA47774   5.550  13.148  11.133  0.0425 -0.2331 -0.2512
29571ION     NA47775  14.427   0.243   6.221 -0.0760  0.1820 -0.1192
29572ION     NA47776  16.912   9.625   0.753 -0.1780 -0.1517 -0.0729
29573ION     NA47777  12.312   6.292  11.975 -0.3098 -0.0136  0.3021
29574ION     NA47778   0.352   4.940  13.879  0.0823 -0.2644  0.0078
29575ION     NA47779  13.297  11.740  11.477 -0.0229  0.0495 -0.0588
29576ION     NA47780  13.491   1.720  13.370  0.1254  0.0456  0.0603
29577ION     NA47781   1.202   9.705   1.247 -0.2070  0.1897 -0.0108
29578ION     NA47782   4.679  14.471   6.366 -0.0608  0.1619  0.1887
29579ION     NA47783  15.433   5.461   6.082  0.1536 -0.1128  0.1890
29580ION     NA47784  13.845   5.308  11.028  0.2128 -0.0787 -0.2014
29581ION     NA47785   8.442  13.225  11.411 -0.2625 -0.0352  0.0668
29582ION     NA47786  13.757   2.275   6.158  0.0287  0.0038 -0.1083
29583ION     NA47787   6.449   2.531  11.453  0.0305 -0.4028 -0.1817
29584ION     NA47788   1.081  11.473  11.857  0.2080 -0.1565 -0.1064
29585ION     NA47789   1.824  13.973  11.814 -0.3261  0.0821 -0.0968
29586ION     NA47790  16.707  15.873   6.298  0.2306  0.0735  0.0192
29587ION     NA47791  11.649   2.494   6.303 -0.0224 -0.2025 -0.4128
29588ION     NA47792   8.142   8.406  11.475  0.1188  0.2520  0.0392
29589ION     NA47793  14.119  14.804   6.209 -0.0551 -0.1310 -0.1829
29590ION     NA47794   9.381  13.262  11.250 -0.0393  0.0054  0.1528
29591ION     NA47795  10.191   1.559  11.464 -0.3316  0.0121 -0.0143
29592ION     NA47796   6.591  14.933   6.393  0.2892 -0.1452  0.3992
29593ION     NA47797   6.522   1.386  11.328 -0.0557 -0.3113  0.1184
29594ION     NA47798  11.145   6.551   6.553 -0.2858  0.1297  0.0686
29595ION     NA47799   5.936   3.121   4.995  0.2608 -0.1380  0.0035
29596ION     NA47800  12.772   9.743  11.343  0.0802 -0.1347  0.3125
29597ION     NA47801  11.201   3.450  11.425 -0.2991  0.0680  0.1875
29598ION     NA47802  14.852   0.600  17.415  0.0479 -0.0907 -0.1320
29599ION     NA47803  12.825  13.310  11.378  0.0579 -0.0623 -0.0969
29600ION     NA47804   1.155   8.760   2.388 -0.2360  0.1789 -0.0471
29601ION     NA47805   6.681  15.874   6.366  0.2613  0.0156  0.0170
29602ION     NA47806   6.720   6.304  11.464 -0.2089 -0.1522 -0.0265
29603ION     NA47807   7.188  14.537  15.675  0.1264  0.1273  0.0032
29604ION     NA47808  15.349  13.256  11.726  0.1420  0.0472 -0.0254
29605ION     NA47809  11.712   9.223   4.041 -0.1316  0.0863  0.1992
29606ION     NA47810  10.324   7.242  16.290  0.0553 -0.0506  0.0917
29607ION     NA47811   8.321   2.125   6.163 -0.3753 -0.1713  0.2760
29608ION     NA47812   1.048  13.055  16.982  0.0284 -0.2992 -0.2586
29609ION     NA47813   7.698  11.286  11.722 -0.3076 -0.2617  0.0325
29610ION     NA47814  12.959   7.387  11.326  0.2308  0.0901 -0.2056
29611ION     NA47815   5.335  12.691   0.530 -0.0313  0.2452 -0.1963
29612ION     NA47816   7.831  15.333  11.976  0.1745  0.0021  0.2768
29613ION     NA47817  16.240   8.066   6.069 -0.1176  0.1428 -0.4299
29614ION     NA47818   0.357  10.607   6.699  0.0443 -0.1669 -0.2751
29615ION     NA47819  13.862   3.250   4.990  0.2557 -0.0194  0.0567
29616ION     NA47820   3.700  13.950  16.535 -0.0164  0.0720 -0.2289
29617ION     NA47821  17.230   0.098  14.773 -0.1383 -0.5018  0.2339
29618ION     NA47822  17.048  10.997   6.492  0.2814 -0.0057 -0.3252
29619ION     NA47823  16.646  11.543   3.098  0.2329 -0.1885  0.1461
29620ION     NA47824   9.631   6.709   6.403  0.0889  0.2011 -0.2568
29621ION     NA47825   5.432  12.398   4.042 -0.3251 -0.0467 -0.0329
29622ION     NA47826  16.246   7.402   6.256  0.0610  0.1502  0.1012
29623ION     NA47827  15.430   7.069  13.119  0.1264 -0.0166  0.2855
29624ION     NA47828   4.207   7.957   6.145 -0.1391  0.1314  0.3331
29625ION     NA47829  11.754   3.555   6.464 -0.3604 -0.1412 -0.0725
29626ION     NA47830   1.337   5.119  11.181 -0.2124  0.2217 -0.0017
29627ION     NA47831   5.305   4.386  11.209 -0.2371 -0.2406  0.1663
29628ION     NA47832   4.922   3.659   6.063  0.2008  0.3444  0.1874
29629ION     NA47833   4.912   7.026  11.106  0.0788 -0.1118 -0.0708
29630ION     NA47834  10.114   4.761  15.610 -0.1984 -0.0454 -0.1889
29631ION     NA47835  14.214  11.778   5.887 -0.1642  0.2680 -0.1703
29632ION     NA47836  14.476   3.110   6.206 -0.0081 -0.2257  0.1134
29633ION     NA47837  13.071   2.052   0.329  0.0290  0.1362  0.2799
29634ION     NA47838   0.631  15.177   6.450 -0.0550  0.1918 -0.1897
29635ION     NA47839  10.831   0.075   6.261  0.0285 -0.1211 -0.0446
29636ION     NA47840  12.224   3.271  11.210 -0.2957  0.0719 -0.0218
29637ION     NA47841  11.553  12.247   5.671 -0.2873 -0.0988 -0.2681
29638ION     NA47842  11.578   7.520  11.659  0.1737  0.0994 -0.0403
29639ION     NA47843   2.353  13.815   6.334  0.1023 -0.1076  0.0068
29640ION     NA47844   7.554   0.433   5.634  0.1152 -0.1690 -0.1996
29641ION     NA47845   4.666   7.916   5.953  0.1672  0.3648 -0.0655
29642ION     NA47846   4.611  13.486   6.271  0.0252  0.0630  0.1896
29643ION     NA47847   7.242   7.033  11.258  0.2829  0.0679  0.2196
29644ION     NA47848   2.563   7.968   6.152 -0.4004  0.1232  0.0057
29645ION     NA47849   7.543  10.549   2.642  0.1627  0.3598 -0.0921
29646ION     NA47850   1.356   3.779   1.924 -0.0026  0.0615  0.0053
29647ION     NA47851  10.410   3.984  11.157  0.1991 -0.0119  0.0117
29648ION     NA47852   3.081   5.267   6.128 -0.0822 -0.2168 -0.2916
29649ION     NA47853   7.026  15.785  11.467  0.1267  0.2482  0.0939
29650ION     NA47854   0.798   6.111   6.094 -0.0943  0.0279 -0.3712
29651ION     NA47855   9.032  16.002   6.145 -0.0053 -0.2128 -0.0440
29652ION     NA47856   7.993   4.263   6.483 -0.2450 -0.1670  0.0177
29653ION     NA47857   1.756  12.984  11.868  0.0073 -0.0073 -0.2805
29654ION     NA47858   9.120  11.528  11.258  0.1213 -0.1464  0.0192
29655ION     NA47859  16.154   0.756  11.381 -0.2357 -0.1334  0.0224
29656ION     NA47860  14.250   4.103   6.194 -0.0376 -0.0392 -0.0358
29657ION     NA47861  14.330   6.646  11.221 -0.0396  0.0131  0.0675
29658ION     NA47862   4.578  16.425  11.454 -0.3385 -0.3014 -0.1993
29659ION     NA47863   0.615  12.970   6.556  0.0219  0.2734 -0.0553
29660ION     NA47864  15.240  10.532   6.255 -0.4255  0.1778 -0.1886
29661ION     NA47865   1.189  12.395   6.361 -0.0750 -0.3040  0.0069
29662ION     NA47866   1.715   6.213   5.932 -0.1132  0.1152  0.3015
29663ION     NA47867   2.658   6.105   6.125 -0.1148  0.0434 -0.2136
29664ION     NA47868   3.151  13.412  11.404 -0.0500  0.0660 -0.1326
29665ION     NA47869   2.873   8.184  11.462 -0.1944 -0.4045  0.4599
29666ION     NA47870   0.490   3.437   6.245  0.1064 -0.0569 -0.1355
29667ION     NA47871   3.357   7.754   6.038 -0.2193 -0.0239  0.1584
29668ION     NA47872   5.359   8.285  11.211  0.0196 -0.0548 -0.0902
29669ION     NA47873   9.257   7.990  14.209 -0.1199 -0.1447  0.2163
29670ION     NA47874  14.937   9.336  11.405 -0.1110  0.2435  0.0043
29671ION     NA47875   5.465  13.936   6.472  0.0293 -0.1303 -0.0320
29672ION     NA47876   2.095  14.722   6.382  0.0457 -0.1896 -0.2837
29673ION     NA47877   8.086   8.937  16.882 -0.0753 -0.1814 -0.0857
29674ION     NA47878  15.095  15.945  12.062 -0.1817 -0.4037  0.0364
29675ION     NA47879   5.874  14.060  16.555  0.0699  0.0847  0.1481
29676ION     NA47880   8.281   6.445  11.437 -0.0562  0.1386 -0.3190
29677ION     NA47881  10.074   7.938  11.539 -0.1107 -0.0590 -0.1867
29678ION     NA47882  16.022  13.124   6.363  0.2391  0.0862 -0.2128
29679ION     NA47883   5.800   0.751  11.370  0.0648  0.1373  0.1855
29680ION     NA47884   5.491   7.944   5.995 -0.1125 -0.0615 -0.0392
29681ION     NA47885  15.032   0.974   6.490  0.2309 -0.0330 -0.3946
29682ION     NA47886  12.401   7.679   6.041 -0.1473  0.2596  0.1363
29683ION     NA47887   5.863  12.336  11.084  0.0184 -0.0548 -0.2875
29684ION     NA47888   2.775  13.089   6.041  0.1510  0.1101 -0.0937
29685ION     NA47889   8.788   1.275   6.041 -0.1078 -0.3742  0.2681
29686ION     NA47890  14.360  15.861   2.773  0.1157  0.0133  0.2338
29687ION     NA47891  14.459   0.383  11.617 -0.0438  0.2063 -0.0526
29688ION     NA47892  13.151   0.659   6.156 -0.3209  0.2582 -0.0655
29689ION     NA47893  13.984   8.265   6.004  0.2745 -0.0657 -0.4010
29690ION     NA47894  15.968  14.136  11.706  0.1451 -0.0253 -0.4174
29691ION     NA47895  15.078   3.071   2.869 -0.1137 -0.0091 -0.5244
29692ION     NA47896  16.955  13.816   4.981  0.2524  0.1176 -0.2946
29693ION     NA47897   7.041   9.398  11.201 -0.1117  0.0999  0.0897
29694ION     NA47898  12.384  11.429   6.268  0.0759 -0.1545 -0.0453
29695ION     NA47899  12.898   6.045   6.359  0.2572  0.1137 -0.0357
29696ION     NA47900  16.408   1.509  11.171 -0.2829 -0.2000 -0.0359
29697ION     NA47901   3.144   0.801   6.101  0.0253 -0.2339  0.0211
29698ION     NA47902  12.951  16.046   6.440  0.1339  0.1910 -0.3992
29699ION     NA47903  10.775   4.864   6.580  0.0482  0.2997  0.1205
29700ION     NA47904   9.991   9.521   5.949 -0.1587  0.0317 -0.0001
29701ION     NA47905  12.741  13.811  11.464  0.0222  0.0191 -0.4075
29702ION     NA47906  12.155  13.799   6.446 -0.0784 -0.2219 -0.2065
29703ION     NA47907   5.424   1.494   6.179  0.0797 -0.0340  0.2667
29704ION     NA47908   0.371   9.283  11.597  0.1148  0.0096 -0.1865
29705ION     NA47909  14.260   7.734   5.939  0.1716 -0.2005  0.2545
29706ION     NA47910  11.520  16.311   3.527  0.3085 -0.0026  0.0759
29707ION     NA47911   7.740  10.265   6.015  0.0505 -0.1751  0.0351
29708ION     NA47912  16.666   7.324  11.452  0.0233 -0.1892  0.1185
29709ION     NA47913   1.507   4.218  11.204  0.1020 -0.1657 -0.1003
29710ION     NA47914   2.630   8.793  16.726  0.0316  0.0063  0.0689
29711ION     NA47915  16.956   0.156  11.425  0.1907 -0.0362 -0.1409
29712ION     NA47916  16.374   0.410   6.148  0.0231 -0.1496 -0.0730
29713ION     NA47917  15.231  16.057   6.189 -0.2887 -0.1461  0.1848
29714ION     NA47918  15.950  10.239   2.563  0.0552 -0.0300  0.2602
29715ION     NA47919   4.288   5.911  14.598  0.0937  0.0983 -0.0372
29716ION     NA47920  11.097   7.151  13.066 -0.1377 -0.0463 -0.1551
29717ION     NA47921   0.680  14.336   6.396  0.0404 -0.0601 -0.2735
29718ION     NA47922   7.312   6.781  15.592 -0.1443  0.0236  0.1945
29719ION     NA47923   2.171   1.539  13.012 -0.2708 -0.0964 -0.0904
29720ION     NA47924   9.758  16.688  15.149 -0.1315  0.4911 -0.1421
29721ION     NA47925  16.121   6.654   0.230  0.1838  0.3806 -0.1174
29722ION     NA47926  14.386  12.084  11.513  0.0073 -0.1542  0.1870
29723ION     NA47927  13.392   7.468   6.162  0.2402 -0.2698  0.1394
29724ION     NA47928   6.374  10.064   5.719  0.0075 -0.5700 -0.0192
29725ION     NA47929  12.718  14.666  11.467 -0.2839 -0.2308  0.1082
29726ION     NA47930   1.857  12.825   6.123  0.0950  0.1843  0.4094
29727ION     NA47931   2.563  16.564   5.798  0.2010  0.2010 -0.1042
29728ION     NA47932   8.439   7.385   6.308 -0.1773  0.5174  0.2906
29729ION     NA47933   3.308   5.195  11.251  0.1225  0.0759  0.0663
29730ION     NA47934   4.573  16.762  12.423  0.2679 -0.1945 -0.3404
29731ION     NA47935   6.987   0.053   1.640 -0.2208  0.0566  0.0738
29732ION     NA47936  10.513  16.609   6.116 -0.1356  0.2846  0.2268
29733ION     NA47937   3.440   0.649  11.667  0.1232 -0.4348  0.0753
29734ION     NA47938   9.447   8.542  11.625  0.2228  0.3467 -0.4706
29735ION     NA47939  14.184  13.453  11.465 -0.0784  0.2729 -0.2316
29736ION     NA47940   0.947  13.445  15.861 -0.1906  0.1312 -0.0451
29737ION     NA47941   0.799  16.997   0.281  0.2996 -0.1668 -0.0653
29738ION     NA47942   7.140   0.935  11.623 -0.1980  0.3381 -0.0898
29739ION     NA47943   4.022  16.227  16.287 -0.1806  0.0105  0.1689
29740ION     NA47944   7.550   9.078  11.176  0.0417  0.3204 -0.1328
29741ION     NA47945  11.105   8.032  11.587 -0.2842  0.2125 -0.4391
29742ION     NA47946   4.736  12.482  11.347  0.0547 -0.1810  0.0250
29743ION     NA47947  16.307  15.287   6.184 -0.0837  0.2015  0.0743
29744ION     NA47948   7.824   1.106  11.376 -0.0957 -0.1017 -0.2079
29745ION     NA47949   9.348  14.328  12.768 -0.0993 -0.0889 -0.0389
29746ION     NA47950   8.252  14.150   6.204  0.1011 -0.1694 -0.2371
29747ION     NA47951  10.905   6.051   1.619 -0.0812 -0.1517  0.1229
29748ION     NA47952   5.727   9.459   5.947  0.0578  0.0455 -0.0607
29749ION     NA47953   3.730  11.803   6.076 -0.0325 -0.2466  0.2277
29750ION     NA47954  13.492  16.218  11.627  0.1034 -0.1323  0.1653
29751ION     NA47955   6.473   4.324   6.126 -0.1916  0.1011  0.0878
29752ION     NA47956  16.487  14.083  11.618 -0.1444 -0.1776  0.0865
29753ION     NA47957   3.895   9.283  11.362 -0.0498  0.1804 -0.1066
29754ION     NA47958  11.295   1.136   6.252 -0.2051  0.0701 -0.0390
29755ION     NA47959  10.850   4.095   6.567  0.1995 -0.0707  0.1531
29756ION     NA47960  11.342   7.082  11.533 -0.0839 -0.2128  0.0416
29757ION     NA47961   9.707   3.426   0.040 -0.3738 -0.1606 -0.0260
29758ION     NA47962  15.436   8.078   2.550 -0.0227 -0.1223 -0.0070
29759ION     NA47963   6.337   5.843  12.071 -0.2890  0.2857  0.0985
29760ION     NA47964  14.565   4.610   4.376  0.0288 -0.1724 -0.1752
29761ION     NA47965   9.293   8.221  11.250  0.0807 -0.3729  0.3195
29762ION     NA47966   0.398   3.410   1.575 -0.1799 -0.0101  0.2232
29763ION     NA47967  12.095   3.375   5.990 -0.0580 -0.1102  0.3772
29764ION     NA47968   4.609   0.583  14.769  0.1493 -0.0909 -0.2727
29765ION     NA47969  12.588   4.049  11.144 -0.0289  0.0591  0.3049
29766ION     NA47970   2.237   9.525  11.640  0.1944 -0.1945  0.0990
29767ION     NA47971   1.903  15.719  11.636 -0.1088  0.0614 -0.2402
29768ION     NA47972  14.585   0.579  15.286  0.0235  0.3255 -0.0758
29769ION     NA47973  12.011  12.699  11.442 -0.0839 -0.2323  0.0993
29770ION     NA47974   9.516   5.653  11.385  0.1679  0.2159  0.2322
29771ION     NA47975  10.578   5.420   6.328 -0.1386  0.1719  0.3631
29772ION     NA47976   2.869   8.561   6.093 -0.0846 -0.1868  0.2255
29773ION     NA47977   0.483  13.867   6.464 -0.0989  0.0599 -0.0896
29774ION     NA47978   2.793  11.858   6.189 -0.1287 -0.0813 -0.3514
29775ION     NA47979  16.263   9.194  11.332  0.0879  0.1445 -0.1555
29776ION     NA47980   5.534   4.897  16.254  0.0439  0.2191 -0.1312
29777ION     NA47981   5.834   6.260  13.257 -0.2831  0.2069  0.1565
29778ION     NA47982  16.489   4.102   5.986  0.3245 -0.0723 -0.0496
29779ION     NA47983  11.090   1.787  15.848  0.1075  0.1901  0.0346
29780ION     NA47984  16.530  13.292   5.687 -0.0637 -0.5791 -0.1936
29781ION     NA47985   4.331   2.888  13.433 -0.1641  0.0152  0.2020
29782ION     NA47986   9.539  13.659   6.110 -0.1566 -0.1712  0.1058
29783ION     NA47987  12.043  14.547   5.685  0.1338  0.0143  0.1115
29784ION     NA47988   7.915   3.917  11.352 -0.2372 -0.0623 -0.0405
29785ION     NA47989   3.407  15.533   4.090 -0.0977 -0.0778  0.0602
29786ION     NA47990  12.707   5.826  11.225 -0.0503  0.0998  0.0893
29787ION     NA47991   8.384   3.299   1.057  0.0012 -0.0960 -0.1529
29788ION     NA47992   3.716   2.836  11.697 -0.2280  0.2226 -0.1534
29789ION     NA47993  13.534   5.898   6.388 -0.1877 -0.0091 -0.0307
29790ION     NA47994   0.297  15.838   6.166 -0.0616  0.0629 -0.2245
29791ION     NA47995   8.476  10.011  11.380 -0.0335 -0.2841 -0.0875
29792ION     NA47996   9.201  11.731  11.762  0.0403 -0.1206  0.0237
29793ION     NA47997  15.414   3.406  12.884  0.0950 -0.2844 -0.1295
29794ION     NA47998  15.845   3.963  11.183  0.2517 -0.1264 -0.0179
29795ION     NA47999  11.947   1.685  11.382  0.2922  0.3128 -0.0557
29796ION     NA48000   2.244   5.574   5.510 -0.0259 -0.0761 -0.1512
29797ION     NA48001   3.395  12.949   6.137  0.1470 -0.1064  0.1377
29798ION     NA48002   5.274   1.869  11.367  0.0290  0.0119 -0.0213
29799ION     NA48003   6.366  13.074  15.427  0.3020  0.0448  0.0571
29800ION     NA48004   9.702  15.091   5.381 -0.0298 -0.0020 -0.2577
29801ION     NA48005  15.390   3.214   6.023  0.0410  0.0296 -0.1449
29802ION     NA48006   8.035   8.974   6.152  0.0327 -0.1423 -0.0008
29803ION     NA48007  10.795  15.754   5.745 -0.0297 -0.1148 -0.1037
29804ION     NA48008   6.606   5.665  15.598 -0.0759 -0.2944 -0.0034
29805ION     NA48009   5.016  16.238  14.483  0.1899  0.0543 -0.0772
29806ION     NA48010  10.276   3.656  11.775  0.0427 -0.1658  0.1483
29807ION     NA48011   8.031  14.257  11.780  0.0891  0.0032  0.2993
29808ION     NA48012   0.708   3.790   3.329  0.0206  0.1149  0.1318
29809ION     NA48013  13.125   1.754  14.291  0.0847 -0.1013  0.1319
29810ION     NA48014   9.771   2.214  11.746 -0.1287 -0.1066  0.2499
29811ION     NA48015  17.152  14.436  11.536  0.0880  0.0192 -0.1763
29812ION     NA48016  14.099  13.736   4.660  0.0185 -0.0186  0.1127
29813ION     NA48017   5.598   2.490   4.181  0.1629  0.1418 -0.4021
29814ION     NA48018   1.046  11.625   4.149 -0.2854  0.1397  0.1726
29815ION     NA48019  14.130  11.748  13.327  0.0026  0.1511 -0.0655
29816ION     NA48020   7.534  12.125  11.713 -0.0656  0.0649 -0.0744
29817ION     NA48021   0.705  17.041   5.921 -0.2193  0.0049 -0.1061
29818ION     NA48022   0.634  15.079  11.742  0.0581  0.0127 -0.0170
29819ION     NA48023   1.759   5.134  13.639 -0.2685  0.0346 -0.0538
29820ION     NA48024   5.770   4.977   6.113 -0.0155 -0.2439  0.1934
29821ION     NA48025   4.846   2.566   3.546  0.1057 -0.1898 -0.0143
29822ION     NA48026   6.675  11.987  11.452 -0.1140 -0.1246 -0.1803
29823ION     NA48027  10.305   5.938  11.389  0.0889 -0.0734 -0.1637
29824ION     NA48028   8.592  13.287   6.187  0.3692 -0.0943  0.0584
29825ION     NA48029   5.062  15.127  11.446 -0.2364 -0.1351 -0.0069
29826ION     NA48030   9.612  11.954   3.508  0.2200  0.0709  0.2412
29827ION     NA48031   4.579  14.162  11.735 -0.2040 -0.2170 -0.1140
29828ION     NA48032  11.892  13.561  11.506 -0.0521  0.1754  0.1651
29829ION     NA48033   4.817   7.162   5.907  0.0266  0.0136 -0.1295
29830ION     NA48034  14.749  10.832  17.141 -0.1850 -0.0174  0.2740
29831ION     NA48035   0.259  15.816  11.682 -0.0008 -0.3529  0.0856
29832ION     NA48036   6.506   1.685  12.119  0.1361 -0.2996  0.2533
29833ION     NA48037  11.214  10.130  11.492 -0.0183 -0.0224  0.5167
29834ION     NA48038   6.750  12.715   6.080  0.1359  0.1410 -0.2586
29835ION     NA48039  15.034   9.315  14.017  0.3016  0.0023 -0.0273
29836ION     NA48040   6.244  16.772   6.165  0.1787  0.3446 -0.1285
29837ION     NA48041   3.274   1.009  15.183 -0.1291  0.0424  0.1122
29838ION     NA48042  11.940   4.291  15.047  0.0712 -0.2800 -0.0995
29839ION     NA48043  15.161  13.299   5.653  0.1048  0.1452  0.0105
29840ION     NA48044   4.333  13.794  16.458 -0.0950  0.1930 -0.1350
29841ION     NA48045  15.529   1.274   6.021  0.2899 -0.0312 -0.0797
29842ION     NA48046  16.985   8.759  11.473 -0.1050 -0.2020  0.2301
29843ION     NA48047  16.275   9.703   6.315 -0.0918 -0.0049 -0.3648
29844ION     NA48048  16.387   5.599  11.326  0.0971  0.2098 -0.1580
29845ION     NA48049   1.297  15.881   2.364  0.1882  0.1912  0.0788
29846ION     NA48050   1.664  13.826   6.141  0.3473  0.2761 -0.0363
29847ION     NA48051   3.151  11.896  11.674 -0.0584 -0.3382  0.0057
29848ION     NA48052  12.644  12.667  16.844  0.2444 -0.0081  0.1188
29849ION     NA48053  14.201  15.462  11.859 -0.4277  0.0716 -0.2820
29850ION     NA48054  11.306   6.248  17.275 -0.3999 -0.1598  0.1482
29851ION     NA48055   2.123  11.309   6.107 -0.2240  0.0489  0.3066
29852ION     NA48056   3.603   8.641   3.377 -0.1371 -0.0195  0.0264
29853ION     NA48057   5.635   5.607  11.730  0.1533  0.1519  0.1417
29854ION     NA48058   2.091  12.987   6.537 -0.1446 -0.2389  0.0487
29855ION     NA48059  15.054  10.795  14.344  0.2236  0.1960  0.0412
29856ION     NA48060  14.765   3.919   6.099 -0.2846 -0.1640  0.1007
29857ION     NA48061   8.830   6.246   6.423 -0.1534 -0.2769  0.2569
29858ION     NA48062  10.645   7.428  15.581 -0.0077 -0.0326 -0.2911
29859ION     NA48063  12.499   1.136   3.428  0.1168 -0.1674  0.0686
29860ION     NA48064   5.009   5.102  16.297 -0.0164 -0.0856  0.3206
29861ION     NA48065  11.996  15.695  11.428  0.1614  0.2153  0.0864
29862ION     NA48066   6.333   8.309   6.374 -0.2340  0.1105 -0.3309
29863ION     NA48067   3.666  15.358  11.805  0.1293  0.0579  0.0548
29864ION     NA48068   1.924  14.925  12.718  0.0582  0.2353 -0.0620
29865ION     NA48069  14.557   8.422   4.703 -0.0207  0.0462 -0.0692
29866ION     NA48070  15.165  13.217   6.467 -0.0754  0.1345 -0.4774
29867ION     NA48071  11.898   7.034   6.122  0.0028  0.0380  0.2956
29868ION     NA48072   2.800   4.364   5.810  0.2025 -0.1677  0.0257
29869ION     NA48073   5.001   0.741   6.111 -0.0868  0.0017  0.1290
29870ION     NA48074   7.964   9.878  11.361 -0.1121 -0.1075 -0.1263
29871ION     NA48075   0.507  16.848   1.194 -0.1496 -0.3385  0.0486
29872ION     NA48076   7.696   0.244  11.411  0.0666  0.1769  0.0362
29873ION     NA48077   0.457   2.562   6.423 -0.0655 -0.0481  0.4400
29874ION     NA48078   7.331   5.361  11.940 -0.1278  0.1663 -0.1012
29875ION     NA48079  12.221  12.899   6.386 -0.0914 -0.2730  0.0994
29876ION     NA48080   8.508   0.269   6.174  0.0596  0.2253 -0.0399
29877ION     NA48081   2.089   1.887  11.384 -0.1379 -0.1693 -0.2570
29878ION     NA48082  13.663  15.432  11.857 -0.0006 -0.0582 -0.5241
29879ION     NA48083  11.973  13.016  12.972  0.2757  0.1212 -0.1420
29880ION     NA48084   8.703  12.370   4.720 -0.2635 -0.2924  0.1498
29881ION     NA48085   6.619   2.543   2.477 -0.0931 -0.0749 -0.2004
29882ION     NA48086   5.811   9.181   1.967  0.2034  0.2970  0.1661
29883ION     NA48087  14.158  10.404  11.142  0.2093 -0.3791  0.0238
29884ION     NA48088  13.745  10.945  13.268 -0.2965 -0.0581  0.3618
29885ION     NA48089   9.240  12.512   6.279 -0.2124  0.1572 -0.2722
29886ION     NA48090   4.036   2.255  11.571  0.1244  0.1616 -0.0326
29887ION     NA48091   7.899  17.029   6.130  0.0933 -0.1960  0.0318
29888ION     NA48092   3.934   7.727  11.296  0.1059  0.2240 -0.0616
29889ION     NA48093  14.613  13.742   6.272 -0.1938  0.3251  0.4476
29890ION     NA48094  13.222  11.436   6.404  0.1658 -0.0368  0.0597
29891ION     NA48095   6.831   3.328  11.484  0.0131 -0.1293  0.0478
29892ION     NA48096   1.374   1.198   6.273 -0.2663  0.1607 -0.0388
29893ION     NA48097  16.421   0.229   5.428 -0.0599  0.4901 -0.0611
29894ION     NA48098  11.780   7.681  17.023  0.2959 -0.0736 -0.0042
29895ION     NA48099   7.748   6.522   6.359 -0.0652  0.0844  0.1942
29896ION     NA48100   0.315  15.329   1.039 -0.3887 -0.1552  0.0447
29897ION     NA48101   0.986  11.606   6.416 -0.1606 -0.1599 -0.1714
29898ION     NA48102  12.262   5.383   5.928 -0.1263 -0.1813 -0.0045
29899ION     NA48103  13.166  12.921   1.723  0.0329  0.2320  0.1320
29900ION     NA48104   6.556   5.881   1.398  0.0431 -0.0143  0.3751
29901ION     NA48105   3.840  13.196  15.201  0.1985  0.0137 -0.2341
29902ION     NA48106  15.784  15.249   6.130  0.1831  0.5409 -0.3236
29903ION     NA48107   7.408  16.198   6.221 -0.2233 -0.2924  0.0725
29904ION     NA48108  10.795   2.196  11.547  0.0361  0.1554  0.3698
29905ION     NA48109  12.179   0.391   6.199 -0.0682  0.1558  0.2186
29906ION     NA48110   7.109   8.470  11.704  0.1277 -0.0153  0.0676
29907ION     NA48111   6.157   7.533   6.246  0.3535  0.0736 -0.2086
29908ION     NA48112   4.024   0.371  16.372  0.2207 -0.1957 -0.0182
29909ION     NA48113  12.082  11.902  11.962  0.0030  0.1227 -0.0981
29910ION     NA48114  13.542   2.245  11.140 -0.0929 -0.1014 -0.0594
29911ION     NA48115   4.226   8.424  11.408 -0.5376  0.2122  0.0921
29912ION     NA48116   6.223   5.190   5.854  0.2674 -0.0176 -0.0229
29913ION     NA48117   4.530   1.406   3.172  0.2167  0.0898  0.1210
29914ION     NA48118  16.444   3.675  14.011  0.2497  0.4095  0.3016
29915ION     NA48119  11.992   9.977  11.526 -0.1375  0.2033  0.1868
29916ION     NA48120  16.675  13.606  11.637 -0.1918 -0.2297  0.2155
29917ION     NA48121   1.551  15.164   3.166 -0.0618 -0.0340  0.1589
29918ION     NA48122   3.181   1.378  11.462  0.3287  0.2052 -0.3368
29919ION     NA48123   5.530  11.520  11.357 -0.0416 -0.2389  0.0686
29920ION     NA48124  12.250   9.786   6.247 -0.0257  0.3906 -0.0883
29921ION     NA48125   0.386   0.697  11.271 -0.3209 -0.0354  0.0208
29922ION     NA48126   9.924   2.636   6.483 -0.2810  0.0041 -0.0356
29923ION     NA48127  12.471  13.344   6.310  0.0125  0.0497 -0.3550
29924ION     NA48128   8.700   6.980  11.644 -0.3139  0.1873 -0.2165
29925ION     NA48129  12.605  11.167  11.497  0.0604 -0.0484 -0.2762
29926ION     NA48130   1.967   8.938   6.287 -0.1594  0.1844 -0.4559
29927ION     NA48131  10.635  15.936  15.735 -0.0940 -0.1021  0.1098
29928ION     NA48132  11.324   9.654  15.269 -0.0393 -0.2910 -0.0965
29929ION     NA48133   6.583  10.841  15.582 -0.0134 -0.2195 -0.0809
29930ION     NA48134  12.199   6.142   6.532  0.0763 -0.0714  0.1490
29931ION     NA48135  15.872  13.208  11.750  0.0545 -0.1452  0.0100
29932ION     NA48136   1.149  16.372   6.098  0.0843 -0.2291 -0.0423
29933ION     NA48137   1.650  13.577  13.742 -0.1026 -0.1654  0.2681
29934ION     NA48138   9.018   8.419   6.343 -0.0089  0.1761  0.4119
29935ION     NA48139  17.267   6.555   0.786  0.0483  0.0480 -0.1464
29936ION     NA48140  15.162  11.730  11.617  0.2859 -0.5113 -0.2411
29937ION     NA48141   5.838   0.637   6.035 -0.1196  0.0391 -0.2855
29938ION     NA48142   8.787  16.842   5.929  0.4267  0.0060  0.1710
29939ION     NA48143   3.136  14.684   6.358 -0.3635 -0.0373 -0.1178
29940ION     NA48144  11.642   4.506   6.734  0.2472 -0.1901  0.1660
29941ION     NA48145   1.197   3.372  15.020 -0.0205  0.1475  0.0915
29942ION     NA48146   9.505  15.206  11.170  0.0783  0.2360 -0.1422
29943ION     NA48147  17.081  11.797  16.455 -0.0316  0.1071 -0.0408
29944ION     NA48148   1.872  16.626   2.394  0.0754  0.0938 -0.0515
29945ION     NA48149  10.412  12.619  16.250  0.2280  0.1410 -0.1578
29946ION     NA48150   6.382   7.230  11.290  0.0351  0.0477 -0.0834
29947ION     NA48151   4.759  10.801   5.964  0.0019  0.1219 -0.2843
29948ION     NA48152  15.665   7.371   5.987  0.1256 -0.3063  0.1032
29949ION     NA48153   1.296   2.674   6.007 -0.0405 -0.0416 -0.0390
29950ION     NA48154  16.498   8.891   2.275 -0.2215  0.0135 -0.0652
29951ION     NA48155   8.930  12.779  13.808  0.1732  0.1259  0.1250
29952ION     NA48156  10.821  10.629  11.389  0.3347  0.3239 -0.1979
29953ION     NA48157  14.199  13.971   0.582 -0.1640 -0.0207 -0.0234
29954ION     NA48158   0.601  11.329   6.423  0.1308 -0.2656 -0.1639
29955ION     NA48159   4.509  14.841   1.034 -0.1000  0.1150 -0.3460
29956ION     NA48160   1.658  10.075  11.649  0.0653  0.1626  0.0960
29957ION     NA48161   1.081   1.894   6.318  0.2262 -0.0886  0.0176
29958ION     NA48162   9.496   6.829  12.612 -0.2540  0.1133 -0.3389
29959ION     NA48163   6.562   2.729   6.271 -0.2046 -0.0213 -0.2228
29960ION     NA48164   1.121  16.869  11.535  0.3205 -0.0795  0.4778
29961ION     NA48165   6.383  11.084  11.625  0.0568  0.2539 -0.0701
29962ION     NA48166   4.120   0.485   2.992  0.2160 -0.1282 -0.3523
29963ION     NA48167   3.652  16.439  13.514  0.2538 -0.2498 -0.0911
29964ION     NA48168  17.291  13.945   0.071  0.4207  0.1503  0.1442
29965ION     NA48169  15.358  14.138  11.739  0.1849 -0.0442 -0.0870
29966ION     NA48170  16.305   6.328  11.357  0.1009  0.0417 -0.0254
29967ION     NA48171  12.208   1.589  17.497 -0.0772 -0.0144  0.2033
29968ION     NA48172  10.496  13.545   6.187 -0.1594  0.1022  0.1871
29969ION     NA48173  15.632   0.339   6.137  0.2582  0.1143  0.2533
29970ION     NA48174   5.613  14.832   6.388  0.0200  0.0676 -0.0119
29971ION     NA48175   7.186  12.548  12.697  0.0914 -0.1080  0.0776
29972ION     NA48176   4.309  16.871  14.214  0.0126 -0.1788 -0.1351
29973ION     NA48177  11.443  13.295   6.343 -0.1807  0.0962  0.0526
29974ION     NA48178  16.349   9.962  16.223  0.1678 -0.1200  0.0840
29975ION     NA48179   6.641  13.303  13.853 -0.2987  0.4195 -0.1261
29976ION     NA48180   7.146   9.687   6.006 -0.0177  0.2574  0.1776
29977ION     NA48181   8.039  13.593  16.351 -0.0830  0.2479 -0.3973
29978ION     NA48182  15.379   8.085  11.688  0.1721 -0.0785 -0.0909
29979ION     NA48183  13.633  12.386   6.223  0.0400 -0.0501 -0.1099
29980ION     NA48184   3.366   8.110  11.177  0.4600  0.2717  0.2145
29981ION     NA48185  17.145   7.815  11.310  0.0810 -0.4339 -0.2836
29982ION     NA48186   9.328   1.235   5.823  0.2769  0.1248  0.4930
29983ION     NA48187   4.863   9.796  11.190 -0.0238 -0.1782 -0.0503
29984ION     NA48188  11.768  11.869  15.536 -0.1402 -0.3725 -0.1519
29985ION     NA48189  10.038   9.339  11.338 -0.2074  0.3554  0.0156
29986ION     NA48190  12.821   9.739   6.179  0.0454 -0.0910  0.3306
29987ION     NA48191   8.183  16.730  11.479  0.3290 -0.3995 -0.0776
29988ION     NA48192  17.244  11.994   6.488 -0.0221  0.0983  0.3070
29989ION     NA48193   9.767  12.134  11.231  0.0008  0.1978 -0.0583
29990ION     NA48194   8.693  14.995  11.486 -0.2701  0.1556  0.1055
29991ION     NA48195   7.487   1.557  11.429 -0.0235 -0.4418  0.0957
29992ION     NA48196   0.169   5.475   2.073  0.2372 -0.2658  0.4195
29993ION     NA48197  12.933  12.732  11.487  0.2836 -0.1900 -0.1839
29994ION     NA48198   5.619  15.658  11.550 -0.0501  0.0944 -0.0435
29995ION     NA48199   7.373   2.497  11.513  0.0166 -0.0701 -0.1137
29996ION     NA48200  16.952   4.994  11.404 -0.2052  0.0750  0.0939
29997ION     NA48201   1.549   9.850   6.315 -0.1336 -0.1289 -0.0297
29998ION     NA48202  13.672  16.856   5.078 -0.1214 -0.1335  0.0064
29999ION     NA48203   6.097  11.107   6.195 -0.0785  0.2282 -0.0527
30000ION     NA48204  11.333   0.016  11.599 -0.0489 -0.0921 -0.1710
30001ION     NA48205   1.328  13.475   6.397  0.1501  0.0293 -0.1725
30002ION     NA48206  11.286   6.058  11.341  0.3462 -0.2367  0.0811
30003ION     NA48207   4.537  17.215   2.229  0.2369  0.0871  0.1719
30004ION     NA48208   4.367  12.567   6.284  0.1372 -0.1238  0.0160
30005ION     NA48209   0.604  14.085  11.597  0.2923  0.1565  0.1122
30006ION     NA48210   9.008   4.226   6.303 -0.2860 -0.1168  0.0050
30007ION     NA48211  10.807   9.712  11.464 -0.4380 -0.0970 -0.1703
30008ION     NA48212   4.051  16.455  11.574  0.3709 -0.3148  0.0987
30009ION     NA48213   6.281  13.940  11.560 -0.2719  0.2070 -0.0911
30010ION     NA48214   4.140  13.477   6.147 -0.0175 -0.1399  0.0913
30011ION     NA48215  10.476  15.297  17.516 -0.0923 -0.0969 -0.0051
30012ION     NA48216  16.889   2.531  10.849  0.1045  0.1783 -0.0468
30013ION     NA48217   2.733  14.471  11.572  0.0381  0.0913 -0.0968
30014ION     NA48218  13.011   6.518  11.247 -0.1676  0.0715 -0.2298
30015ION     NA48219   8.934   2.064   1.375 -0.2181 -0.1813  0.0976
30016ION     NA48220  14.906  15.186  11.714  0.0446 -0.1340 -0.1635
30017ION     NA48221  16.174   2.035   6.221  0.2843 -0.0088 -0.0320
30018ION     NA48222  12.993   1.620  11.286 -0.0096  0.0165  0.2285
30019ION     NA48223   9.807  12.902  11.333  0.1681 -0.0560 -0.2140
30020ION     NA48224   4.974  13.308  11.167 -0.0352 -0.1803  0.0676
30021ION     NA48225   1.060  16.080  14.853 -0.1389  0.5349 -0.1341
30022ION     NA48226  11.511   5.547  11.216  0.0537  0.0332 -0.2117
30023ION     NA48227  16.721  16.868   5.945  0.0896  0.0074  0.1304
30024ION     NA48228  13.675  15.656   6.340 -0.0949 -0.2328  0.0567
30025ION     NA48229  10.934  12.860   6.163 -0.0176  0.2856 -0.1400
30026ION     NA48230  10.008   8.715   6.127  0.0706  0.1866 -0.2578
30027ION     NA48231   3.244   3.374  12.326 -0.1021  0.1067 -0.2674
30028ION     NA48232   9.616   0.763  11.404 -0.0005  0.2012 -0.0766
30029ION     NA48233  14.797   8.524   5.989 -0.0046  0.3955 -0.0761
30030ION     NA48234  11.927  11.746   1.230 -0.3477  0.1123 -0.0893
30031ION     NA48235   2.022   7.351  15.962 -0.1564 -0.1828  0.0261
30032ION     NA48236   3.471  15.383   2.423 -0.2104 -0.0080  0.0259
30033ION     NA48237  12.739   8.262  11.542  0.0982  0.2976 -0.0076
30034ION     NA48238   7.287   4.565   6.064 -0.2597 -0.3440 -0.0362
30035ION     NA48239  12.079  16.160  17.477  0.1668  0.0777  0.1097
30036ION     NA48240  11.747   4.175  11.232 -0.3414  0.0446 -0.0164
30037ION     NA48241  12.049   1.686   6.270  0.0526  0.0570 -0.0508
30038ION     NA48242   9.274   9.752  11.253  0.1711  0.1587  0.2063
30039ION     NA48243   7.121   4.492  11.291 -0.0808 -0.0382  0.1450
30040ION     NA48244   9.992  10.216  11.479 -0.1336 -0.2336 -0.1007
30041ION     NA48245  16.122  10.763  12.263  0.0283 -0.1825  0.0158
30042ION     NA48246  12.432   9.142  11.554  0.1198 -0.1145  0.0429
30043ION     NA48247   2.179   6.985   6.108  0.0750  0.0249 -0.0904
30044ION     NA48248   0.535   2.079   6.151  0.2062 -0.2454 -0.3012
30045ION     NA48249   7.028  14.426  11.648  0.0511 -0.0568  0.0075
30046ION     NA48250  12.256   4.875  11.318  0.0764 -0.1713 -0.0218
30047ION     NA48251   5.900  12.289  11.636  0.2314  0.1302  0.0284
30048ION     NA48252   2.857   5.558  11.236  0.3320 -0.4509 -0.0011
30049ION     NA48253  10.259   7.728   6.096 -0.1881  0.2568 -0.2369
30050ION     NA48254   3.100   9.389   5.950  0.1905 -0.1606  0.0111
30051ION     NA48255  16.552   2.307  11.298 -0.1286  0.2918  0.0943
30052ION     NA48256  11.598   6.332   6.688  0.0541 -0.0339  0.2590
30053ION     NA48257   3.251   3.883   1.962 -0.1567 -0.4003 -0.2309
30054ION     NA48258   8.917   1.077   0.090 -0.0330 -0.1568 -0.1100
30055ION     NA48259   1.714  16.730  13.391  0.0103 -0.1570  0.3957
30056ION     NA48260   5.407   7.803   0.120 -0.1450 -0.2226 -0.1847
30057ION     NA48261   1.420   4.061   6.264  0.0856  0.1400 -0.0437
30058ION     NA48262   7.342  16.051  13.738  0.0689  0.0572  0.0774
30059ION     NA48263  13.969   1.778  17.375  0.0936  0.1353 -0.1948
30060ION     NA48264  16.343   1.579   6.337  0.2542  0.0067  0.1709
30061ION     NA48265  16.808   4.237  16.050  0.0428 -0.2064 -0.0177
30062ION     NA48266   9.317   7.508   6.220  0.3281 -0.2284  0.0330
30063ION     NA48267   5.332  12.491   6.209 -0.1355  0.1379  0.1195
30064ION     NA48268  15.554   6.278   3.104 -0.3030  0.3849  0.1006
30065ION     NA48269  16.010   1.051   3.766  0.0365 -0.2475  0.3017
30066ION     NA48270  13.542   1.334   6.306 -0.2429  0.1187  0.2897
30067ION     NA48271  12.290  10.044  16.997 -0.0335  0.0784  0.0271
30068ION     NA48272  14.654  15.958   6.424 -0.2093  0.0488 -0.0242
30069ION     NA48273  12.595   8.859   6.234  0.2926  0.0051 -0.1853
30070ION     NA48274   5.970   2.401   5.600  0.2793  0.0396  0.0077
30071ION     NA48275   7.906   5.058   3.910  0.1112 -0.1600 -0.2360
30072ION     NA48276   4.081   6.646   6.045 -0.0563 -0.3231 -0.0462
30073ION     NA48277  15.124   0.841  11.720  0.2135  0.0698  0.0489
30074ION     NA48278   7.775  13.815   0.287 -0.1491  0.2072 -0.0323
30075ION     NA48279  10.544  15.189  11.493 -0.2334 -0.0429  0.2373
30076ION     NA48280  11.560   0.253   6.340  0.2092  0.1495  0.0488
30077ION     NA48281  12.135  15.681   6.426  0.0754 -0.0098  0.0980
30078ION     NA48282   1.526   5.487   6.151 -0.2402  0.0994  0.1724
30079ION     NA48283   8.618   0.306  11.516  0.0314  0.0110  0.3728
30080ION     NA48284  16.134  10.621   6.527  0.0834  0.0090 -0.2305
30081ION     NA48285  12.862   2.223   6.167 -0.1982  0.0936  0.0004
30082ION     NA48286  11.111   1.362  11.695 -0.0747 -0.0857  0.0147
30083ION     NA48287  16.373  11.470  11.792 -0.0606  0.1032  0.2165
30084ION     NA48288   5.644   8.096  15.752  0.1314  0.1521  0.1733
30085ION     NA48289   7.793   3.674   2.449 -0.3275  0.0461 -0.0681
30086ION     NA48290  16.014   2.678  11.946 -0.3016 -0.1484 -0.3806
30087ION     NA48291  13.649  13.803  12.493  0.0384 -0.0954  0.2278
30088ION     NA48292   3.920   8.870   5.934  0.0513  0.2442 -0.1029
30089ION     NA48293   2.018  15.861   5.995 -0.1225 -0.1680  0.0145
30090ION     NA48294   9.607   9.571   3.381  0.2444  0.1122 -0.2363
30091ION     NA48295   0.223   3.626  11.201 -0.0328  0.1941  0.2081
30092ION     NA48296   8.659   2.922   3.211 -0.0738  0.0939  0.1307
30093ION     NA48297  12.211   6.862  11.308  0.1021  0.0913 -0.1160
30094ION     NA48298   6.772   5.734   0.637 -0.3131 -0.0066 -0.1868
30095ION     NA48299   6.779  11.794  11.969  0.1056  0.0153  0.0985
30096ION     NA48300  10.045  12.879   6.107 -0.0108  0.1682 -0.0096
30097ION     NA48301   5.969   3.542  11.542  0.2797 -0.1363 -0.0189
30098ION     NA48302   3.432   9.157  15.606  0.1703 -0.1390 -0.2581
30099ION     NA48303   8.994  12.373  11.305  0.2384  0.1189  0.2026
30100ION     NA48304   5.785   3.625   5.982  0.2448 -0.0117  0.0222
30101ION     NA48305   4.924  13.315   5.926  0.0745  0.0414  0.3354
30102ION     NA48306  11.809   7.397   3.293 -0.1084 -0.1478 -0.0101
30103ION     NA48307   9.832   2.388  16.068  0.1446  0.0358  0.0027
30104ION     NA48308   0.077  11.126  11.716 -0.0050  0.0929 -0.3889
30105ION     NA48309   5.713   0.164   5.951 -0.0652  0.0110  0.2911
30106ION     NA48310  10.534  11.510  12.383 -0.3499  0.0335 -0.0417
30107ION     NA48311  14.215  11.586  11.455 -0.2473  0.1576  0.2333
30108ION     NA48312   8.649   3.451  11.573 -0.4768  0.2898  0.0981
30109ION     NA48313  12.296   0.405  11.723  0.0426  0.0295 -0.0628
30110ION     NA48314   4.184  12.861  16.380  0.1372 -0.1859 -0.0673
30111ION     NA48315   1.922   6.702  11.480  0.0867 -0.2182 -0.1273
30112ION     NA48316   8.368  15.853  11.475 -0.3437 -0.1884  0.1922
30113ION     NA48317   7.093   6.323   5.966 -0.1255 -0.1557 -0.2267
30114ION     NA48318   2.673  15.466  11.521  0.0592 -0.1545 -0.3623
30115ION     NA48319   0.482   8.355  11.515 -0.1594  0.0931  0.1856
30116ION     NA48320   9.127   2.100   6.234 -0.1609 -0.0625 -0.1144
30117ION     NA48321   5.415  16.723  11.445  0.4541  0.0178  0.1707
30118ION     NA48322   6.571  10.029  11.503 -0.1848 -0.0091  0.2160
30119ION     NA48323  16.883   5.341   5.627  0.1208  0.3366 -0.2243
30120ION     NA48324   8.853   5.175   6.612 -0.1099 -0.4704  0.2797
30121ION     NA48325   4.105   1.271  11.471  0.0023  0.1677 -0.1591
30122ION     NA48326  11.317  14.170   6.533  0.0535  0.0341 -0.1555
30123ION     NA48327   1.163   2.079  11.382 -0.0344  0.0400 -0.2425
30124ION     NA48328  13.207  13.167   6.370  0.1253  0.0544  0.0816
30125ION     NA48329   2.961   3.710  13.517  0.2764  0.0245 -0.1736
30126ION     NA48330   1.019   4.449   5.521  0.1772  0.3308  0.1691
30127ION     NA48331   9.662  13.135   1.403  0.0743 -0.0034 -0.0189
30128ION     NA48332  12.257  15.218  13.220  0.2094 -0.1807  0.0496
30129ION     NA48333   8.968  15.960  15.963  0.1881 -0.0835  0.0939
30130ION     NA48334   2.373   5.374  11.205  0.1088  0.0797 -0.0725
30131ION     NA48335   6.738  11.639   5.986 -0.0241 -0.0888 -0.2773
30132ION     NA48336   5.967  13.320   6.243  0.3168 -0.0505  0.1353
30133ION     NA48337   0.051  15.471  15.551  0.2518 -0.1280 -0.0155
30134ION     NA48338  15.444   5.697  11.167 -0.3214 -0.1331  0.2217
30135ION     NA48339  10.685  11.166   6.165  0.1089 -0.0599 -0.1097
30136ION     NA48340   5.317   0.980  16.632 -0.0035  0.0208 -0.1482
30137ION     NA48341   7.504   1.633   6.121  0.1498 -0.0166 -0.0665
30138ION     NA48342   3.937   7.183   5.925 -0.2112  0.0119  0.0358
30139ION     NA48343   9.928  11.366   5.965  0.1029 -0.0305 -0.1306
30140ION     NA48344   0.735   7.384  11.348  0.3506  0.1439 -0.0195
30141ION     NA48345  10.321  12.940  11.443  0.2284 -0.0133 -0.1034
30142ION     NA48346   5.251   6.667   2.980  0.0428 -0.1879  0.0379
30143ION     NA48347   9.427   4.769   2.408 -0.1067 -0.0232 -0.0488
30144ION     NA48348   4.205  15.152   2.450 -0.3593  0.4536 -0.2246
30145ION     NA48349   0.573   0.997   2.474 -0.0673 -0.0712 -0.1111
30146ION     NA48350   0.308   8.681   6.184 -0.0848 -0.0978 -0.1787
30147ION     NA48351   7.182   8.761   6.180  0.0422 -0.0196  0.0889
30148ION     NA48352  10.174   5.090  11.380  0.0820 -0.2794  0.3253
30149ION     NA48353   7.939  14.710  16.874 -0.3766  0.1129 -0.0959
30150ION     NA48354   8.530   4.751  12.246  0.1865 -0.0295  0.2087
30151ION     NA48355   5.862   8.785  14.392  0.0093  0.2543 -0.0119
30152ION     NA48356  11.186  15.892  11.569 -0.0283 -0.1548 -0.0591
30153ION     NA48357  11.714   8.706  16.040 -0.2776  0.0199 -0.2721
30154ION     NA48358   9.751   4.169  16.760  0.3437  0.3089 -0.0087
30155ION     NA48359   7.734   3.296  11.533  0.1642 -0.1216 -0.0209
30156ION     NA48360  13.567   3.056  11.082 -0.1699 -0.0290 -0.1384
30157ION     NA48361  15.962  16.544   6.159 -0.0971  0.0110 -0.1146
30158ION     NA48362   1.705   7.674  11.443  0.0700 -0.0439 -0.2517
30159ION     NA48363   2.377  17.217  17.206  0.0818 -0.0438 -0.0634
30160ION     NA48364  16.731   5.993   6.124  0.0214  0.0215  0.0744
30161ION     NA48365   7.928  15.200  15.276  0.2170 -0.4756 -0.2493
30162ION     NA48366   3.009  14.710  12.660  0.0533 -0.3206  0.1873
30163ION     NA48367  15.177  11.452   6.215 -0.2112 -0.1195 -0.0706
30164ION     NA48368  13.544  13.937  11.563  0.1437 -0.1859 -0.2979
30165ION     NA48369   1.257  10.771   6.301 -0.1745  0.1424  0.1802
30166ION     NA48370  14.712   1.734  11.849 -0.2108 -0.0891  0.0982
30167ION     NA48371   9.201   0.477  11.402  0.0147 -0.1365 -0.0485
30168ION     NA48372   3.830  10.502   6.010  0.1992  0.3606 -0.3416
30169ION     NA48373   3.058   6.919   6.058  0.6170  0.1534 -0.3784
30170ION     NA48374  16.645   3.409  11.134 -0.1539  0.2907  0.0507
30171ION     NA48375  15.690   6.376  11.264 -0.0382 -0.1131 -0.1385
30172ION     NA48376   6.865  11.486  13.591 -0.1593  0.0517  0.1695
30173ION     NA48377  15.651  16.210  12.212  0.0880  0.3624  0.0016
30174ION     NA48378   2.528   4.571  11.314 -0.4167  0.1779  0.0201
30175ION     NA48379  16.813  10.300  11.809 -0.0578 -0.0049  0.0785
30176ION     NA48380  16.323   3.066   0.228 -0.2495  0.0396 -0.2492
30177ION     NA48381  14.454  17.041   6.323  0.0191  0.0155 -0.1905
30178ION     NA48382  16.528   8.775   6.291  0.1844 -0.0374 -0.0531
30179ION     NA48383  10.278   1.403  16.419 -0.2521  0.3713 -0.1912
30180ION     NA48384   8.661   9.132  11.229  0.1354  0.3012 -0.0862
30181ION     NA48385  14.447   7.252   6.188  0.0565 -0.0198  0.1214
30182ION     NA48386  15.995  14.970  11.618  0.0910 -0.1623 -0.0506
30183ION     NA48387  12.650   3.594   6.515 -0.1324 -0.2688  0.0471
30184ION     NA48388   4.474   1.048   6.136  0.0047  0.0861 -0.0543
30185ION     NA48389  17.184   8.644  13.244  0.1205 -0.2442  0.1202
30186ION     NA48390   4.540   3.970  11.201 -0.1562  0.2458 -0.1195
30187ION     NA48391  11.356   9.750   6.348  0.2283 -0.0023 -0.0314
30188ION     NA48392   5.539   2.161   6.141  0.2038  0.1327  0.2521
30189ION     NA48393   7.546   6.676   3.152 -0.3131 -0.0896  0.2261
30190ION     NA48394   3.059   2.262  11.357 -0.1375  0.0843 -0.0328
30191ION     NA48395   0.343  11.862  11.863  0.0699 -0.0117 -0.1298
30192ION     NA48396   8.145  11.605   6.119  0.3051  0.1308  0.2273
30193ION     NA48397  12.903  14.912   6.193 -0.1558  0.2687 -0.0103
30194ION     NA48398   6.557  17.171  15.624 -0.3408 -0.3273  0.1433
30195ION     NA48399   0.651  13.197  11.757  0.3110  0.1258  0.0937
30196ION     NA48400   2.281   7.347  12.489  0.1029 -0.1145 -0.0536
30197ION     NA48401   5.399  17.191  11.431 -0.3053 -0.3616  0.1513
30198ION     NA48402  14.756   7.433  11.568  0.0536 -0.2600 -0.3202
30199ION     NA48403   5.266  14.344   5.014 -0.1739  0.2427 -0.0667
30200ION     NA48404   7.316   4.141  16.043  0.0359 -0.3900  0.0709
30201ION     NA48405   7.235   9.410  15.375 -0.1124 -0.1966  0.0715
30202ION     NA48406   4.865  12.342  16.808 -0.5077 -0.1361  0.0221
30203ION     NA48407   3.949   0.221   6.083 -0.1801 -0.1762 -0.2356
30204ION     NA48408  12.118  16.759   6.289 -0.2399  0.2455  0.1007
30205ION     NA48409   2.534   3.142   6.131  0.0079 -0.2547 -0.2080
30206ION     NA48410  12.214  16.839  11.545  0.0587 -0.0529  0.3302
30207ION     NA48411  10.647   2.410   6.340  0.0520  0.1028  0.3404
30208ION     NA48412  16.191   8.060  11.456 -0.0033  0.5225  0.0729
30209ION     NA48413   1.854   2.455  11.350  0.1425  0.0649  0.0952
30210ION     NA48414  10.657  14.445   0.179 -0.0378 -0.1551 -0.3420
30211ION     NA48415   7.260  13.914   6.176  0.1128 -0.2674 -0.0712
30212ION     NA48416  10.652  14.944  14.654  0.0451  0.1303  0.0748
30213ION     NA48417   9.679   4.244  11.221 -0.1070 -0.0895 -0.1407
30214ION     NA48418   7.377   9.107   4.743  0.0653  0.3426 -0.0613
30215ION     NA48419   5.242   1.646  14.025  0.0401 -0.0287 -0.1693
30216ION     NA48420   8.424  16.505  13.822 -0.0221  0.1121  0.1004
30217ION     NA48421  14.777   8.191  13.149  0.1465  0.0996  0.2557
30218ION     NA48422   6.639   0.394   6.088 -0.2393  0.1275 -0.1483
30219ION     NA48423   6.439   3.245  15.630  0.0503  0.1769 -0.2058
30220ION     NA48424   8.607   3.813   6.471  0.0071  0.1698 -0.0670
30221ION     NA48425   4.260   5.806   5.881 -0.2102  0.0967  0.0249
30222ION     NA48426  12.119   7.644  11.614 -0.0721  0.1855  0.1396
30223ION     NA48427  11.592   9.047  12.839 -0.3970 -0.1623 -0.3311
30224ION     NA48428   7.047  11.302   6.154 -0.0626  0.4597 -0.5183
30225ION     NA48429  10.571  12.020   6.204 -0.2181  0.2716  0.1578
30226ION     NA48430  15.830  11.579  11.641  0.2658 -0.0500  0.3861
30227ION     NA48431   8.154  14.094   1.596 -0.1974 -0.0873  0.2859
30228ION     NA48432   7.180  16.759  11.663 -0.3628 -0.3112 -0.0500
30229ION     NA48433  11.516   5.596   0.976 -0.2701  0.2932  0.3062
30230ION     NA48434   7.778  15.170  11.505 -0.3907 -0.2262 -0.1884
30231ION     NA48435   3.239   2.587   6.129 -0.4562  0.0214 -0.1611
30232ION     NA48436   7.056  12.942   3.104 -0.0336 -0.0407  0.1568
30233ION     NA48437  10.851   8.348   6.231 -0.1063  0.0415 -0.1883
30234ION     NA48438  12.592  15.842   2.906  0.1471 -0.0401  0.0007
30235ION     NA48439   2.968   3.519  11.574  0.1291  0.0692  0.0294
30236ION     NA48440   2.077  11.939  11.787  0.1699  0.0017  0.0181
30237ION     NA48441   1.159   6.859   6.058 -0.0999  0.2099  0.0710
30238ION     NA48442  17.321   0.421   6.091 -0.0221 -0.2931 -0.1529
30239ION     NA48443   2.189   0.511   5.967  0.0062 -0.0388  0.1315
30240ION     NA48444  13.798   4.916   6.400 -0.1042  0.1098 -0.0360
30241ION     NA48445   9.109  13.968   6.087  0.1825  0.2055  0.3325
30242ION     NA48446   6.211   8.950  12.110 -0.0201  0.0371 -0.1553
30243ION     NA48447  14.589   5.839   4.435  0.0248 -0.0859 -0.0843
30244ION     NA48448  10.804  16.582  11.410 -0.2133  0.0036 -0.1153
30245ION     NA48449   5.063   2.886   5.911  0.4384  0.1912 -0.0509
30246ION     NA48450   3.575  15.346   6.205  0.0294 -0.2641 -0.0683
30247ION     NA48451   3.901   3.748   5.969 -0.2658  0.0106  0.2397
30248ION     NA48452  17.174   1.854   6.147  0.1995  0.1446  0.1400
30249ION     NA48453   7.427  12.331   5.985  0.2827 -0.1825 -0.0429
30250ION     NA48454  11.739  16.544  11.656  0.0894 -0.2167 -0.0408
30251ION     NA48455  17.013  15.045   4.494 -0.0654  0.0148  0.0144
30252ION     NA48456   8.090   7.699  15.828  0.1862  0.2291 -0.1702
30253ION     NA48457   2.915   9.048  11.529 -0.0867 -0.1626 -0.0219
30254ION     NA48458   4.182  12.177  11.490 -0.1285 -0.1999  0.1408
30255ION     NA48459   2.365  13.040  15.220  0.0975 -0.1612 -0.2451
30256ION     NA48460  14.361  16.707  11.794  0.0829  0.0416 -0.1326
30257ION     NA48461  16.112  16.791  11.438  0.1159 -0.0322  0.0916
30258ION     NA48462  10.609   7.380  11.681 -0.2037  0.1106 -0.1645
30259ION     NA48463  11.431  16.133   6.160  0.1344 -0.1980  0.0090
30260ION     NA48464  10.216   1.307  11.893 -0.2093 -0.1359  0.5092
30261ION     NA48465   0.640  14.446  11.947  0.1968 -0.0987 -0.1091
30262ION     NA48466   3.384  13.796   6.279  0.1875  0.0634  0.0864
30263ION     NA48467   1.521   1.598  11.319  0.0390 -0.1139 -0.1219
30264ION     NA48468  15.297   2.527   6.258 -0.0409 -0.1597 -0.0789
30265ION     NA48469   7.999   4.902  11.377  0.0515  0.0215 -0.2423
30266ION     NA48470  14.536   9.878   6.365 -0.0293 -0.0798  0.0035
30267ION     NA48471   9.859  14.743  11.142  0.1224  0.1553 -0.2893
30268ION     NA48472  15.621   1.994  11.958  0.0991 -0.0444 -0.2217
30269ION     NA48473   9.305  16.765  14.131 -0.1561  0.1962 -0.2178
30270ION     NA48474  13.639  10.261   0.274  0.1549 -0.2202 -0.2005
30271ION     NA48475   1.188   6.442  11.229 -0.0990 -0.0835 -0.1701
30272ION     NA48476  13.971   3.170   1.620  0.1474  0.3888 -0.2641
30273ION     NA48477   0.209  16.702  11.411  0.0159 -0.1519  0.0319
30274ION     NA48478  11.076   4.690  11.330  0.0283  0.0885 -0.4138
30275ION     NA48479  15.771  16.079   6.041 -0.3591  0.2799 -0.1443
30276ION     NA48480  10.716  13.818  12.044 -0.0138 -0.1787  0.1264
30277ION     NA48481  13.662  15.006   6.347  0.1292  0.0362 -0.0648
30278ION     NA48482   7.629  15.437   6.269 -0.1201 -0.0588  0.1331
30279ION     NA48483  14.840   6.305   6.109 -0.2344 -0.2145  0.2437
30280ION     NA48484   9.831  16.856   5.590 -0.1115  0.0119  0.0374
30281ION     NA48485  15.590   8.795   6.129  0.1612 -0.0972 -0.1202
30282ION     NA48486  16.283  13.535   1.609 -0.1528 -0.1360  0.2859
30283ION     NA48487  11.671   7.924   6.444  0.2176  0.2127 -0.2759
30284ION     NA48488  13.259  10.692  11.375  0.0730  0.0562  0.2304
30285ION     NA48489   3.355   8.582  14.004 -0.1983  0.0692 -0.0279
30286ION     NA48490  14.695   5.050  11.155 -0.2427  0.1334 -0.1995
30287ION     NA48491   4.200   6.395  11.410 -0.1235  0.0889 -0.0803
30288ION     NA48492   2.512  10.472  11.975 -0.1461 -0.0880 -0.1616
30289ION     NA48493  12.799   4.573   6.470  0.0404  0.1872  0.0572
30290ION     NA48494   0.170   7.009   6.160  0.2581  0.0095  0.2508
30291ION     NA48495  16.018  15.814  11.594  0.1469 -0.1798  0.0826
30292ION     NA48496   4.632  15.286   6.189  0.0564 -0.0407  0.1954
30293ION     NA48497   4.061   6.808  11.099  0.0879 -0.0990  0.3184
30294ION     NA48498   9.758  14.844   1.292  0.0067  0.0639 -0.1265
30295ION     NA48499   6.840   0.870   6.016 -0.0927 -0.0267 -0.1962
30296ION     NA48500  14.986  12.832  12.605 -0.1134  0.1223  0.2357
30297ION     NA48501   4.659   9.688  14.006 -0.2570 -0.0538  0.1535
30298ION     NA48502  15.858   6.475   6.021  0.1841 -0.1111  0.1437
30299ION     NA48503  13.894  16.326   6.481  0.0438  0.1937  0.2507
30300ION     NA48504   2.554  16.948  11.645  0.0262 -0.1931  0.3349
30301ION     NA48505   7.014   6.821   6.179  0.1938  0.2551  0.1128
30302ION     NA48506   0.629   4.027  11.326  0.0165  0.2741  0.2692
30303ION     NA48507  13.092   2.983  13.617 -0.1028 -0.2447  0.1775
30304ION     NA48508   7.011  13.040   0.039 -0.0198 -0.3682 -0.2665
30305ION     NA48509  17.292   7.925   6.039  0.3302  0.1363  0.2111
30306ION     NA48510   5.649  10.435   6.073 -0.1829  0.2986 -0.2099
30307ION     NA48511   1.319   9.311  14.208  0.2761 -0.1429  0.0294
30308ION     NA48512  14.766  16.817  14.611  0.2063 -0.2169 -0.3192
30309ION     NA48513   7.399  16.194   2.457  0.0617  0.2070  0.1272
30310ION     NA48514  11.728  16.413   1.127  0.0860  0.1181  0.0793
30311ION     NA48515  16.874   0.515  12.919 -0.0334 -0.1941 -0.1612
30312ION     NA48516  16.522   6.747   5.940  0.1286  0.1037  0.1204
30313ION     NA48517  11.698  13.522  15.320 -0.1609 -0.0876  0.1356
30314ION     NA48518  15.739   4.048  14.751  0.1160 -0.0156 -0.2668
30315ION     NA48519   0.346   6.485  11.213  0.0319 -0.0255 -0.0002
30316ION     NA48520  10.800  14.382  11.393 -0.2675 -0.0641  0.1552
30317ION     NA48521  14.654   9.136   6.020 -0.0513  0.2439  0.2205
30318ION     NA48522   4.712   8.726  11.344  0.1380 -0.0531 -0.2106
30319ION     NA48523   4.882  16.899   6.069  0.1772  0.1340  0.0497
30320ION     NA48524  12.228  10.954  11.748  0.0319  0.2209 -0.0977
30321ION     NA48525  10.021   8.615   4.527 -0.1287  0.0920 -0.0528
30322ION     NA48526  13.487   4.063  11.010  0.1119 -0.0985  0.1789
30323ION     NA48527   8.930   7.440   4.533  0.0064  0.0719  0.0146
30324ION     NA48528   1.955   5.960  11.194  0.0333  0.2489  0.2467
30325ION     NA48529  12.365  11.953  11.556 -0.0989 -0.0240  0.1454
30326ION     NA48530   1.570   8.632   5.726 -0.1267  0.3311 -0.0787
30327ION     NA48531   5.234   4.344   5.931 -0.2591 -0.1079  0.2346
30328ION     NA48532  13.365   3.098   6.297  0.2521  0.0598  0.1352
30329ION     NA48533  16.191  11.490   6.364  0.2183 -0.2539 -0.1581
30330ION     NA48534   7.464  15.255  16.250  0.2785 -0.0711  0.0223
30331ION     NA48535  12.565   2.330  11.237  0.0779 -0.1727  0.0546
30332ION     NA48536   0.644  10.635   5.723 -0.0359 -0.0665 -0.0884
30333ION     NA48537   2.350   1.568   5.996  0.2407  0.2335  0.3692
30334ION     NA48538   3.065  16.105   6.286 -0.1126 -0.0061 -0.1850
30335ION     NA48539   4.817   7.723  11.398 -0.1463  0.2815 -0.1555
30336ION     NA48540  13.777   6.458   6.239 -0.1082  0.2555  0.1563
30337ION     NA48541   2.728  16.413  11.464  0.2831 -0.1823  0.1115
30338ION     NA48542   3.978  14.507   6.261  0.0651  0.0734  0.1252
30339ION     NA48543   4.853   5.624  11.329  0.5281  0.0698  0.0897
30340ION     NA48544   8.049   5.516  11.562  0.2903 -0.0668 -0.1160
30341ION     NA48545  16.891  11.825  12.338 -0.1411  0.1251 -0.0796
30342ION     NA48546   7.694   0.679   6.035 -0.0888 -0.2002 -0.1844
30343ION     NA48547   9.395  10.647  11.307  0.0118  0.2140  0.2617
30344ION     NA48548   6.385   8.141  11.234 -0.1499 -0.1274 -0.2899
30345ION     NA48549  17.334  12.574  15.598  0.0632 -0.2678  0.1381
30346ION     NA48550  15.158   4.301  11.087 -0.2434  0.1157  0.2756
30347ION     NA48551  13.036   8.267   6.022  0.1872  0.1271 -0.0779
30348ION     NA48552  10.897  12.042  11.633  0.0364  0.1734 -0.2142
30349ION     NA48553   8.776   4.294  11.396  0.0300 -0.0317 -0.0178
30350ION     NA48554  13.310   5.045   6.348  0.1335 -0.0942 -0.0553
30351ION     NA48555   8.466   1.452   5.469 -0.0130  0.2270  0.4160
30352ION     NA48556   9.391   7.598  11.790  0.0426  0.5685 -0.0808
30353ION     NA48557   8.033   5.137   6.192  0.2365  0.0271  0.7243
30354ION     NA48558  11.616   2.109  11.290 -0.1456 -0.0772 -0.0072
30355ION     NA48559  17.003   0.944   5.954  0.2482  0.0579 -0.2260
30356ION     NA48560   9.046   3.136  16.665  0.2780  0.1503 -0.0638
30357ION     NA48561   7.839   6.064  11.469 -0.0376  0.3683  0.0995
30358ION     NA48562   8.855  16.003  14.729  0.0758 -0.2240 -0.0888
30359ION     NA48563  11.356   7.599  14.725 -0.1200  0.1320  0.0345
30360ION     NA48564  16.464   8.169   1.746  0.2843 -0.1539 -0.1230
30361ION     NA48565  12.191   2.923   5.958  0.0340  0.3186  0.4997
30362ION     NA48566  13.237   3.460  10.924 -0.0200 -0.1042 -0.0511
30363ION     NA48567  14.242   4.464  10.933 -0.1196 -0.0503  0.3098
30364ION     NA48568  13.327  10.974   4.445  0.2075  0.0473 -0.1230
30365ION     NA48569   6.156   1.520   0.578  0.0261  0.4101  0.2133
30366ION     NA48570   8.277  11.888  11.538  0.1664 -0.0667 -0.0582
30367ION     NA48571   7.297   3.899   4.755 -0.1993 -0.0252  0.0255
30368ION     NA48572   8.720   5.674  11.465  0.5320 -0.4084 -0.0191
30369ION     NA48573  14.655   1.867   6.414 -0.2386 -0.1852 -0.0866
30370ION     NA48574   5.426  10.667  15.476 -0.1212 -0.0354  0.0129
30371ION     NA48575   3.992   4.934  15.448 -0.2774 -0.0211  0.0927
30372ION     NA48576   3.763  11.273  11.449  0.2906 -0.0768  0.1025
30373ION     NA48577   1.823  11.827   6.335  0.2241  0.0386 -0.0772
30374ION     NA48578  13.478   0.281   5.513 -0.0119  0.1219  0.0432
30375ION     NA48579   0.738  10.050  12.533  0.2218  0.2173  0.0147
30376ION     NA48580   9.436  14.506   0.104 -0.0828 -0.0322 -0.2079
30377ION     NA48581  16.142   6.036  12.142  0.5082 -0.1385  0.0611
30378ION     NA48582   3.227   6.521  11.192  0.0380 -0.0257  0.0466
30379ION     NA48583   9.652   3.416  16.057  0.2338 -0.0925 -0.0950
30380ION     NA48584   9.570   1.197  17.221  0.0610 -0.1532  0.0012
30381ION     NA48585   7.884   9.476   6.004 -0.1260  0.0725  0.1599
30382ION     NA48586   4.672  11.569  11.419 -0.0594 -0.1363 -0.3992
30383ION     NA48587   4.914  10.063   6.054 -0.1132  0.1544 -0.2562
30384ION     NA48588  12.977  11.833  17.414  0.0381 -0.1480  0.3157
30385ION     NA48589  10.298   3.127  11.700 -0.1590 -0.3106  0.0489
30386ION     NA48590  10.001   4.588   6.470 -0.2197  0.0773  0.1173
30387ION     NA48591   5.154   3.512  11.558  0.0969  0.0619 -0.0744
30388ION     NA48592   6.986  16.948   6.197 -0.2928  0.3497  0.2912
30389ION     NA48593  14.260   3.610  11.128  0.1666  0.0664 -0.2213
30390ION     NA48594   2.635  15.346   6.103 -0.2483  0.1066 -0.1122
30391ION     NA48595  12.958  16.011   5.165  0.2326 -0.0673  0.0864
30392ION     NA48596   2.209  10.427   5.904 -0.0108  0.3147  0.0231
30393ION     NA48597   0.680  10.055   6.502 -0.0125  0.1083  0.2480
30394ION     NA48598  16.967  10.106   6.505  0.1649  0.0901 -0.1686
30395ION     NA48599   2.217   0.910  11.510  0.1330 -0.0550 -0.1012
30396ION     NA48600   9.095  10.539  12.223 -0.0121  0.0188  0.0422
30397ION     NA48601  16.489   9.062  16.718 -0.0412  0.1730 -0.0090
30398ION     NA48602   3.783   9.770   5.807 -0.1544 -0.1627 -0.1255
30399ION     NA48603  16.647  16.620  11.536 -0.0221 -0.1286  0.0741
30400ION     NA48604  10.820   9.224   6.120  0.0014 -0.1042 -0.0940
30401ION     NA48605  13.244   8.956  11.568 -0.2236 -0.0159 -0.3237
30402ION     NA48606   9.024   0.093  13.037 -0.4285  0.1689  0.0500
30403ION     NA48607   9.923  15.624  13.938  0.0650  0.1674  0.1302
30404ION     NA48608   2.325   8.339   4.979 -0.0167  0.1575  0.1515
30405ION     NA48609   9.241  10.083   5.903  0.2305 -0.0476 -0.1185
30406ION     NA48610   7.202   5.493   6.055  0.1308 -0.3226 -0.0615
30407ION     NA48611   4.747  14.287  11.244  0.0011  0.0496 -0.3092
30408ION     NA48612   7.747  12.744  11.416  0.1444  0.0039  0.0915
30409ION     NA48613   0.550  14.801   2.982 -0.0231 -0.0249 -0.0798
30410ION     NA48614   3.570  14.226   5.611  0.2435 -0.1707  0.0388
30411ION     NA48615  13.324   8.492  14.444  0.3067 -0.3490  0.2025
30412ION     NA48616   0.450   4.590  11.277 -0.0410  0.1895 -0.1591
30413ION     NA48617   7.169  11.611  12.714  0.0744 -0.2253 -0.2395
30414ION     NA48618  15.795   9.891  11.549 -0.0380 -0.2187  0.0069
30415ION     NA48619  16.863   4.089   1.158 -0.3082  0.1537  0.1335
30416ION     NA48620  11.043   8.003   5.714 -0.0974 -0.0266  0.1250
30417ION     NA48621  13.571   5.779  10.951 -0.3143 -0.0843 -0.0069
30418ION     NA48622   8.712  11.809   6.259 -0.1009 -0.2512  0.1081
30419ION     NA48623   0.502   1.120   6.081 -0.0462  0.1797 -0.0736
30420ION     NA48624   1.348   0.274   6.006  0.0296 -0.0804 -0.1520
30421ION     NA48625   0.177   6.329   2.895 -0.0509 -0.1196 -0.1453
30422ION     NA48626  15.756  14.451   6.481 -0.1174  0.2421  0.0466
30423ION     NA48627   9.965  11.246  11.294 -0.2547 -0.1724  0.1341
30424ION     NA48628   8.220   2.004  11.439 -0.2147 -0.1034 -0.2145
30425ION     NA48629  13.772   7.667  11.644 -0.2012 -0.3397 -0.2184
30426ION     NA48630   7.610  10.776   5.967 -0.2109  0.1291 -0.1207
30427ION     NA48631   4.963  11.769   6.070 -0.2352  0.1573  0.0641
30428ION     NA48632   6.573   2.564  14.511  0.2504  0.3258  0.2163
30429ION     NA48633  13.189   4.893  12.238 -0.0415  0.3281  0.0510
30430ION     NA48634   4.142   2.936   5.958 -0.0196  0.0142 -0.0068
30431ION     NA48635  11.502   5.453   6.577  0.3609  0.3436 -0.1340
30432ION     NA48636  15.403  16.838  11.599  0.0942  0.1871 -0.1669
30433ION     NA48637   7.050   7.643  11.440  0.2033 -0.0205 -0.1594
30434ION     NA48638  12.369   0.847  11.468  0.1473 -0.4274  0.0322
30435ION     NA48639  12.157   9.914   4.432  0.1626  0.0709  0.0974
30436ION     NA48640   6.336   8.809   6.353  0.2475 -0.3491  0.2361
30437ION     NA48641  16.593   8.863  12.737 -0.2479  0.1292  0.1086
30438ION     NA48642   4.714   2.496  11.572  0.1092 -0.0999  0.0138
30439ION     NA48643  15.437   1.792   6.481  0.4395  0.1055 -0.0698
30440ION     NA48644  11.377  11.192  11.766 -0.0380  0.1426 -0.2299
30441ION     NA48645   8.951  16.966  11.329  0.3273  0.0621 -0.2908
30442ION     NA48646  10.645   6.575  11.438  0.1107 -0.0328 -0.0883
30443ION     NA48647  13.681  12.731  11.376 -0.0045 -0.0491 -0.1152
30444ION     NA48648  11.672   5.616  16.231 -0.0490  0.0870 -0.0965
30445ION     NA48649   0.291  12.286   6.354 -0.1263 -0.2797 -0.0216
30446ION     NA48650  10.433   3.197  16.995 -0.3827  0.0319 -0.0887
30447ION     NA48651   5.727   6.527  11.355 -0.0419 -0.4958 -0.0056
30448ION     NA48652   5.185  16.151   5.908  0.0432  0.1214  0.0156
30449ION     NA48653   7.414  13.439  11.504  0.0508  0.1745 -0.3284
30450ION     NA48654   3.981  13.624  11.401 -0.1738  0.0425  0.0161
30451ION     NA48655  10.032   0.356  11.558 -0.0809  0.0206 -0.2865
30452ION     NA48656  10.652  10.151   6.154 -0.1197  0.1915  0.1202
30453ION     NA48657  12.725  16.385  11.537 -0.0217  0.1707 -0.0482
30454ION     NA48658   9.775  13.195   3.240 -0.0201 -0.0206  0.0655
30455ION     NA48659  12.812  12.380   6.111  0.1081  0.3016  0.0890
30456ION     NA48660  16.618  12.691  11.836 -0.0434  0.0244  0.2420
30457ION     NA48661   8.718  14.954   6.098  0.0919 -0.3659 -0.0277
30458ION     NA48662   9.275  11.070   6.415  0.1392 -0.0523  0.2451
30459ION     NA48663   2.871   2.202  13.536 -0.1545  0.0608 -0.0031
30460ION     NA48664  16.660   2.488  16.495 -0.3756  0.2952  0.0042
30461ION     NA48665   2.282   3.569  11.192 -0.2046 -0.0875 -0.0848
30462ION     NA48666   9.357   6.382  11.674 -0.1774  0.0785 -0.1877
30463ION     NA48667  14.837  10.314  11.460 -0.3224  0.1763 -0.0344
30464ION     NA48668   6.496   8.119  12.693  0.0288 -0.2814  0.0354
30465ION     NA48669   1.169  12.327  11.669 -0.1009  0.0196 -0.0268
30466ION     NA48670  13.221  11.530  13.742  0.3787 -0.1400  0.3065
30467ION     NA48671   9.060  13.113  12.059 -0.0188 -0.0216 -0.1017
30468ION     NA48672   8.329  12.579   6.168 -0.1571  0.2378  0.0778
30469ION     NA48673  13.913  13.213   5.736  0.1182  0.1552  0.0606
30470ION     NA48674  16.529  14.961  11.488  0.0180 -0.0283  0.0326
30471ION     NA48675   3.194   1.748   6.237 -0.0127 -0.0769 -0.1831
30472ION     NA48676   6.766  10.601   6.019 -0.0873  0.0673 -0.0505
30473ION     NA48677   8.939  10.879   6.093  0.3620  0.0227 -0.0085
30474ION     NA48678   8.353  10.241   6.063 -0.0236  0.0037  0.1450
30475ION     NA48679   8.925  15.990  11.374 -0.2895 -0.3536  0.0797
30476ION     NA48680  14.276  14.335   6.197 -0.1537 -0.1284 -0.1283
30477ION     NA48681   9.998   9.836   4.963 -0.0514 -0.1209  0.2218
30478ION     NA48682  14.176   2.307  11.350  0.0840 -0.1024 -0.4246
30479ION     NA48683   7.438   8.424   3.742  0.2303  0.0230  0.0402
30480ION     NA48684  15.690  10.179   5.197  0.1409  0.0119 -0.2379
30481ION     NA48685   7.212  12.019  15.818  0.2133 -0.0507  0.2314
30482ION     NA48686   8.475  14.648  13.089  0.0445 -0.1030  0.0151
30483ION     NA48687   1.607   7.352   5.465 -0.0305 -0.0569  0.0334
30484ION     NA48688  15.669   4.110   6.021  0.0694  0.0259  0.2335
30485ION     NA48689  16.760   3.766   2.082  0.0026  0.0780 -0.0049
30486ION     NA48690  16.104   0.025  12.050  0.0074 -0.5741  0.0151
30487ION     NA48691  15.463  17.233   4.106  0.0211  0.2535  0.0008
30488ION     NA48692  14.625   4.892   6.271 -0.1092  0.1058  0.1791
30489ION     NA48693  11.522  15.026  11.425  0.0498  0.1835 -0.1563
30490ION     NA48694   9.735   3.661   6.479 -0.1086 -0.0163 -0.0603
30491ION     NA48695   4.671   7.713   2.235 -0.2651 -0.1874 -0.1516
30492ION     NA48696   5.245   8.556   1.595 -0.0695  0.0468 -0.1687
30493ION     NA48697  12.021  14.239   2.174  0.1826  0.1288  0.2093
30494ION     NA48698   2.636   8.429  13.366  0.2256  0.0118 -0.0234
30495ION     NA48699  13.066   4.913  11.179  0.1245  0.3604 -0.4295
30496ION     NA48700   7.084   5.757   4.607  0.2691  0.1268 -0.1007
30497ION     NA48701   4.900   5.086   6.104  0.3742 -0.1869 -0.2930
30498ION     NA48702   2.450   7.270  11.504  0.0373 -0.1328  0.1453
30499ION     NA48703  14.720   2.477  11.394  0.0221  0.3773  0.0268
30500ION     NA48704  16.188   2.879   6.007  0.0720  0.0986  0.1390
30501ION     NA48705  15.940  15.411   1.597 -0.1087  0.0649  0.1854
30502ION     NA48706  11.872   8.474  11.627  0.0959 -0.0435  0.1162
30503ION     NA48707   5.096   0.405   1.211 -0.2354 -0.1434 -0.2305
30504ION     NA48708   2.105  14.949  11.823 -0.2288 -0.2578 -0.1213
30505ION     NA48709   1.872   0.071  11.448 -0.0297 -0.1751 -0.3689
30506ION     NA48710   2.701   6.443  11.465  0.1792  0.0115 -0.3661
30507ION     NA48711  16.821  11.981   1.891 -0.0603  0.2535  0.0483
30508ION     NA48712   9.416   3.479  11.382  0.1503 -0.2674  0.0259
30509ION     NA48713  16.106   4.808  11.217 -0.0149 -0.1288  0.0656
30510ION     NA48714  10.101  12.353   5.883 -0.1606 -0.1627 -0.3143
30511ION     NA48715  15.333   8.978  16.349  0.0265  0.2708 -0.3312
30512ION     NA48716  13.003  14.133   6.439 -0.1337 -0.4707 -0.2682
30513ION     NA48717  16.431  10.808   0.084 -0.0103  0.0266  0.1991
30514ION     NA48718  11.573  14.929   6.244  0.1567 -0.0519 -0.0055
30515ION     NA48719  13.594  17.123   6.375  0.0312  0.2138  0.1580
30516ION     NA48720  16.231   5.038   5.978 -0.1850 -0.2069 -0.1482
30517ION     NA48721  10.767   2.548   1.956 -0.0652 -0.3242  0.0227
30518ION     NA48722  10.926   9.590   1.656 -0.1779  0.2856 -0.1578
30519ION     NA48723   7.466   8.211   6.141 -0.0885 -0.1228 -0.0054
30520ION     NA48724   9.088   1.626  11.534 -0.3158 -0.0598  0.0022
30521ION     NA48725   3.322  10.910  11.465  0.2355 -0.0695 -0.0675
30522ION     NA48726  15.571   5.011   6.132  0.0315 -0.0789 -0.0798
30523ION     NA48727   1.052  16.003  11.576 -0.2253  0.4036 -0.2208
30524ION     NA48728  14.387  12.841  11.828 -0.2653 -0.0464 -0.0279
30525ION     NA48729  13.259  17.036  11.755 -0.3570 -0.0098 -0.5371
30526ION     NA48730   9.897  16.659  11.510  0.0141 -0.0181  0.1201
30527ION     NA48731   1.030   6.022   4.110 -0.0367 -0.1196 -0.1748
30528ION     NA48732   3.004  11.090   6.101  0.0413 -0.1550  0.1032
30529ION     NA48733   6.054  15.743   6.202 -0.0208  0.1825  0.0340
30530ION     NA48734   5.691   8.643  11.115 -0.0294  0.1353  0.2378
30531ION     NA48735   5.502   6.192  11.115 -0.0070 -0.1861 -0.0201
30532ION     NA48736  11.889   8.272  15.340  0.1432  0.0629 -0.1054
30533ION     NA48737   2.307   9.615   6.062  0.0238  0.2068 -0.1725
30534ION     NA48738   5.315  15.222   6.292 -0.0089  0.1016  0.0327
30535ION     NA48739   8.077   3.740  13.090 -0.2040  0.0869 -0.0788
30536ION     NA48740   1.132   2.930  11.185  0.0828 -0.0984  0.1028
30537ION     NA48741   9.528  13.549   2.688  0.0892  0.2381 -0.2189
30538ION     NA48742  11.188   8.908  11.728  0.0508  0.0236 -0.0801
30539ION     NA48743  12.607   6.909   6.240 -0.1109 -0.0532  0.2367
30540ION     NA48744  16.692   5.294  12.383 -0.0421  0.3455 -0.0536
30541ION     NA48745   7.001  14.740   6.235  0.0870 -0.1965 -0.3213
30542ION     NA48746   0.282   9.466   1.361 -0.0620 -0.3100  0.2540
30543ION     NA48747   3.176  13.933  12.224  0.0081  0.0130  0.1457
30544ION     NA48748   1.246   0.775  11.488 -0.0789 -0.0806  0.1023
30545ION     NA48749   4.349  10.543  11.515 -0.1181 -0.0933  0.1124
30546ION     NA48750   3.975   1.931   6.049  0.3005  0.1580 -0.2657
30547ION     NA48751  12.487  13.856   0.908 -0.0786 -0.0780 -0.1453
30548ION     NA48752   3.167  10.236   6.057 -0.3142 -0.3023  0.2988
30549ION     NA48753   6.989  15.273  11.608  0.1621 -0.5882  0.1137
30550ION     NA48754   9.452   8.837  11.161  0.2413  0.1792  0.1037
30551ION     NA48755   6.377  13.074  11.457 -0.4320 -0.0438  0.0161
30552ION     NA48756   9.248   9.030   5.815 -0.1112 -0.2354  0.0668
30553ION     NA48757  15.026   8.050   5.933  0.2220 -0.0268  0.1071
30554ION     NA48758  10.062  14.403   6.223 -0.2994 -0.2557 -0.1734
30555ION     NA48759   1.975   2.450  17.297 -0.1329 -0.1141 -0.0718
30556ION     NA48760   7.505   3.026   6.060 -0.2009 -0.1360  0.2515
30557ION     NA48761   7.137   6.780  13.652  0.1439  0.1847  0.0719
30558ION     NA48762   7.706  16.379  16.319 -0.2223 -0.0502  0.3340
30559ION     NA48763   8.993   2.521  11.900 -0.1343 -0.0001 -0.0607
30560ION     NA48764  17.172   9.601  11.499  0.1105 -0.1014 -0.1362
30561ION     NA48765   7.857  13.717   2.923  0.0164 -0.2460 -0.2019
30562ION     NA48766   0.240   4.830   6.205 -0.2889  0.1593  0.0147
30563ION     NA48767   1.106   8.255  11.636  0.0532  0.0131 -0.0659
30564ION     NA48768   4.229   5.501  11.335  0.0022 -0.0363 -0.0058
30565ION     NA48769   6.286  16.837  11.389 -0.4209  0.1498  0.0202
30566ION     NA48770  14.927  12.789   6.548  0.2233  0.0187 -0.1100
30567ION     NA48771   5.984  15.763  14.319  0.0239 -0.2524 -0.0876
30568ION     NA48772   2.229   2.384   6.303  0.1633 -0.0995 -0.0442
30569ION     NA48773  14.368  10.024   4.164 -0.0434 -0.0695 -0.0551
30570ION     NA48774  10.046   0.589   6.209 -0.0379 -0.0958 -0.2408
30571ION     NA48775  14.898   3.550  17.335  0.1502 -0.1546 -0.1869
30572ION     NA48776   4.353   4.257   6.024  0.2584  0.0061  0.1875
30573ION     NA48777  11.797   3.059  11.386 -0.1905 -0.1866 -0.2724
30574ION     NA48778   9.268   5.792  17.286 -0.4025 -0.0926  0.2427
30575ION     NA48779  11.324  12.874  11.488  0.0125 -0.0417 -0.0840
30576ION     NA48780  16.520  14.301   6.329  0.1264  0.2386  0.1947
30577ION     NA48781   4.590  14.940   3.039  0.0733  0.1120  0.0315
30578ION     NA48782   9.102   0.392   6.155  0.1226 -0.2141 -0.1794
30579ION     NA48783   5.634   8.402  13.382  0.2305 -0.2343 -0.1581
30580ION     NA48784   9.127  14.278  11.418  0.0907  0.0702  0.2600
30581ION     NA48785  14.932  11.272  11.551 -0.2048  0.0873  0.1670
30582ION     NA48786  16.752   3.297   4.955 -0.3443  0.3514 -0.0031
30583ION     NA48787   1.890  16.569  11.327  0.2134 -0.3209  0.0588
30584ION     NA48788  13.942   9.095   6.004 -0.2144 -0.0978 -0.0280
30585ION     NA48789   8.702   6.787   6.347  0.0376 -0.0258  0.1297
30586ION     NA48790   0.337   2.389  11.309  0.0856  0.0182  0.4821
30587ION     NA48791   2.592   0.649  11.434  0.1503 -0.1167 -0.1408
30588ION     NA48792   4.897  10.086  16.596  0.0053  0.2085 -0.0759
30589ION     NA48793  15.146  16.888   6.293  0.2441  0.0503  0.0363
30590ION     NA48794  15.215   6.860   4.882 -0.0910  0.0517 -0.2261
30591ION     NA48795   7.245  13.379   6.228  0.1691  0.0823 -0.1194
30592ION     NA48796   9.993  14.034  11.248  0.0187  0.1561 -0.1923
30593ION     NA48797   4.559   1.412  11.320  0.0934 -0.3138 -0.1828
30594ION     NA48798   3.124   9.985  11.518 -0.0226 -0.3550 -0.1498
30595ION     NA48799   2.215   2.920   4.680  0.1247  0.0261  0.1562
30596ION     NA48800  17.185  14.911   6.425 -0.2168 -0.0072 -0.1577
30597ION     NA48801   1.062  10.639  11.636  0.2270 -0.2026  0.0402
30598ION     NA48802  15.298   4.266   0.567  0.2354  0.0841  0.0452
30599ION     NA48803  15.770   2.793  11.235  0.0405 -0.1221  0.1874
30600ION     NA48804   5.902   6.495   6.108  0.0137  0.0572 -0.3682
30601ION     NA48805   8.489  10.938  11.522  0.1194 -0.2135  0.1297
30602ION     NA48806   1.458   9.252  11.549 -0.0346  0.0162  0.4137
30603ION     NA48807  12.819  13.659  13.788  0.0137  0.1924  0.0286
30604ION     NA48808   8.561   1.310   0.444 -0.1089 -0.1562 -0.1711
30605ION     NA48809   1.288   5.967  11.191 -0.0263  0.1129  0.1324
30606ION     NA48810   6.855   4.615  11.677  0.0815 -0.3230 -0.2494
30607ION     NA48811   5.157   8.721   5.851  0.2485 -0.0360  0.3869
30608ION     NA48812  14.530   5.842  10.937 -0.1266 -0.1082 -0.0537
30609ION     NA48813  17.084   9.353   6.018 -0.1394  0.2759 -0.0276
30610ION     NA48814   5.974   1.651   4.095 -0.0058  0.0843 -0.3809
30611ION     NA48815  15.640  10.755  11.648 -0.0933 -0.0338  0.0651
30612ION     NA48816   4.491   3.023  11.489  0.2910 -0.0953 -0.0394
30613ION     NA48817   3.935  16.645   4.975 -0.2952  0.4056  0.1019
30614ION     NA48818   3.048  10.112   0.943 -0.3322 -0.1279  0.0670
30615ION     NA48819  15.483  14.018   6.563 -0.1224  0.0249  0.0125
30616ION     NA48820  14.098   8.838  11.476 -0.0930 -0.0716  0.0710
30617ION     NA48821  14.592   3.321  11.342 -0.0785  0.1558 -0.0739
30618ION     NA48822   0.685   7.651   5.996 -0.0262 -0.0274 -0.3166
30619ION     NA48823   7.988   7.403  11.351  0.0240 -0.3183  0.3943
30620ION     NA48824   6.432   1.737   6.059  0.0126  0.1048 -0.2616
30621ION     NA48825   9.760   7.817   2.308  0.2046 -0.1912  0.1229
30622ION     NA48826  16.255   7.645  14.311  0.0230 -0.2297  0.0279
30623ION     NA48827   4.907   6.305   5.909 -0.0184 -0.0184 -0.2118
30624ION     NA48828   5.782  14.767  11.479  0.1864  0.2395  0.2211
30625ION     NA48829  15.000  14.771   6.180 -0.2951 -0.1001 -0.2546
30626ION     NA48830  11.165   0.957  14.544 -0.2363 -0.0131  0.2799
30627ION     NA48831  14.468  15.733  16.549  0.2444 -0.1601 -0.0856
30628ION     NA48832  14.736  15.317   1.589 -0.0821  0.2635  0.0181
30629ION     NA48833   8.641  14.097  11.373  0.1931 -0.2083  0.1305
30630ION     NA48834  14.155   5.650   6.507 -0.0436  0.0457 -0.3526
30631ION     NA48835   0.234  16.873   6.281  0.0119 -0.2112 -0.1513
30632ION     NA48836  16.399  12.569   6.338  0.0577  0.1792 -0.2061
30633ION     NA48837   8.893   2.862   6.258  0.1460 -0.2175  0.0068
30634ION     NA48838   2.150   8.143   6.257  0.2813 -0.3555  0.2623
30635ION     NA48839   4.588  17.269  11.438  0.1098 -0.1802 -0.0165
30636ION     NA48840   4.939   0.696  11.362 -0.0953  0.0400  0.1074
30637ION     NA48841   1.916   4.777   5.867 -0.1621  0.1255  0.0725
30638ION     NA48842  16.417  14.423  13.179  0.0798  0.0526 -0.1725
30639ION     NA48843  11.373  10.567   6.278  0.0328  0.1874  0.2311
30640ION     NA48844   8.656  11.789  15.914 -0.0432 -0.2062  0.0078
30641ION     NA48845   1.922  10.827  11.658  0.0710  0.1995  0.0335
30642ION     NA48846  17.284  13.676  11.626  0.1597  0.2376  0.2149
30643ION     NA48847  13.244  10.532   6.138  0.0501 -0.4787  0.1408
30644ION     NA48848  15.861   9.080   5.767 -0.2070 -0.0865  0.0404
30645ION     NA48849   4.115  16.026   6.071  0.4592  0.1777  0.0749
30646ION     NA48850  10.338   6.205   6.355 -0.1230  0.0128  0.0522
30647ION     NA48851  16.200  17.037   3.732  0.0091  0.0082  0.1338
30648ION     NA48852   0.261  10.291  11.623  0.0082 -0.1010 -0.1073
30649ION     NA48853   6.579  16.114  11.717 -0.0736  0.1806 -0.1289
30650ION     NA48854   3.489   4.273  11.165  0.2505 -0.1959 -0.1213
  17.34343  17.34343  17.53068
