INSANE! Membrane UpperLeaflet>loPI:POPI:DPPI:PYPI:ERGO=140.0:15.0:9.0:6.0:30.0 LowerLeaflet>loPI:POPI:DPPI:PYPI:ERGO=140.0:15.0:9.0:6.0:30.0
48854
    1loPI    C1    1  16.461   5.724  10.874 -0.0866 -0.0397  0.0508
    1loPI    C2    2  16.761   5.594  11.104 -0.1568 -0.0447  0.1401
    1loPI    C3    3  16.440   5.765  11.271 -0.2286 -0.0899  0.0492
    1loPI   PO4    4  16.449   5.568  10.680  0.1216 -0.1783  0.1876
    1loPI   GL1    5  16.591   5.476  10.250  0.0964  0.1978  0.2546
    1loPI   GL2    6  16.486   5.158  10.236 -0.0644  0.0703 -0.1308
    1loPI   C1A    7  16.608   5.632   9.793  0.1001 -0.3615 -0.0203
    1loPI   C2A    8  16.850   5.646   9.483 -0.1314  0.0240  0.0437
    1loPI   C3A    9  17.191   5.458   9.234 -0.6672  0.0429 -0.0784
    1loPI   C4A   10  17.223   5.421   8.771  0.2444 -0.0777  0.3026
    1loPI   C5A   11  17.117   5.725   8.433 -0.3001 -0.0790 -0.1647
    1loPI   C6A   12  17.055   5.915   8.060 -0.0551 -0.4595  0.1159
    1loPI   C1B   13  16.696   5.153   9.897 -0.1481 -0.4719 -0.1857
    1loPI   C2B   14  16.728   5.173   9.448  0.2097  0.0390  0.2840
    1loPI   C3B   15  16.898   5.020   9.012 -0.1755 -0.2956 -0.1797
    1loPI   C4B   16  17.059   4.944   8.606 -0.0380 -0.3395  0.3103
    2loPI    C1   17  10.850  13.017  10.100  0.2973 -0.2204 -0.1491
    2loPI    C2   18  10.728  12.924  10.470  0.0858  0.0307 -0.1532
    2loPI    C3   19  10.911  12.649  10.245 -0.2247 -0.2734 -0.0428
    2loPI   PO4   20  10.670  13.087   9.951 -0.1378  0.0656 -0.0745
    2loPI   GL1   21  10.517  13.249   9.666 -0.2814  0.0581 -0.1228
    2loPI   GL2   22  10.301  13.596   9.555 -0.1166  0.3557  0.1550
    2loPI   C1A   23  10.581  13.129   9.233 -0.0362 -0.0087  0.1733
    2loPI   C2A   24  10.701  13.211   8.879 -0.0757  0.0551 -0.0767
    2loPI   C3A   25  10.719  13.260   8.426 -0.0978 -0.1571  0.1520
    2loPI   C4A   26  10.509  13.268   8.076 -0.1577 -0.2088 -0.1512
    2loPI   C5A   27  10.542  13.265   7.587 -0.2153 -0.3646  0.0235
    2loPI   C6A   28  10.107  13.135   7.382  0.0991  0.0474 -0.2387
    2loPI   C1B   29  10.338  13.543   9.118 -0.3126 -0.0593  0.3573
    2loPI   C2B   30  10.412  13.593   8.683 -0.0905 -0.1325 -0.0312
    2loPI   C3B   31  10.291  13.686   8.300  0.2169  0.0013  0.0990
    2loPI   C4B   32  10.386  13.761   7.867 -0.3390 -0.0674 -0.1534
    3loPI    C1   33  12.969   7.126  10.702  0.0637  0.1033 -0.0329
    3loPI    C2   34  12.969   6.914  11.041  0.0512 -0.1057 -0.1619
    3loPI    C3   35  13.267   7.170  10.965  0.0622 -0.0698 -0.0009
    3loPI   PO4   36  12.909   6.993  10.525  0.1222  0.0926 -0.1838
    3loPI   GL1   37  12.714   7.006  10.104 -0.2808 -0.0211  0.0719
    3loPI   GL2   38  12.963   6.810  10.075 -0.0038  0.4064 -0.1656
    3loPI   C1A   39  12.913   7.225   9.746  0.0176  0.4461 -0.1333
    3loPI   C2A   40  12.942   7.359   9.286  0.0329 -0.0948  0.0264
    3loPI   C3A   41  12.819   7.447   8.811 -0.2237  0.3405  0.1903
    3loPI   C4A   42  12.931   7.747   8.602 -0.2973 -0.0113 -0.1204
    3loPI   C5A   43  12.717   8.138   8.418  0.0769  0.4716  0.0695
    3loPI   C6A   44  12.835   8.568   8.578 -0.0293 -0.1534  0.5742
    3loPI   C1B   45  13.044   6.540   9.589 -0.2739  0.1344 -0.3903
    3loPI   C2B   46  13.159   6.800   9.173  0.6393 -0.0647 -0.2602
    3loPI   C3B   47  13.191   7.121   8.964 -0.0472 -0.1320 -0.3139
    3loPI   C4B   48  13.235   7.324   8.593 -0.1454 -0.0797 -0.0625
    4loPI    C1   49  12.903  12.369  10.505 -0.0005  0.2149 -0.0200
    4loPI    C2   50  12.518  12.372  10.614  0.0229  0.1819  0.0644
    4loPI    C3   51  12.795  12.528  10.856  0.1037 -0.1061  0.1616
    4loPI   PO4   52  12.992  12.474  10.294 -0.2013  0.2471 -0.2405
    4loPI   GL1   53  12.928  12.403   9.855 -0.0570  0.0340  0.1161
    4loPI   GL2   54  13.134  12.164   9.644  0.2306  0.0045 -0.0976
    4loPI   C1A   55  12.566  12.401   9.477 -0.0771 -0.4437  0.0889
    4loPI   C2A   56  12.428  12.266   9.018  0.1276 -0.1986 -0.1188
    4loPI   C3A   57  12.303  12.322   8.628  0.0446 -0.0480  0.1694
    4loPI   C4A   58  12.315  12.374   8.149  0.2465  0.1987 -0.0250
    4loPI   C5A   59  12.521  12.408   7.777 -0.0812 -0.1156  0.2400
    4loPI   C6A   60  12.783  12.170   7.510 -0.0776  0.0687  0.1994
    4loPI   C1B   61  13.093  12.428   9.318 -0.0019 -0.1109 -0.5677
    4loPI   C2B   62  12.846  12.538   8.985  0.1403 -0.2955 -0.1134
    4loPI   C3B   63  12.773  12.608   8.609 -0.1796 -0.2040 -0.0006
    4loPI   C4B   64  12.522  12.721   8.358 -0.1503  0.1587  0.0668
    5loPI    C1   65  18.037  17.552  10.227  0.0396 -0.2268 -0.1233
    5loPI    C2   66  17.943  17.308  10.530  0.2175 -0.0084  0.1122
    5loPI    C3   67  17.726  17.637  10.463  0.0835 -0.1365 -0.0977
    5loPI   PO4   68  18.038  17.333   9.979 -0.0613 -0.3552 -0.2200
    5loPI   GL1   69  18.272  17.235   9.670 -0.0104 -0.0867 -0.1606
    5loPI   GL2   70  17.924  17.272   9.497  0.0203 -0.4089 -0.2212
    5loPI   C1A   71  18.311  17.129   9.216  0.4987 -0.1033 -0.2281
    5loPI   C2A   72  18.044  17.002   8.793  0.1281 -0.1502  0.0684
    5loPI   C3A   73  17.962  16.671   8.578  0.1511  0.0627  0.0381
    5loPI   C4A   74  18.165  16.325   8.381  0.0386  0.1413 -0.2452
    5loPI   C5A   75  18.480  16.160   8.208 -0.1132 -0.2105  0.1447
    5loPI   C6A   76  18.877  16.260   8.013 -0.2212 -0.2477 -0.5864
    5loPI   C1B   77  17.743  17.140   9.171  0.3678 -0.0686  0.1346
    5loPI   C2B   78  17.562  17.269   8.760  0.0285 -0.0428  0.0390
    5loPI   C3B   79  17.488  17.394   8.326  0.1364  0.1514  0.0995
    5loPI   C4B   80  17.234  17.254   7.982  0.0172  0.2900  0.1498
    6loPI    C1   81  10.128  12.243  10.410 -0.0450 -0.0975  0.0275
    6loPI    C2   82  10.253  12.595  10.554  0.1465 -0.1505 -0.0070
    6loPI    C3   83  10.120  12.312  10.804  0.0170 -0.0638  0.0230
    6loPI   PO4   84  10.093  12.274  10.079  0.3718  0.1213 -0.1959
    6loPI   GL1   85  10.342  12.063   9.870 -0.0671 -0.1478  0.2008
    6loPI   GL2   86  10.354  12.332   9.675 -0.0824  0.1192  0.1748
    6loPI   C1A   87  10.273  11.692   9.539  0.2472 -0.0935 -0.2649
    6loPI   C2A   88  10.331  11.673   9.098 -0.0534 -0.0897 -0.0009
    6loPI   C3A   89  10.467  11.761   8.800 -0.1942 -0.1922  0.3884
    6loPI   C4A   90  10.440  11.847   8.409 -0.1066  0.1286  0.0909
    6loPI   C5A   91  10.527  12.097   8.016  0.0251 -0.1832 -0.1319
    6loPI   C6A   92  10.646  12.450   7.625 -0.0529  0.1635  0.0954
    6loPI   C1B   93  10.335  12.656   9.300  0.2562 -0.0831 -0.2142
    6loPI   C2B   94  10.222  12.673   8.952  0.2823  0.0657 -0.0390
    6loPI   C3B   95   9.984  12.599   8.632  0.3293  0.1940 -0.1957
    6loPI   C4B   96   9.716  12.357   8.397 -0.1015 -0.3475  0.1598
    7loPI    C1   97   9.914   2.612  10.516  0.1010  0.1233 -0.0546
    7loPI    C2   98   9.555   2.535  10.676  0.1224 -0.0637 -0.0946
    7loPI    C3   99   9.827   2.743  10.884 -0.0354  0.1451 -0.0939
    7loPI   PO4  100   9.814   2.530  10.196  0.0723 -0.0214 -0.1204
    7loPI   GL1  101   9.735   2.363   9.775  0.0948  0.1295  0.0347
    7loPI   GL2  102   9.495   2.526   9.730 -0.0155  0.0150 -0.0919
    7loPI   C1A  103   9.950   2.362   9.397  0.2017  0.1859  0.2891
    7loPI   C2A  104  10.121   2.482   8.988 -0.1797  0.2937 -0.2416
    7loPI   C3A  105  10.182   2.485   8.548 -0.1010  0.0355 -0.0389
    7loPI   C4A  106  10.291   2.763   8.273 -0.0825  0.1292  0.1119
    7loPI   C5A  107  10.687   2.833   8.041 -0.0779 -0.1112  0.2009
    7loPI   C6A  108  11.021   2.596   7.782 -0.1262  0.0018 -0.2869
    7loPI   C1B  109   9.525   2.559   9.299 -0.0613 -0.0537  0.4507
    7loPI   C2B  110   9.617   2.618   8.876 -0.0265  0.3571 -0.0474
    7loPI   C3B  111   9.732   2.609   8.365  0.0705 -0.1654  0.0768
    7loPI   C4B  112   9.860   2.808   7.982 -0.0950  0.1010 -0.1590
    8loPI    C1  113   6.396  15.839  10.085 -0.0006  0.0566  0.0151
    8loPI    C2  114   6.154  16.152  10.141 -0.0317  0.0708 -0.1881
    8loPI    C3  115   6.001  15.784  10.112  0.0200  0.0092  0.2418
    8loPI   PO4  116   6.475  15.959   9.816  0.1010  0.2423 -0.2169
    8loPI   GL1  117   6.797  15.761   9.533  0.0438 -0.0230 -0.2248
    8loPI   GL2  118   7.023  15.558   9.546  0.1211  0.1171 -0.1454
    8loPI   C1A  119   6.837  15.879   9.086 -0.1354 -0.0460 -0.2005
    8loPI   C2A  120   6.756  16.077   8.718  0.0017 -0.3833  0.3625
    8loPI   C3A  121   6.702  15.966   8.446 -0.1767  0.2413 -0.3758
    8loPI   C4A  122   6.766  16.095   7.938  0.1720  0.1049 -0.0175
    8loPI   C5A  123   6.715  16.265   7.510  0.0509  0.0120 -0.1891
    8loPI   C6A  124   6.719  16.327   7.074  0.1944 -0.2049 -0.0778
    8loPI   C1B  125   6.863  15.330   9.127 -0.0272 -0.2307 -0.3458
    8loPI   C2B  126   7.141  15.171   8.836 -0.1858  0.2866  0.1338
    8loPI   C3B  127   7.498  15.109   9.015 -0.3127  0.0884  0.1856
    8loPI   C4B  128   7.773  14.840   9.179 -0.0155  0.1799 -0.2083
    9loPI    C1  129   8.862  17.094  10.320  0.0016  0.4830 -0.2837
    9loPI    C2  130   8.613  17.315  10.542 -0.2246 -0.0312 -0.0087
    9loPI    C3  131   8.884  17.081  10.719  0.1473  0.1683 -0.2999
    9loPI   PO4  132   8.872  17.166  10.029 -0.3927 -0.4240 -0.2197
    9loPI   GL1  133   9.059  16.814   9.765  0.0112 -0.0240 -0.0841
    9loPI   GL2  134   9.253  17.107   9.642 -0.0871 -0.0674  0.0825
    9loPI   C1A  135   8.929  16.866   9.337  0.1930 -0.1195 -0.0745
    9loPI   C2A  136   8.909  17.015   8.918 -0.1838 -0.0548  0.0323
    9loPI   C3A  137   8.936  17.037   8.614  0.0750  0.0673  0.0658
    9loPI   C4A  138   9.058  16.847   8.263  0.1092 -0.0077  0.0195
    9loPI   C5A  139   9.059  16.612   8.074 -0.4296 -0.3669  0.0657
    9loPI   C6A  140   8.888  16.258   7.888  0.0356  0.0703 -0.2907
    9loPI   C1B  141   9.367  17.104   9.246 -0.2742  0.1413  0.0196
    9loPI   C2B  142   9.326  17.281   8.879  0.5503 -0.0672  0.0256
    9loPI   C3B  143   9.233  17.414   8.462  0.0606 -0.2012  0.0375
    9loPI   C4B  144   9.176  17.432   8.093 -0.1231  0.4088 -0.2103
   10loPI    C1  145   0.294   9.473  10.190 -0.0351  0.0143 -0.1485
   10loPI    C2  146   0.144   9.126  10.322  0.0951 -0.0391 -0.1394
   10loPI    C3  147   0.495   9.258  10.460  0.1044  0.0367 -0.2336
   10loPI   PO4  148   0.045   9.649  10.190 -0.1454 -0.1893 -0.3339
   10loPI   GL1  149   0.051   9.749   9.814 -0.1446 -0.4651 -0.1367
   10loPI   GL2  150  -0.161  10.029   9.764  0.1029 -0.0914 -0.0488
   10loPI   C1A  151   0.223   9.813   9.430 -0.4159 -0.1813 -0.2243
   10loPI   C2A  152   0.377   9.902   8.979 -0.7790  0.0555  0.1471
   10loPI   C3A  153   0.382   9.723   8.690  0.0997 -0.1250  0.2953
   10loPI   C4A  154   0.659   9.611   8.312  0.1032 -0.1312 -0.2673
   10loPI   C5A  155   0.898   9.493   7.857 -0.1459  0.0243  0.2008
   10loPI   C6A  156   1.235   9.391   7.507 -0.1120  0.0365 -0.3081
   10loPI   C1B  157  -0.133  10.063   9.264 -0.1715  0.1580 -0.3801
   10loPI   C2B  158  -0.074  10.109   8.828  0.1526 -0.0069  0.1452
   10loPI   C3B  159  -0.048   9.901   8.510  0.1357 -0.1275  0.3436
   10loPI   C4B  160   0.068   9.866   8.153 -0.0748  0.0631  0.0582
   11loPI    C1  161   0.324   7.328  10.668 -0.1002 -0.1098  0.0071
   11loPI    C2  162   0.453   6.990  10.838 -0.1112  0.0151  0.2704
   11loPI    C3  163   0.555   7.343  10.994  0.0442  0.1410 -0.1040
   11loPI   PO4  164   0.427   7.320  10.350 -0.0028  0.3997  0.0264
   11loPI   GL1  165   0.279   7.487   9.944  0.1086  0.1505 -0.1065
   11loPI   GL2  166   0.028   7.632   9.801 -0.0285 -0.0693  0.1659
   11loPI   C1A  167   0.644   7.296   9.654  0.1292 -0.2927 -0.1980
   11loPI   C2A  168   0.936   7.003   9.394 -0.1804  0.3212  0.5330
   11loPI   C3A  169   1.082   6.958   8.965  0.1336 -0.1738 -0.2345
   11loPI   C4A  170   0.873   6.787   8.656 -0.2467  0.0639  0.2871
   11loPI   C5A  171   0.445   6.909   8.595 -0.2768  0.2684  0.0178
   11loPI   C6A  172   0.273   7.005   8.240 -0.1419 -0.0095  0.2145
   11loPI   C1B  173   0.260   7.538   9.412  0.5548 -0.1497 -0.0839
   11loPI   C2B  174   0.546   7.299   9.165 -0.1050 -0.0422 -0.2482
   11loPI   C3B  175   0.576   6.882   9.068  0.0514 -0.0294 -0.2900
   11loPI   C4B  176   0.543   6.488   9.001  0.1698 -0.1723  0.0695
   12loPI    C1  177  15.625   7.734  10.669 -0.1272 -0.1005  0.1466
   12loPI    C2  178  15.815   7.486  10.917  0.1378  0.0759  0.1237
   12loPI    C3  179  15.595   7.785  11.064 -0.0485 -0.0720  0.1492
   12loPI   PO4  180  15.846   7.815  10.459 -0.1970  0.1980  0.3795
   12loPI   GL1  181  15.745   7.774  10.004  0.0678  0.1791  0.1500
   12loPI   GL2  182  15.492   7.781   9.972  0.1535 -0.0599  0.0293
   12loPI   C1A  183  16.150   7.912   9.709  0.0117  0.0601  0.0558
   12loPI   C2A  184  16.393   7.689   9.398 -0.1118 -0.0055  0.4469
   12loPI   C3A  185  16.308   7.512   8.968 -0.0287 -0.0818 -0.2394
   12loPI   C4A  186  16.659   7.512   8.709 -0.0937  0.0189  0.1961
   12loPI   C5A  187  16.778   7.413   8.253  0.1077  0.1613  0.3365
   12loPI   C6A  188  16.925   7.340   7.876 -0.2118  0.0591 -0.2639
   12loPI   C1B  189  15.525   7.780   9.520  0.2314 -0.3205  0.0490
   12loPI   C2B  190  15.491   7.779   9.093  0.0894  0.0305  0.1665
   12loPI   C3B  191  15.454   7.621   8.642 -0.1524  0.0221 -0.0877
   12loPI   C4B  192  15.726   7.539   8.254  0.1392 -0.0302 -0.2286
   13loPI    C1  193  12.337   4.392  10.076  0.0682 -0.4008 -0.0958
   13loPI    C2  194  12.083   4.294   9.783  0.2272 -0.4310 -0.2251
   13loPI    C3  195  12.478   4.277   9.720  0.2616 -0.0868 -0.1254
   13loPI   PO4  196  12.201   4.586  10.149 -0.2161 -0.1165 -0.2236
   13loPI   GL1  197  12.069   4.826   9.857 -0.0278 -0.2038 -0.1436
   13loPI   GL2  198  12.055   5.197   9.862 -0.0552 -0.3375  0.0780
   13loPI   C1A  199  12.063   4.647   9.451  0.1960 -0.1686  0.0035
   13loPI   C2A  200  11.828   4.746   9.103  0.0083 -0.0993 -0.0849
   13loPI   C3A  201  11.692   4.696   8.613 -0.1988 -0.0382 -0.2265
   13loPI   C4A  202  11.748   4.297   8.301 -0.0095 -0.0069  0.1704
   13loPI   C5A  203  11.804   4.238   7.885 -0.1633 -0.0775  0.0926
   13loPI   C6A  204  12.095   3.999   7.540  0.0092 -0.2243 -0.3509
   13loPI   C1B  205  12.205   5.224   9.531 -0.0663 -0.1849 -0.2523
   13loPI   C2B  206  12.222   5.103   9.171 -0.3878  0.1668  0.0650
   13loPI   C3B  207  12.288   4.787   8.989  0.2269  0.0137  0.0237
   13loPI   C4B  208  12.233   4.599   8.589  0.3190 -0.0644 -0.0848
   14loPI    C1  209   1.231  14.391  10.578 -0.1796 -0.0734  0.1196
   14loPI    C2  210   0.974  14.086  10.552 -0.1701 -0.0690 -0.0344
   14loPI    C3  211   0.988  14.308  10.884 -0.0411 -0.3564  0.1569
   14loPI   PO4  212   1.203  14.470  10.309  0.1857 -0.2067 -0.0799
   14loPI   GL1  213   1.154  14.531   9.890 -0.1495 -0.1434 -0.1906
   14loPI   GL2  214   0.961  14.247   9.729  0.0726 -0.1877  0.0530
   14loPI   C1A  215   1.357  14.623   9.422  0.3880  0.1751 -0.2989
   14loPI   C2A  216   1.242  14.701   8.962  0.3797  0.3152 -0.0661
   14loPI   C3A  217   1.185  14.754   8.591  0.2430 -0.1798 -0.0488
   14loPI   C4A  218   0.910  14.920   8.215  0.0182 -0.0416 -0.1083
   14loPI   C5A  219   0.603  14.787   7.806  0.0487  0.0150 -0.0126
   14loPI   C6A  220   0.362  14.876   7.453  0.1411  0.3055 -0.5348
   14loPI   C1B  221   0.756  14.475   9.405  0.1407  0.0318  0.1917
   14loPI   C2B  222   0.597  14.410   8.986 -0.0519  0.0097  0.0933
   14loPI   C3B  223   0.689  14.383   8.586  0.2039 -0.0148 -0.0686
   14loPI   C4B  224   0.760  14.224   8.185  0.2450 -0.0760 -0.2597
   15loPI    C1  225   4.659   7.877  10.548  0.0662 -0.0007 -0.1020
   15loPI    C2  226   4.448   7.592  10.734 -0.1240  0.1487 -0.0853
   15loPI    C3  227   4.262   7.912  10.584  0.0840  0.2482 -0.1348
   15loPI   PO4  228   4.828   7.726  10.370 -0.2054  0.1046 -0.0320
   15loPI   GL1  229   4.838   7.611   9.936  0.0311 -0.1566 -0.2444
   15loPI   GL2  230   4.669   7.838   9.863 -0.2580  0.0438  0.0802
   15loPI   C1A  231   4.741   7.499   9.498 -0.1347  0.4699 -0.2375
   15loPI   C2A  232   4.796   7.700   9.191 -0.0189 -0.2575 -0.1389
   15loPI   C3A  233   4.663   7.718   8.834 -0.0212  0.0455 -0.1217
   15loPI   C4A  234   4.689   7.726   8.399  0.1612 -0.0487  0.1159
   15loPI   C5A  235   4.560   7.678   8.003  0.0113 -0.0761  0.5989
   15loPI   C6A  236   4.334   7.749   7.615 -0.0921 -0.2925  0.2624
   15loPI   C1B  237   4.608   8.112   9.529 -0.1840  0.1119 -0.0184
   15loPI   C2B  238   4.464   8.172   9.057 -0.1554  0.1833  0.5141
   15loPI   C3B  239   4.445   8.143   8.599  0.1279  0.2262 -0.2717
   15loPI   C4B  240   4.271   8.057   8.235 -0.1000 -0.1552  0.0098
   16loPI    C1  241   2.192  14.282  10.138 -0.2468 -0.0609  0.2824
   16loPI    C2  242   2.084  14.649  10.256  0.0440  0.1446 -0.0708
   16loPI    C3  243   2.377  14.456  10.448 -0.1533  0.0668  0.1565
   16loPI   PO4  244   2.112  14.308   9.845  0.0827  0.1797  0.0084
   16loPI   GL1  245   2.354  14.209   9.547 -0.3212  0.2532  0.2644
   16loPI   GL2  246   2.062  14.002   9.443  0.0300 -0.1073 -0.1139
   16loPI   C1A  247   2.680  14.222   9.264 -0.3341  0.0946  0.1662
   16loPI   C2A  248   2.874  14.312   8.789  0.3022  0.0402 -0.2715
   16loPI   C3A  249   2.950  13.873   8.622  0.0560 -0.0310  0.0819
   16loPI   C4A  250   2.883  13.764   8.239  0.0426  0.2965  0.1471
   16loPI   C5A  251   2.553  13.740   7.959 -0.0759 -0.1797 -0.0346
   16loPI   C6A  252   2.129  13.770   7.811 -0.0443  0.1736 -0.2331
   16loPI   C1B  253   1.963  13.997   9.044  0.2520 -0.2334  0.1806
   16loPI   C2B  254   1.698  13.977   8.695  0.0169 -0.1096 -0.0260
   16loPI   C3B  255   1.541  13.836   8.331  0.2614  0.0233 -0.1139
   16loPI   C4B  256   1.587  13.776   7.922  0.0286 -0.0622  0.0139
   17loPI    C1  257   2.542  14.938  10.389  0.1516  0.1695  0.2337
   17loPI    C2  258   2.229  15.186  10.387  0.1429  0.1584  0.2192
   17loPI    C3  259   2.439  15.131  10.724 -0.1420 -0.1753  0.3477
   17loPI   PO4  260   2.608  14.935  10.209 -0.1111 -0.0295  0.3066
   17loPI   GL1  261   2.427  15.009   9.856 -0.2160  0.0707  0.1294
   17loPI   GL2  262   2.198  15.198   9.854  0.0258 -0.0818 -0.1065
   17loPI   C1A  263   2.511  14.900   9.445 -0.0259 -0.2483  0.1949
   17loPI   C2A  264   2.597  14.668   9.038 -0.0158 -0.1638 -0.2794
   17loPI   C3A  265   2.451  14.691   8.590  0.2218  0.1163 -0.0004
   17loPI   C4A  266   2.289  14.670   8.224  0.1970  0.0617  0.0707
   17loPI   C5A  267   2.057  14.807   7.821  0.0169 -0.1495 -0.3528
   17loPI   C6A  268   1.862  15.083   7.519  0.0212  0.1599  0.1018
   17loPI   C1B  269   2.058  15.177   9.472  0.0424 -0.3610  0.0215
   17loPI   C2B  270   2.122  15.039   9.009  0.1693 -0.0477  0.3017
   17loPI   C3B  271   1.962  15.035   8.678  0.0316 -0.0633 -0.1858
   17loPI   C4B  272   1.908  15.102   8.284 -0.0658  0.2504 -0.0298
   18loPI    C1  273   9.591   0.088  10.259  0.1138  0.0452  0.1111
   18loPI    C2  274   9.293   0.174  10.512  0.0848 -0.2076  0.1648
   18loPI    C3  275   9.493  -0.171  10.547  0.1994 -0.1642 -0.0459
   18loPI   PO4  276   9.471   0.206   9.991 -0.0848 -0.1205 -0.1702
   18loPI   GL1  277   9.205   0.247   9.703 -0.0634  0.0282  0.1331
   18loPI   GL2  278   9.511   0.205   9.495 -0.0947 -0.0509 -0.0994
   18loPI   C1A  279   9.070   0.293   9.201 -0.0232  0.0441 -0.0578
   18loPI   C2A  280   9.227   0.270   8.752  0.1543 -0.0307  0.1256
   18loPI   C3A  281   9.155   0.049   8.314  0.0388 -0.1285 -0.1203
   18loPI   C4A  282   9.407  -0.165   7.984 -0.0795 -0.0631 -0.2174
   18loPI   C5A  283   9.562  -0.218   7.563 -0.3491 -0.0813  0.1983
   18loPI   C6A  284   9.683  -0.109   7.167  0.2479  0.2126  0.0589
   18loPI   C1B  285   9.534   0.066   9.064 -0.3426 -0.0352  0.1448
   18loPI   C2B  286   9.661   0.098   8.622 -0.2209  0.1703  0.2178
   18loPI   C3B  287   9.735   0.092   8.262 -0.0322 -0.0185 -0.2965
   18loPI   C4B  288  10.001  -0.007   7.845  0.0487 -0.0135 -0.1663
   19loPI    C1  289  11.808  16.900  10.040  0.1012  0.0306  0.1902
   19loPI    C2  290  11.683  16.954  10.416  0.0231 -0.3354  0.2209
   19loPI    C3  291  12.075  16.938  10.336  0.0552  0.3205  0.1964
   19loPI   PO4  292  11.607  17.058   9.909 -0.0144  0.2375 -0.2063
   19loPI   GL1  293  11.333  16.947   9.638  0.0030  0.2359 -0.2807
   19loPI   GL2  294  10.986  16.977   9.763  0.1403  0.5234 -0.0570
   19loPI   C1A  295  11.341  16.760   9.213  0.2912  0.0097  0.1277
   19loPI   C2A  296  11.374  16.783   8.662  0.1585 -0.0420 -0.1309
   19loPI   C3A  297  11.353  16.861   8.249 -0.1321 -0.1674 -0.2671
   19loPI   C4A  298  11.333  16.533   7.865  0.1657  0.2891  0.1856
   19loPI   C5A  299  11.284  16.123   7.672  0.0324 -0.2276 -0.5264
   19loPI   C6A  300  11.317  15.698   7.716  0.0247 -0.4055  0.1072
   19loPI   C1B  301  10.928  17.093   9.372 -0.0185  0.2850  0.3049
   19loPI   C2B  302  10.820  17.059   8.972  0.1097  0.3217  0.1116
   19loPI   C3B  303  10.518  17.025   8.576 -0.0822  0.0197  0.0562
   19loPI   C4B  304  10.428  16.783   8.182 -0.1362 -0.2532 -0.2173
   20loPI    C1  305   3.195   5.921  10.525 -0.0146  0.0628  0.0354
   20loPI    C2  306   3.494   6.165  10.630 -0.2065  0.2294  0.2042
   20loPI    C3  307   3.378   5.873  10.877  0.0104 -0.0260  0.0106
   20loPI   PO4  308   3.201   5.839  10.164  0.0810  0.2189  0.0476
   20loPI   GL1  309   3.111   5.790   9.792 -0.0939  0.0110  0.1528
   20loPI   GL2  310   2.853   5.608   9.862 -0.0464  0.2081  0.3792
   20loPI   C1A  311   3.110   6.141   9.486 -0.2420  0.0765 -0.1549
   20loPI   C2A  312   3.281   6.414   9.232  0.0242  0.1064 -0.0400
   20loPI   C3A  313   3.323   6.524   8.775 -0.1970 -0.1373 -0.2688
   20loPI   C4A  314   3.075   6.568   8.378  0.0115  0.0524 -0.0324
   20loPI   C5A  315   2.894   6.840   8.196  0.4537  0.0578  0.0838
   20loPI   C6A  316   2.422   7.122   8.023  0.1081 -0.1355 -0.0164
   20loPI   C1B  317   3.031   5.539   9.386 -0.1309  0.1526  0.1611
   20loPI   C2B  318   2.975   5.552   8.893 -0.0355 -0.1111  0.1204
   20loPI   C3B  319   2.632   5.389   8.649 -0.0110  0.2058  0.4172
   20loPI   C4B  320   2.538   4.988   8.542  0.0128  0.0937 -0.4920
   21loPI    C1  321  11.688   8.825  10.508 -0.0560  0.2468  0.0896
   21loPI    C2  322  11.706   8.539  10.787  0.0431 -0.0543 -0.2165
   21loPI    C3  323  11.394   8.789  10.777  0.0522 -0.0197  0.1763
   21loPI   PO4  324  11.953   8.762  10.394 -0.0101  0.1548 -0.2900
   21loPI   GL1  325  12.130   8.559  10.101  0.1967 -0.1292 -0.0853
   21loPI   GL2  326  12.137   8.284  10.097  0.1840 -0.1822 -0.1070
   21loPI   C1A  327  11.930   8.572   9.687 -0.1712  0.2757  0.0445
   21loPI   C2A  328  11.787   8.558   9.290 -0.2739  0.3931  0.0563
   21loPI   C3A  329  11.884   8.789   8.976  0.1315  0.0573 -0.0315
   21loPI   C4A  330  11.747   9.092   8.678 -0.0456 -0.0356  0.0048
   21loPI   C5A  331  11.885   9.269   8.302 -0.2474 -0.0599 -0.0157
   21loPI   C6A  332  12.350   9.250   8.084  0.0406  0.3238 -0.0910
   21loPI   C1B  333  12.297   8.159   9.728  0.1477 -0.0387  0.0623
   21loPI   C2B  334  12.298   8.169   9.299  0.3508  0.0336 -0.1965
   21loPI   C3B  335  11.960   8.106   8.967  0.2204 -0.0153 -0.1542
   21loPI   C4B  336  11.801   8.078   8.561  0.0941  0.1161 -0.1496
   22loPI    C1  337   6.581  18.002   9.663  0.0695  0.0334 -0.0891
   22loPI    C2  338   6.643  17.738   9.957 -0.0801  0.1397  0.0398
   22loPI    C3  339   6.294  17.930   9.932 -0.0896  0.0899 -0.2425
   22loPI   PO4  340   6.600  17.846   9.476 -0.1549  0.6859  0.0129
   22loPI   GL1  341   7.012  17.674   9.220  0.0704  0.0115 -0.2204
   22loPI   GL2  342   6.799  17.438   9.221 -0.0341 -0.1668 -0.0452
   22loPI   C1A  343   6.926  17.798   8.791 -0.2096  0.2346  0.2517
   22loPI   C2A  344   6.900  17.853   8.396 -0.2067  0.0808  0.0217
   22loPI   C3A  345   7.052  17.719   7.970  0.0789  0.2223  0.0793
   22loPI   C4A  346   7.154  17.514   7.538 -0.2140  0.2579 -0.2543
   22loPI   C5A  347   7.246  17.188   7.287  0.1364  0.0972 -0.0313
   22loPI   C6A  348   7.498  16.748   7.349 -0.0767 -0.2828  0.0801
   22loPI   C1B  349   6.755  17.254   8.823  0.0876 -0.2912  0.0121
   22loPI   C2B  350   6.727  17.343   8.402  0.1234 -0.0636 -0.0267
   22loPI   C3B  351   6.796  17.310   7.913 -0.1938 -0.0655 -0.1718
   22loPI   C4B  352   6.772  17.136   7.518 -0.1361  0.0023 -0.0116
   23loPI    C1  353  10.171   1.399  10.379 -0.0126 -0.0171  0.0106
   23loPI    C2  354  10.431   1.172  10.582  0.0520  0.0968  0.0559
   23loPI    C3  355  10.318   1.527  10.728  0.0295  0.1393 -0.0637
   23loPI   PO4  356  10.258   1.344  10.115  0.0212  0.1548 -0.1555
   23loPI   GL1  357  10.260   1.570   9.720 -0.0013  0.1486  0.0690
   23loPI   GL2  358   9.996   1.799   9.645  0.1817  0.0483  0.0386
   23loPI   C1A  359  10.427   1.406   9.415  0.1035 -0.3132 -0.2196
   23loPI   C2A  360  10.453   1.245   9.047  0.0017  0.0714  0.0205
   23loPI   C3A  361  10.488   1.048   8.621 -0.1943 -0.0969  0.3954
   23loPI   C4A  362  10.745   1.054   8.222 -0.1240  0.2016  0.1429
   23loPI   C5A  363  10.970   0.981   7.864 -0.1127  0.1292 -0.1207
   23loPI   C6A  364  11.216   0.632   7.605 -0.4748 -0.0356  0.4419
   23loPI   C1B  365  10.133   1.881   9.180  0.1144 -0.0474 -0.2117
   23loPI   C2B  366  10.321   1.676   8.840 -0.2147 -0.2566 -0.0637
   23loPI   C3B  367  10.382   1.907   8.529  0.0353 -0.0539  0.0537
   23loPI   C4B  368  10.507   2.181   8.242 -0.3296 -0.4426  0.1299
   24loPI    C1  369   1.087   3.373  10.612  0.1625  0.0625  0.0989
   24loPI    C2  370   0.905   3.561  10.915 -0.0554  0.0226 -0.0053
   24loPI    C3  371   1.162   3.264  10.990  0.1211  0.2111  0.1508
   24loPI   PO4  372   0.808   3.476  10.432  0.1646  0.1882 -0.1752
   24loPI   GL1  373   0.697   3.430  10.089 -0.0014 -0.2617  0.2529
   24loPI   GL2  374   0.565   3.618  10.026  0.0156  0.0166  0.0541
   24loPI   C1A  375   0.836   3.107   9.700  0.0869  0.0074  0.0644
   24loPI   C2A  376   0.993   2.744   9.407  0.1304  0.1522  0.0220
   24loPI   C3A  377   1.254   2.613   8.957  0.0676 -0.1076  0.0164
   24loPI   C4A  378   1.118   2.657   8.477 -0.3889 -0.0298  0.0436
   24loPI   C5A  379   0.820   2.601   8.140 -0.0562 -0.1822  0.1273
   24loPI   C6A  380   0.707   2.602   7.695 -0.2254  0.2930  0.1361
   24loPI   C1B  381   0.703   3.616   9.575  0.1107  0.0755 -0.1422
   24loPI   C2B  382   0.533   3.668   9.189 -0.2254  0.0740  0.0933
   24loPI   C3B  383   0.320   3.926   8.716  0.0618 -0.4069 -0.3078
   24loPI   C4B  384   0.092   4.211   8.409 -0.0143 -0.0118  0.0215
   25loPI    C1  385   3.268   4.123  10.582  0.2411 -0.0774  0.2378
   25loPI    C2  386   3.104   4.359  10.860  0.2638  0.4737 -0.1973
   25loPI    C3  387   3.437   4.153  10.943 -0.1088  0.0776  0.3930
   25loPI   PO4  388   3.110   4.125  10.386  0.0911 -0.2366 -0.0635
   25loPI   GL1  389   3.008   4.283   9.945 -0.0042  0.2752  0.0195
   25loPI   GL2  390   3.049   4.508   9.668 -0.0624 -0.4371 -0.0003
   25loPI   C1A  391   2.702   4.159   9.609  0.3352 -0.3325  0.0988
   25loPI   C2A  392   2.659   4.100   9.248  0.1975 -0.2446  0.0117
   25loPI   C3A  393   2.592   4.087   8.740 -0.2018 -0.3069 -0.3171
   25loPI   C4A  394   2.237   4.300   8.482 -0.0490 -0.0763 -0.3418
   25loPI   C5A  395   2.217   4.330   8.054  0.0144  0.2235 -0.0849
   25loPI   C6A  396   1.908   4.437   7.722 -0.3970 -0.2160 -0.2140
   25loPI   C1B  397   2.948   4.617   9.269  0.1756 -0.1614  0.2900
   25loPI   C2B  398   2.748   4.555   8.843  0.3049  0.0808 -0.1201
   25loPI   C3B  399   2.638   4.480   8.379  0.0912 -0.1387  0.2370
   25loPI   C4B  400   2.619   4.500   7.926 -0.0880 -0.0981  0.0454
   26loPI    C1  401   4.037   4.264  10.238 -0.0769 -0.0786 -0.0733
   26loPI    C2  402   3.790   4.083  10.496  0.2925 -0.1801  0.2174
   26loPI    C3  403   4.042   4.366  10.625  0.2191  0.0378 -0.1054
   26loPI   PO4  404   3.896   4.180   9.965  0.1722 -0.1829 -0.1664
   26loPI   GL1  405   3.913   4.326   9.555 -0.2042  0.0735  0.0975
   26loPI   GL2  406   3.621   4.465   9.618 -0.0779  0.1596  0.0131
   26loPI   C1A  407   4.002   4.599   9.175 -0.4872 -0.0352  0.2192
   26loPI   C2A  408   3.827   4.614   8.779  0.0976 -0.3198  0.1889
   26loPI   C3A  409   3.739   4.522   8.328  0.2597 -0.1264  0.2775
   26loPI   C4A  410   4.033   4.553   8.055  0.3002  0.0762 -0.0267
   26loPI   C5A  411   4.468   4.483   7.815  0.0049  0.1187 -0.1543
   26loPI   C6A  412   4.522   4.620   7.283  0.2353  0.1231 -0.0351
   26loPI   C1B  413   3.489   4.561   9.211  0.1937 -0.0586  0.0626
   26loPI   C2B  414   3.333   4.628   8.898 -0.1099  0.0961 -0.2480
   26loPI   C3B  415   3.095   4.716   8.532 -0.0772 -0.1098 -0.0899
   26loPI   C4B  416   3.285   4.868   8.112 -0.2587 -0.1137 -0.0542
   27loPI    C1  417   8.975  11.123  10.216  0.0829  0.3765  0.1206
   27loPI    C2  418   9.241  11.100  10.514 -0.1936  0.1985  0.3592
   27loPI    C3  419   8.879  10.936  10.557 -0.1472 -0.0636 -0.1762
   27loPI   PO4  420   9.200  11.108   9.982 -0.1793 -0.2291 -0.1078
   27loPI   GL1  421   9.164  10.970   9.527  0.0028 -0.1119  0.0954
   27loPI   GL2  422   9.474  10.799   9.660  0.2597 -0.1126 -0.0054
   27loPI   C1A  423   9.457  10.876   9.145  0.1541  0.2841  0.1652
   27loPI   C2A  424   9.592  10.907   8.700 -0.4004 -0.1024  0.0642
   27loPI   C3A  425   9.776  11.061   8.307 -0.4316 -0.0141  0.1220
   27loPI   C4A  426   9.868  11.141   7.858  0.1299 -0.0634 -0.1096
   27loPI   C5A  427   9.975  11.347   7.410 -0.0885 -0.1572  0.1925
   27loPI   C6A  428   9.706  11.363   7.065 -0.1115 -0.3583  0.2525
   27loPI   C1B  429   9.670  11.121   9.488 -0.2625  0.3637  0.1398
   27loPI   C2B  430   9.807  11.503   9.328 -0.1641  0.0654  0.1560
   27loPI   C3B  431   9.779  11.764   9.082  0.1417 -0.2490  0.0456
   27loPI   C4B  432   9.671  12.200   9.016 -0.0236  0.1071 -0.1668
   28loPI    C1  433   7.169   0.894  10.157 -0.2642  0.2682 -0.2895
   28loPI    C2  434   6.862   0.735  10.357  0.1031  0.1612  0.2080
   28loPI    C3  435   7.208   0.536  10.331  0.1266  0.2613 -0.3813
   28loPI   PO4  436   7.010   0.925   9.872 -0.1487 -0.0711 -0.1224
   28loPI   GL1  437   6.894   0.791   9.469 -0.2134  0.1690 -0.0380
   28loPI   GL2  438   6.612   0.851   9.588  0.2740 -0.1011 -0.0558
   28loPI   C1A  439   6.781   0.608   9.057  0.0959  0.2258  0.1637
   28loPI   C2A  440   6.615   0.461   8.623  0.1499  0.0902  0.0811
   28loPI   C3A  441   6.751   0.552   8.192 -0.2574  0.0010 -0.0607
   28loPI   C4A  442   6.690   0.745   7.890  0.1846 -0.1890  0.5290
   28loPI   C5A  443   6.764   1.178   7.740 -0.1579 -0.0975 -0.1664
   28loPI   C6A  444   6.931   1.328   7.292  0.3961  0.0849 -0.1411
   28loPI   C1B  445   6.571   1.098   9.221  0.2849 -0.3684 -0.1246
   28loPI   C2B  446   6.406   1.473   8.989 -0.2156  0.1373  0.0530
   28loPI   C3B  447   6.140   1.716   8.791  0.0062  0.0457  0.2782
   28loPI   C4B  448   6.055   2.234   8.619  0.0854 -0.2767 -0.0644
   29loPI    C1  449  13.414   3.908   9.906 -0.0680 -0.4678  0.1463
   29loPI    C2  450  13.549   3.994  10.273 -0.0299  0.0393  0.0199
   29loPI    C3  451  13.176   3.860  10.224  0.0790 -0.3743  0.2716
   29loPI   PO4  452  13.550   3.751   9.828 -0.0726 -0.0417  0.0390
   29loPI   GL1  453  13.783   3.561   9.714 -0.1185 -0.2866  0.0793
   29loPI   GL2  454  13.719   3.207   9.674 -0.3143 -0.1783  0.4119
   29loPI   C1A  455  13.921   3.515   9.290  0.1993 -0.2812  0.2467
   29loPI   C2A  456  13.955   3.603   8.819  0.3992 -0.0679  0.2005
   29loPI   C3A  457  13.966   3.695   8.467 -0.0923  0.1226 -0.0667
   29loPI   C4A  458  13.904   3.619   7.986 -0.0095 -0.1783 -0.1569
   29loPI   C5A  459  14.238   3.711   7.733 -0.1046  0.0401  0.2331
   29loPI   C6A  460  14.148   4.022   7.482  0.1676 -0.3087  0.0027
   29loPI   C1B  461  13.608   3.088   9.297 -0.0821  0.1696  0.0937
   29loPI   C2B  462  13.668   3.161   8.873  0.4835 -0.2978 -0.0748
   29loPI   C3B  463  13.562   3.131   8.473 -0.0003 -0.0016 -0.0516
   29loPI   C4B  464  13.706   3.149   8.137 -0.3020 -0.0598  0.2074
   30loPI    C1  465  18.484  13.693  10.724  0.0114 -0.0363 -0.0053
   30loPI    C2  466  18.358  13.315  10.753  0.0538 -0.0429  0.0942
   30loPI    C3  467  18.465  13.516  11.082  0.0012  0.0660  0.0452
   30loPI   PO4  468  18.557  13.622  10.435 -0.1090  0.0382 -0.1274
   30loPI   GL1  469  18.467  13.685  10.075  0.1446  0.2946  0.1353
   30loPI   GL2  470  18.477  13.434   9.957 -0.0123  0.0637 -0.2546
   30loPI   C1A  471  18.362  13.908   9.720 -0.2030 -0.0068 -0.0361
   30loPI   C2A  472  18.298  13.967   9.239 -0.0385 -0.1487  0.0637
   30loPI   C3A  473  18.361  14.102   8.760  0.0310 -0.2733 -0.2130
   30loPI   C4A  474  18.616  13.979   8.354  0.2633 -0.2553 -0.0773
   30loPI   C5A  475  18.549  13.895   7.937  0.1566  0.3008  0.1369
   30loPI   C6A  476  18.497  14.229   7.707  0.1129  0.1285 -0.1986
   30loPI   C1B  477  18.336  13.401   9.575  0.0784 -0.3311 -0.1125
   30loPI   C2B  478  18.479  13.343   9.157 -0.4823  0.4441 -0.2650
   30loPI   C3B  479  18.425  13.182   8.800 -0.4694 -0.2066  0.0899
   30loPI   C4B  480  18.341  13.229   8.388  0.1165  0.1666  0.1060
   31loPI    C1  481   6.265  14.352  10.097  0.0606 -0.0419 -0.1191
   31loPI    C2  482   6.223  14.737  10.195  0.0976 -0.0255 -0.1678
   31loPI    C3  483   6.316  14.468  10.476 -0.0322 -0.0152 -0.1146
   31loPI   PO4  484   6.054  14.313   9.900  0.1655 -0.0240 -0.1179
   31loPI   GL1  485   5.932  14.252   9.510  0.0118 -0.1767  0.1222
   31loPI   GL2  486   5.582  14.402   9.485  0.0888  0.0448  0.4979
   31loPI   C1A  487   6.035  14.019   9.141  0.0097  0.1583  0.0806
   31loPI   C2A  488   5.992  13.830   8.655 -0.2526 -0.1213 -0.2276
   31loPI   C3A  489   5.955  14.092   8.279 -0.1635  0.0179  0.5084
   31loPI   C4A  490   5.808  14.429   8.137  0.0459 -0.0020  0.2096
   31loPI   C5A  491   5.564  14.624   7.810  0.4855  0.2331 -0.0325
   31loPI   C6A  492   5.419  15.022   7.560  0.3713 -0.2243  0.1052
   31loPI   C1B  493   5.629  14.355   9.145 -0.0536 -0.0331  0.3534
   31loPI   C2B  494   5.847  14.378   8.677  0.2230 -0.0019  0.0041
   31loPI   C3B  495   5.446  14.286   8.573 -0.2942 -0.1232 -0.4496
   31loPI   C4B  496   5.063  14.531   8.435  0.1497 -0.0274  0.0741
   32loPI    C1  497  11.760   4.793  10.392 -0.1292 -0.0898  0.0382
   32loPI    C2  498  12.051   4.887  10.650 -0.0441 -0.0022 -0.0883
   32loPI    C3  499  11.915   4.511  10.631 -0.0743 -0.0026  0.1062
   32loPI   PO4  500  11.762   5.021  10.254 -0.0017  0.3740  0.0270
   32loPI   GL1  501  11.604   5.060   9.876 -0.0773  0.3098  0.1294
   32loPI   GL2  502  11.356   5.038   9.790 -0.2516 -0.2938 -0.1718
   32loPI   C1A  503  11.660   5.112   9.394 -0.2824  0.1609 -0.0640
   32loPI   C2A  504  11.773   5.191   8.930 -0.1120  0.2005 -0.1566
   32loPI   C3A  505  11.710   5.435   8.534  0.1169 -0.1184 -0.2772
   32loPI   C4A  506  11.482   5.527   8.172  0.0445  0.0847 -0.1497
   32loPI   C5A  507  11.436   5.879   7.895  0.3305 -0.4329  0.0098
   32loPI   C6A  508  11.512   6.342   8.022  0.0090 -0.0439 -0.1192
   32loPI   C1B  509  11.290   4.819   9.416  0.2719  0.3066 -0.0659
   32loPI   C2B  510  11.275   4.942   8.991 -0.0502 -0.2138  0.1214
   32loPI   C3B  511  11.116   4.812   8.725 -0.1261  0.2053 -0.1640
   32loPI   C4B  512  10.818   4.601   8.435 -0.0381  0.2808 -0.3159
   33loPI    C1  513   5.464  15.614  10.020 -0.0899 -0.0568  0.1265
   33loPI    C2  514   5.174  15.379   9.878 -0.0356  0.1122 -0.2794
   33loPI    C3  515   5.081  15.714  10.076 -0.1128 -0.0426 -0.0496
   33loPI   PO4  516   5.657  15.588   9.830  0.1294 -0.0423  0.0268
   33loPI   GL1  517   5.580  15.399   9.593 -0.1595  0.5079 -0.1059
   33loPI   GL2  518   5.530  15.079   9.528 -0.4638 -0.1534  0.0716
   33loPI   C1A  519   5.831  15.332   9.223 -0.0672  0.2606 -0.0483
   33loPI   C2A  520   6.005  15.377   8.892  0.1632  0.1497  0.2428
   33loPI   C3A  521   5.824  15.347   8.451  0.2321 -0.1034  0.4247
   33loPI   C4A  522   5.831  15.565   8.170  0.1234 -0.2994 -0.0518
   33loPI   C5A  523   5.794  16.009   8.078  0.0867  0.0611  0.0890
   33loPI   C6A  524   5.900  16.156   7.656  0.1449 -0.0964 -0.1118
   33loPI   C1B  525   5.595  14.848   9.185 -0.1451  0.0195  0.1097
   33loPI   C2B  526   5.315  14.706   8.798 -0.2060 -0.0291 -0.1868
   33loPI   C3B  527   5.440  14.842   8.345  0.0466 -0.2149  0.4687
   33loPI   C4B  528   5.653  15.082   8.033 -0.2884  0.1113 -0.3949
   34loPI    C1  529   7.666   4.287  10.267 -0.3358 -0.0999  0.1376
   34loPI    C2  530   7.843   4.300  10.625  0.1818  0.1585 -0.1165
   34loPI    C3  531   7.670   3.962  10.500  0.1924  0.0004  0.2807
   34loPI   PO4  532   7.788   4.342  10.076 -0.3821 -0.1409 -0.0083
   34loPI   GL1  533   7.612   4.710   9.738 -0.2390 -0.0385 -0.0777
   34loPI   GL2  534   7.475   4.963   9.719 -0.1069 -0.0496 -0.0122
   34loPI   C1A  535   7.874   4.561   9.337  0.0904 -0.0545  0.1428
   34loPI   C2A  536   7.989   4.609   8.891  0.0281  0.0142 -0.3353
   34loPI   C3A  537   8.056   4.791   8.516  0.0298  0.4641 -0.1273
   34loPI   C4A  538   7.947   4.798   8.101  0.1424 -0.2739 -0.1604
   34loPI   C5A  539   7.739   4.721   7.691 -0.2000  0.0891  0.0083
   34loPI   C6A  540   7.630   4.771   7.262  0.5571 -0.1181  0.1040
   34loPI   C1B  541   7.403   4.790   9.327  0.1484  0.1655 -0.2353
   34loPI   C2B  542   7.406   4.919   8.922  0.0309  0.0793 -0.3117
   34loPI   C3B  543   7.290   5.129   8.562  0.3604 -0.1239  0.2582
   34loPI   C4B  544   7.135   5.361   8.218 -0.2283 -0.0093 -0.1597
   35loPI    C1  545  10.790   0.055  10.291  0.1982  0.1090 -0.0948
   35loPI    C2  546  10.744   0.091  10.687 -0.1842 -0.0129 -0.1241
   35loPI    C3  547  11.110   0.101  10.527  0.0049 -0.3283  0.2689
   35loPI   PO4  548  10.574   0.153  10.248  0.2213 -0.0661  0.4358
   35loPI   GL1  549  10.678   0.333   9.877 -0.3779  0.0087 -0.0363
   35loPI   GL2  550  10.437   0.503   9.743  0.0252 -0.3486  0.2625
   35loPI   C1A  551  11.102   0.271   9.661 -0.2183  0.0701  0.1565
   35loPI   C2A  552  11.487   0.323   9.340  0.1029  0.2268  0.0020
   35loPI   C3A  553  11.337   0.329   8.908  0.0987  0.1176 -0.0861
   35loPI   C4A  554  11.433   0.209   8.444 -0.1005  0.0930 -0.1838
   35loPI   C5A  555  11.533   0.388   8.015  0.0799  0.1346  0.0808
   35loPI   C6A  556  11.790   0.659   7.701  0.0212 -0.4227  0.1641
   35loPI   C1B  557  10.655   0.175   9.428 -0.1534  0.0294  0.1759
   35loPI   C2B  558  10.809  -0.079   9.123 -0.2853 -0.0739 -0.2621
   35loPI   C3B  559  10.783  -0.288   8.754 -0.1754 -0.0466 -0.1302
   35loPI   C4B  560  10.618  -0.352   8.366  0.0001  0.2180  0.0746
   36loPI    C1  561   0.742   1.228  10.473  0.2922  0.2855 -0.0042
   36loPI    C2  562   0.974   1.095  10.769 -0.1526 -0.0250  0.2162
   36loPI    C3  563   0.712   1.389  10.838 -0.1435  0.0137  0.0876
   36loPI   PO4  564   0.611   1.007  10.336  0.0608 -0.3296 -0.2057
   36loPI   GL1  565   0.670   0.613  10.069  0.2080 -0.0940 -0.1113
   36loPI   GL2  566   0.949   0.577  10.047 -0.3175  0.1245 -0.4025
   36loPI   C1A  567   0.705   0.297   9.662  0.0026 -0.0213 -0.2461
   36loPI   C2A  568   0.574   0.076   9.214 -0.1933  0.1022  0.1173
   36loPI   C3A  569   0.508   0.234   8.864 -0.2178  0.0078 -0.1506
   36loPI   C4A  570   0.412   0.447   8.552 -0.1994 -0.0493  0.0236
   36loPI   C5A  571   0.105   0.514   8.283  0.2092  0.0993 -0.1005
   36loPI   C6A  572  -0.134   0.618   7.848 -0.1122  0.0636 -0.1182
   36loPI   C1B  573   0.864   0.822   9.650  0.0543 -0.0046  0.0130
   36loPI   C2B  574   0.822   0.748   9.256 -0.0273 -0.2969  0.0512
   36loPI   C3B  575   0.870   0.592   8.842 -0.1193 -0.0796  0.1236
   36loPI   C4B  576   0.885   0.333   8.469 -0.2219 -0.4865  0.0693
   37loPI    C1  577   2.142   2.526  10.739  0.1527  0.0867  0.2169
   37loPI    C2  578   2.502   2.397  10.857  0.1153 -0.1456  0.0837
   37loPI    C3  579   2.178   2.319  11.080  0.0976 -0.2537  0.0207
   37loPI   PO4  580   2.068   2.597  10.364 -0.1391 -0.2105 -0.0240
   37loPI   GL1  581   1.844   2.781  10.092 -0.0240  0.0430  0.3500
   37loPI   GL2  582   1.597   2.674  10.129  0.0088  0.1743 -0.0546
   37loPI   C1A  583   1.948   2.861   9.697 -0.2290 -0.2147 -0.0639
   37loPI   C2A  584   1.683   2.983   9.266 -0.3900 -0.1121 -0.1269
   37loPI   C3A  585   1.698   2.909   8.833 -0.0128 -0.4591 -0.0915
   37loPI   C4A  586   1.651   2.886   8.415  0.2168  0.1728  0.2397
   37loPI   C5A  587   1.440   2.753   8.015  0.0530 -0.0417  0.0191
   37loPI   C6A  588   1.168   2.770   7.675  0.2876  0.1376  0.1256
   37loPI   C1B  589   1.267   2.593  10.010 -0.0699 -0.0570  0.0476
   37loPI   C2B  590   0.878   2.541   9.844  0.2195 -0.0199  0.0409
   37loPI   C3B  591   0.502   2.783   9.839 -0.1175 -0.0669 -0.0672
   37loPI   C4B  592   0.491   2.785   9.313 -0.1653 -0.2152  0.1238
   38loPI    C1  593   3.885  13.906  10.488  0.0807 -0.0451 -0.0352
   38loPI    C2  594   3.733  13.644  10.749  0.0562  0.1944  0.1955
   38loPI    C3  595   4.017  13.901  10.865  0.1707  0.1877 -0.0619
   38loPI   PO4  596   3.672  14.057  10.299  0.1300  0.1998  0.3663
   38loPI   GL1  597   3.659  14.139   9.826 -0.3204  0.2156 -0.0946
   38loPI   GL2  598   3.501  14.053   9.573  0.2213 -0.0742 -0.2443
   38loPI   C1A  599   3.866  14.379   9.524  0.4019 -0.1990 -0.3466
   38loPI   C2A  600   4.041  14.590   9.359  0.3468 -0.0592 -0.0330
   38loPI   C3A  601   4.254  14.562   9.025  0.0029  0.1820  0.1244
   38loPI   C4A  602   4.095  14.554   8.634 -0.0805 -0.0169  0.2367
   38loPI   C5A  603   3.711  14.431   8.296  0.0971  0.3149  0.0207
   38loPI   C6A  604   3.641  14.295   7.805  0.2432 -0.0567  0.0336
   38loPI   C1B  605   3.569  13.837   9.196 -0.1753 -0.3057 -0.1538
   38loPI   C2B  606   3.350  13.640   8.829  0.0064 -0.1271  0.2962
   38loPI   C3B  607   3.374  13.495   8.339  0.1438 -0.0474  0.1003
   38loPI   C4B  608   3.268  13.323   7.857 -0.1474 -0.1134 -0.1313
   39loPI    C1  609   8.709   0.499  10.022 -0.1174 -0.0323 -0.1019
   39loPI    C2  610   9.084   0.562  10.145 -0.1326 -0.0803 -0.0304
   39loPI    C3  611   8.934   0.191  10.141 -0.0768 -0.1026 -0.3539
   39loPI   PO4  612   8.662   0.746   9.886  0.0617  0.1222 -0.1083
   39loPI   GL1  613   8.978   1.056   9.682 -0.1203  0.0642  0.1155
   39loPI   GL2  614   9.092   0.752   9.583 -0.0143 -0.2337  0.1617
   39loPI   C1A  615   8.848   1.200   9.260  0.0853 -0.1010 -0.2223
   39loPI   C2A  616   8.909   1.232   8.837  0.2538 -0.3512 -0.2595
   39loPI   C3A  617   9.035   1.301   8.347 -0.1587  0.1849  0.3638
   39loPI   C4A  618   9.187   1.286   7.975 -0.0258  0.0570 -0.2302
   39loPI   C5A  619   9.209   1.007   7.632 -0.0146  0.3158  0.1430
   39loPI   C6A  620   9.143   0.605   7.476  0.2439  0.1472  0.1630
   39loPI   C1B  621   9.019   0.755   9.133  0.2038  0.0558 -0.0262
   39loPI   C2B  622   8.988   0.753   8.732  0.2742 -0.3327  0.0196
   39loPI   C3B  623   9.123   0.843   8.231  0.2480 -0.0215 -0.1195
   39loPI   C4B  624   8.845   0.785   7.881  0.1732 -0.0788 -0.0575
   40loPI    C1  625   9.412  11.687  10.652  0.1920 -0.4632 -0.0087
   40loPI    C2  626   9.604  11.635  10.999  0.0224 -0.2566  0.1190
   40loPI    C3  627   9.303  11.897  10.975  0.2098 -0.0684 -0.2531
   40loPI   PO4  628   9.660  11.761  10.400 -0.0104  0.2246  0.0799
   40loPI   GL1  629   9.592  11.904   9.937 -0.1866 -0.0600  0.0020
   40loPI   GL2  630   9.837  11.787   9.762  0.2950  0.2636 -0.1682
   40loPI   C1A  631   9.439  12.034   9.569  0.1981  0.2985  0.2867
   40loPI   C2A  632   9.294  11.881   9.159 -0.0943 -0.0917 -0.1553
   40loPI   C3A  633   9.407  11.909   8.763  0.0814  0.0821 -0.1718
   40loPI   C4A  634   9.363  11.980   8.359  0.0785 -0.1286 -0.1241
   40loPI   C5A  635   9.130  11.857   8.005  0.0036 -0.1010  0.1135
   40loPI   C6A  636   9.124  11.447   7.868  0.0840 -0.3981 -0.2921
   40loPI   C1B  637   9.934  12.038   9.489 -0.1437 -0.1766 -0.0904
   40loPI   C2B  638  10.143  12.140   9.111 -0.0750  0.1368 -0.1310
   40loPI   C3B  639  10.003  11.999   8.610  0.1238 -0.0410 -0.1917
   40loPI   C4B  640  10.028  12.013   8.111 -0.0279 -0.5187 -0.2102
   41loPI    C1  641   7.442   3.473  10.456  0.0038 -0.1513  0.1645
   41loPI    C2  642   7.165   3.738  10.571  0.1764  0.0309  0.1654
   41loPI    C3  643   7.450   3.624  10.827  0.1134 -0.1427  0.1590
   41loPI   PO4  644   7.476   3.496  10.250  0.0214 -0.0700 -0.4621
   41loPI   GL1  645   7.617   3.527   9.724 -0.0565  0.1477 -0.0534
   41loPI   GL2  646   7.807   3.128   9.619  0.2506  0.1139  0.0070
   41loPI   C1A  647   7.470   3.656   9.339 -0.2520  0.0798  0.2103
   41loPI   C2A  648   7.603   3.905   9.041  0.0883 -0.1346 -0.0050
   41loPI   C3A  649   7.489   3.960   8.638 -0.1360 -0.0526  0.1871
   41loPI   C4A  650   7.283   4.229   8.432  0.0972 -0.0835  0.0854
   41loPI   C5A  651   7.058   4.368   8.155  0.3425 -0.1579  0.2788
   41loPI   C6A  652   6.764   4.648   7.882  0.2306 -0.0015 -0.0099
   41loPI   C1B  653   8.100   3.156   9.372  0.0528 -0.0304  0.2570
   41loPI   C2B  654   8.113   3.086   8.973 -0.0325 -0.2701 -0.0715
   41loPI   C3B  655   8.267   2.974   8.527 -0.0200  0.0001 -0.1441
   41loPI   C4B  656   8.442   3.036   8.199 -0.1201 -0.0951 -0.1217
   42loPI    C1  657  17.931  12.552  10.505  0.3180 -0.2781 -0.1438
   42loPI    C2  658  18.151  12.822  10.702 -0.1246 -0.0089 -0.0052
   42loPI    C3  659  18.093  12.458  10.858  0.2361 -0.0912 -0.0553
   42loPI   PO4  660  18.059  12.493  10.248  0.0411  0.3718 -0.0688
   42loPI   GL1  661  18.254  12.223   9.930  0.4045 -0.1980 -0.1875
   42loPI   GL2  662  18.336  12.513   9.870 -0.1491  0.0328 -0.1117
   42loPI   C1A  663  18.095  11.937   9.560  0.1811  0.1681  0.1241
   42loPI   C2A  664  18.191  11.929   9.105 -0.2325 -0.0738  0.0689
   42loPI   C3A  665  18.194  12.084   8.640  0.3131  0.1544  0.2140
   42loPI   C4A  666  18.099  12.387   8.313  0.1152  0.1242  0.1567
   42loPI   C5A  667  18.196  12.731   8.224 -0.1161  0.1761  0.0890
   42loPI   C6A  668  18.502  13.035   7.949 -0.2742  0.2308  0.1824
   42loPI   C1B  669  18.121  12.513   9.520 -0.1713 -0.1313  0.2648
   42loPI   C2B  670  17.993  12.377   9.080 -0.1867 -0.3500 -0.0936
   42loPI   C3B  671  17.752  12.325   8.636  0.3155 -0.0987 -0.1288
   42loPI   C4B  672  17.604  12.183   8.260 -0.0199 -0.2865  0.2288
   43loPI    C1  673   6.879   4.106  10.219  0.1289 -0.0294  0.3585
   43loPI    C2  674   6.804   4.086  10.611  0.1404 -0.1036  0.3571
   43loPI    C3  675   6.619   3.837  10.360  0.0919 -0.0195  0.3091
   43loPI   PO4  676   7.201   4.051  10.173 -0.1942 -0.0734 -0.1180
   43loPI   GL1  677   7.405   3.899   9.875  0.1519  0.1124  0.1350
   43loPI   GL2  678   7.147   3.827   9.739  0.0355 -0.2135  0.0397
   43loPI   C1A  679   7.560   4.133   9.504  0.2815  0.0838  0.1551
   43loPI   C2A  680   7.506   4.368   9.025 -0.0409 -0.2981  0.3195
   43loPI   C3A  681   7.587   4.566   8.629 -0.1037 -0.0457  0.0718
   43loPI   C4A  682   7.347   4.748   8.239  0.0417  0.0804 -0.0222
   43loPI   C5A  683   7.245   4.945   7.895 -0.0185  0.0581  0.0065
   43loPI   C6A  684   7.234   5.164   7.554  0.0439  0.0988 -0.3166
   43loPI   C1B  685   7.095   3.909   9.270 -0.2046 -0.2671 -0.2057
   43loPI   C2B  686   6.941   4.142   8.919  0.0731  0.1187  0.1136
   43loPI   C3B  687   6.793   4.178   8.487 -0.1439 -0.2185 -0.3061
   43loPI   C4B  688   6.632   4.169   8.101  0.1148 -0.2874 -0.0092
   44loPI    C1  689   2.032   1.854  10.554  0.0638  0.1113  0.0906
   44loPI    C2  690   1.896   1.958  10.915  0.0461 -0.0010  0.1164
   44loPI    C3  691   2.002   1.579  10.842 -0.1163 -0.0162 -0.0475
   44loPI   PO4  692   2.201   2.099  10.466  0.0330 -0.0491 -0.0130
   44loPI   GL1  693   2.381   2.178  10.130  0.1482 -0.2336 -0.0222
   44loPI   GL2  694   2.297   2.468   9.974  0.1511 -0.2255  0.0042
   44loPI   C1A  695   2.586   2.072   9.887 -0.0355 -0.3261 -0.0245
   44loPI   C2A  696   2.640   2.160   9.548  0.0652 -0.1019 -0.3241
   44loPI   C3A  697   2.557   2.292   9.134 -0.0381  0.1582 -0.0381
   44loPI   C4A  698   2.600   2.553   8.752  0.1523  0.2998 -0.1118
   44loPI   C5A  699   2.534   2.371   8.421 -0.2644 -0.0156 -0.0278
   44loPI   C6A  700   2.305   2.368   7.979 -0.0793  0.0512  0.0249
   44loPI   C1B  701   2.006   2.374   9.645 -0.2570  0.2207 -0.0204
   44loPI   C2B  702   2.097   2.259   9.282  0.0139  0.1213  0.1254
   44loPI   C3B  703   2.177   2.209   8.828 -0.0850  0.1228  0.2857
   44loPI   C4B  704   2.017   2.141   8.381 -0.0731  0.1634  0.1569
   45loPI    C1  705  16.263  11.362  10.542 -0.3442 -0.0480  0.0454
   45loPI    C2  706  15.952  11.132  10.646 -0.3208  0.0419  0.3227
   45loPI    C3  707  16.305  11.085  10.828 -0.0843 -0.2578 -0.1897
   45loPI   PO4  708  16.211  11.406  10.270 -0.0772  0.0259 -0.0365
   45loPI   GL1  709  16.271  11.454   9.789  0.2047 -0.1110 -0.0107
   45loPI   GL2  710  16.330  11.751   9.703  0.2921  0.0201  0.2115
   45loPI   C1A  711  15.792  11.283   9.664 -0.0583  0.1591 -0.0619
   45loPI   C2A  712  15.551  11.160   9.304 -0.3361 -0.0657 -0.2391
   45loPI   C3A  713  15.331  11.334   8.919  0.0876 -0.0412  0.0202
   45loPI   C4A  714  15.295  11.308   8.496 -0.0393 -0.1097  0.1143
   45loPI   C5A  715  15.287  11.168   8.069 -0.0569  0.0513 -0.2946
   45loPI   C6A  716  15.652  11.180   7.760 -0.0367  0.0912 -0.0349
   45loPI   C1B  717  16.262  11.614   9.257 -0.0620  0.1439 -0.0556
   45loPI   C2B  718  16.254  11.703   8.793  0.1390 -0.1186  0.0034
   45loPI   C3B  719  16.527  11.751   8.536 -0.2217  0.1839  0.0888
   45loPI   C4B  720  16.717  11.885   8.125 -0.0466  0.1277  0.1929
   46loPI    C1  721   9.960   8.372  10.245 -0.2067  0.1773  0.0355
   46loPI    C2  722   9.872   8.176  10.582  0.1241 -0.0276  0.0072
   46loPI    C3  723   9.865   8.576  10.575 -0.1866 -0.0275  0.1693
   46loPI   PO4  724  10.025   8.136  10.022 -0.2005 -0.1525 -0.0138
   46loPI   GL1  725  10.217   8.051   9.591 -0.2101  0.0706 -0.0215
   46loPI   GL2  726  10.446   7.869   9.778 -0.5961 -0.0273 -0.2745
   46loPI   C1A  727  10.318   8.063   9.195  0.0794  0.1410 -0.1908
   46loPI   C2A  728  10.215   7.996   8.844  0.2806 -0.0630 -0.0205
   46loPI   C3A  729  10.218   7.835   8.427 -0.0274 -0.0683  0.0451
   46loPI   C4A  730   9.921   7.598   8.128 -0.1388 -0.0811  0.4702
   46loPI   C5A  731   9.947   7.275   7.795 -0.4256 -0.2142  0.0241
   46loPI   C6A  732  10.012   6.873   7.876 -0.1595 -0.1727 -0.1230
   46loPI   C1B  733  10.466   7.645   9.458 -0.0897  0.0398  0.1602
   46loPI   C2B  734  10.416   7.577   9.009  0.0401 -0.0408  0.0977
   46loPI   C3B  735  10.650   7.420   8.649  0.0355 -0.0599  0.1909
   46loPI   C4B  736  10.737   7.547   8.194 -0.1542 -0.2353  0.3098
   47loPI    C1  737   6.200  15.332  10.461 -0.0179  0.0910  0.0644
   47loPI    C2  738   5.950  15.035  10.557 -0.1132  0.0360 -0.3352
   47loPI    C3  739   6.233  15.150  10.816 -0.1991 -0.2705 -0.0992
   47loPI   PO4  740   6.165  15.284  10.121  0.1834 -0.0752 -0.3490
   47loPI   GL1  741   6.032  15.177   9.724  0.4873 -0.0336  0.0030
   47loPI   GL2  742   5.886  14.912   9.807 -0.2865 -0.0831 -0.0982
   47loPI   C1A  743   6.296  15.267   9.350  0.3814  0.0149 -0.1372
   47loPI   C2A  744   6.271  14.988   9.042 -0.1637 -0.0624  0.1170
   47loPI   C3A  745   6.295  15.113   8.621  0.0964 -0.0519  0.2717
   47loPI   C4A  746   6.331  15.392   8.390 -0.0980 -0.2126  0.2260
   47loPI   C5A  747   6.585  15.646   8.057 -0.0119  0.0549  0.1193
   47loPI   C6A  748   6.628  15.580   7.704 -0.2938  0.0168  0.1003
   47loPI   C1B  749   6.046  14.724   9.418 -0.0826 -0.1002 -0.0879
   47loPI   C2B  750   6.100  14.512   9.085  0.1038  0.0635  0.0003
   47loPI   C3B  751   6.398  14.617   8.689  0.0936 -0.1454 -0.1131
   47loPI   C4B  752   6.373  14.511   8.266  0.0666  0.0298  0.0570
   48loPI    C1  753   6.103   2.281  10.134 -0.0659 -0.3273 -0.0062
   48loPI    C2  754   6.103   2.022  10.439  0.0200 -0.0349  0.2475
   48loPI    C3  755   5.907   2.369  10.472  0.2467  0.1129  0.0688
   48loPI   PO4  756   6.101   2.038   9.920 -0.0267 -0.2025  0.0658
   48loPI   GL1  757   6.204   2.016   9.533 -0.3059  0.0076  0.1202
   48loPI   GL2  758   5.837   2.107   9.418 -0.1261  0.0685  0.2803
   48loPI   C1A  759   6.310   2.262   9.200 -0.0837 -0.2265  0.1843
   48loPI   C2A  760   6.374   2.577   8.913 -0.1091  0.0713 -0.3738
   48loPI   C3A  761   6.413   2.716   8.561  0.1915 -0.0364  0.3452
   48loPI   C4A  762   6.477   2.752   8.087 -0.0512  0.1006  0.1207
   48loPI   C5A  763   6.361   2.509   7.780  0.1109 -0.2809  0.3902
   48loPI   C6A  764   6.032   2.331   7.652  0.1281 -0.1025 -0.2720
   48loPI   C1B  765   5.803   2.388   9.037 -0.3283 -0.1089 -0.0616
   48loPI   C2B  766   5.476   2.468   8.735  0.0247 -0.1135  0.0905
   48loPI   C3B  767   5.342   2.538   8.327  0.0271 -0.1972  0.0861
   48loPI   C4B  768   5.581   2.537   7.946  0.0359 -0.3134 -0.1885
   49loPI    C1  769  13.957   4.419  10.321 -0.0696 -0.0242 -0.1278
   49loPI    C2  770  14.058   4.159  10.607  0.3279  0.1166 -0.1350
   49loPI    C3  771  13.696   4.328  10.610  0.1794 -0.1953  0.0467
   49loPI   PO4  772  14.019   4.258  10.062  0.2860  0.1958 -0.4226
   49loPI   GL1  773  14.037   4.312   9.590 -0.0779  0.0556 -0.1835
   49loPI   GL2  774  13.956   4.004   9.466 -0.0893  0.1220  0.0861
   49loPI   C1A  775  14.322   4.319   9.104 -0.0163 -0.0389  0.1214
   49loPI   C2A  776  14.172   4.180   8.709 -0.1027  0.5039 -0.4771
   49loPI   C3A  777  14.372   4.074   8.279  0.0998  0.3382  0.1893
   49loPI   C4A  778  14.331   4.233   7.873 -0.1384 -0.0194 -0.1324
   49loPI   C5A  779  14.246   4.631   7.686  0.2195  0.2977 -0.2285
   49loPI   C6A  780  14.085   4.812   7.310 -0.0941  0.2333 -0.2489
   49loPI   C1B  781  13.852   4.060   9.070  0.1718  0.1886  0.1189
   49loPI   C2B  782  13.649   4.242   8.789 -0.0972 -0.2671 -0.1388
   49loPI   C3B  783  13.698   4.109   8.291 -0.3242  0.2536  0.0296
   49loPI   C4B  784  13.806   4.132   7.856  0.0634  0.0452 -0.1329
   50loPI    C1  785  12.687  11.919  10.545  0.0558 -0.0009 -0.1804
   50loPI    C2  786  12.751  11.660  10.844 -0.0148  0.0054 -0.1597
   50loPI    C3  787  12.583  12.015  10.919  0.1602  0.0927 -0.1750
   50loPI   PO4  788  12.859  11.835  10.364 -0.1371  0.0787  0.1369
   50loPI   GL1  789  12.882  11.872   9.959 -0.1341 -0.0892 -0.1022
   50loPI   GL2  790  12.949  11.547   9.949 -0.0368 -0.2151  0.1919
   50loPI   C1A  791  12.632  11.897   9.546 -0.2531 -0.1949  0.0422
   50loPI   C2A  792  12.803  11.979   9.155  0.3088  0.0404 -0.0713
   50loPI   C3A  793  12.830  12.110   8.700 -0.3255 -0.0946  0.0627
   50loPI   C4A  794  13.033  12.292   8.379  0.2894  0.2190 -0.0843
   50loPI   C5A  795  12.971  12.671   8.164 -0.1746  0.1092 -0.0930
   50loPI   C6A  796  12.949  13.113   8.279  0.2259 -0.1050 -0.2325
   50loPI   C1B  797  12.927  11.460   9.574 -0.5732  0.2672  0.0531
   50loPI   C2B  798  12.860  11.429   9.139  0.1355  0.2866  0.1937
   50loPI   C3B  799  12.973  11.610   8.744  0.0808 -0.1338 -0.0323
   50loPI   C4B  800  13.028  11.747   8.358 -0.0227  0.1492  0.0793
   51loPI    C1  801   2.549   5.045  10.699  0.1030 -0.1207  0.0317
   51loPI    C2  802   2.890   4.991  10.902 -0.0659 -0.1644  0.3089
   51loPI    C3  803   2.579   5.172  11.077 -0.0574  0.2345 -0.0709
   51loPI   PO4  804   2.480   4.796  10.501 -0.0869 -0.3160 -0.2491
   51loPI   GL1  805   2.193   4.696  10.156 -0.3147  0.2149  0.1421
   51loPI   GL2  806   2.071   4.909   9.994 -0.0381 -0.2867  0.1031
   51loPI   C1A  807   2.236   4.310   9.889  0.2553  0.1197  0.2480
   51loPI   C2A  808   2.237   4.260   9.369  0.3530 -0.2373 -0.3526
   51loPI   C3A  809   2.211   4.414   8.967 -0.1816 -0.1526  0.0297
   51loPI   C4A  810   2.136   4.830   8.777  0.3218  0.1094  0.0610
   51loPI   C5A  811   2.113   5.357   8.594 -0.1563  0.0918 -0.2383
   51loPI   C6A  812   1.826   5.670   8.807  0.0411 -0.3347 -0.0328
   51loPI   C1B  813   1.845   4.977   9.587  0.1217  0.1031  0.0616
   51loPI   C2B  814   1.770   5.151   9.222 -0.0566  0.2048  0.0894
   51loPI   C3B  815   1.725   5.123   8.821 -0.0386 -0.3078  0.1550
   51loPI   C4B  816   1.621   5.092   8.345 -0.1613 -0.4414 -0.1449
   52loPI    C1  817   0.483   0.137  10.771 -0.1199 -0.3902  0.0505
   52loPI    C2  818   0.679   0.348  11.049 -0.0878 -0.1363 -0.1607
   52loPI    C3  819   0.662  -0.051  11.076 -0.1163 -0.1137  0.2225
   52loPI   PO4  820   0.557   0.263  10.515 -0.2303  0.0705 -0.1249
   52loPI   GL1  821   0.376   0.159  10.155  0.1646 -0.0109  0.3644
   52loPI   GL2  822   0.221  -0.157  10.162 -0.0444  0.1746 -0.2059
   52loPI   C1A  823   0.289   0.513   9.801  0.2543  0.1406  0.2063
   52loPI   C2A  824   0.367   0.518   9.413  0.0248 -0.1424  0.0473
   52loPI   C3A  825   0.412   0.697   9.048  0.0800 -0.1303  0.2290
   52loPI   C4A  826   0.357   0.969   8.692  0.3417  0.4644  0.3473
   52loPI   C5A  827   0.292   1.021   8.344 -0.1579 -0.0685  0.2598
   52loPI   C6A  828   0.344   1.344   8.013  0.0599  0.1301 -0.3963
   52loPI   C1B  829   0.317   0.028   9.688  0.2463 -0.1338 -0.0528
   52loPI   C2B  830   0.075   0.079   9.421 -0.2395 -0.2782 -0.0248
   52loPI   C3B  831   0.038   0.399   9.076 -0.0228 -0.0954  0.0757
   52loPI   C4B  832  -0.054   0.628   8.754  0.1422  0.1628  0.3516
   53loPI    C1  833  16.653   3.754  10.906  0.0520 -0.0595 -0.1139
   53loPI    C2  834  16.735   3.372  10.822 -0.1478 -0.1179 -0.0474
   53loPI    C3  835  16.940   3.562  11.108  0.0030 -0.1519 -0.1317
   53loPI   PO4  836  16.739   3.859  10.671 -0.1228  0.3065 -0.0716
   53loPI   GL1  837  16.835   3.591  10.359 -0.1938  0.4362 -0.2101
   53loPI   GL2  838  16.730   3.924  10.169  0.1679  0.1160 -0.0023
   53loPI   C1A  839  16.855   3.285   9.970 -0.0619 -0.0258 -0.0627
   53loPI   C2A  840  16.966   3.142   9.423  0.0235 -0.3414 -0.1204
   53loPI   C3A  841  16.775   3.126   9.048 -0.0792 -0.0160 -0.0872
   53loPI   C4A  842  16.847   3.121   8.578 -0.0863  0.0537  0.0612
   53loPI   C5A  843  16.865   2.899   8.156  0.0756  0.0275  0.0667
   53loPI   C6A  844  16.975   2.982   7.784  0.1840 -0.1360 -0.2887
   53loPI   C1B  845  17.062   4.085   9.811 -0.2535  0.3370  0.1002
   53loPI   C2B  846  16.992   4.193   9.424 -0.0472  0.2941  0.1382
   53loPI   C3B  847  17.305   4.247   9.079  0.2105  0.0723 -0.0184
   53loPI   C4B  848  17.328   4.482   8.671 -0.0419 -0.0611  0.1039
   54loPI    C1  849   5.601  13.960   9.898  0.1298  0.0244  0.0679
   54loPI    C2  850   5.349  13.968  10.209  0.0065  0.1396 -0.0338
   54loPI    C3  851   5.588  13.652  10.153 -0.0050  0.0972  0.1502
   54loPI   PO4  852   5.508  13.997   9.743 -0.1430  0.0325 -0.1173
   54loPI   GL1  853   5.238  13.949   9.476 -0.1501  0.0267  0.1460
   54loPI   GL2  854   5.625  13.863   9.269  0.1246 -0.1140 -0.1986
   54loPI   C1A  855   5.082  13.675   9.141 -0.1943  0.2110  0.0613
   54loPI   C2A  856   5.201  13.428   8.774 -0.3847  0.3263  0.3429
   54loPI   C3A  857   5.476  13.237   8.365  0.0889 -0.2104 -0.1201
   54loPI   C4A  858   5.560  13.286   8.011 -0.0213 -0.0965  0.0152
   54loPI   C5A  859   5.433  13.110   7.669 -0.2002 -0.1000  0.3640
   54loPI   C6A  860   5.584  12.819   7.318 -0.1742 -0.0868  0.0319
   54loPI   C1B  861   5.496  13.877   8.939  0.2311 -0.0239 -0.0871
   54loPI   C2B  862   5.543  13.774   8.495 -0.1602 -0.1506 -0.1386
   54loPI   C3B  863   5.695  13.753   8.042  0.1934 -0.2862  0.2925
   54loPI   C4B  864   5.550  13.649   7.626 -0.4654 -0.0951  0.0062
   55loPI    C1  865   2.059  18.523  10.250 -0.0750  0.0344  0.0575
   55loPI    C2  866   2.349  18.554  10.524  0.1416 -0.0077 -0.1640
   55loPI    C3  867   1.968  18.616  10.628  0.2522  0.2855  0.0787
   55loPI   PO4  868   2.120  18.679  10.022  0.1025  0.1951  0.2729
   55loPI   GL1  869   2.074  18.712   9.562  0.1135 -0.0616 -0.1212
   55loPI   GL2  870   1.927  19.072   9.756 -0.1280  0.0203 -0.0743
   55loPI   C1A  871   2.047  18.670   9.201 -0.1865 -0.1252 -0.0833
   55loPI   C2A  872   1.917  18.868   8.877 -0.2363  0.1421  0.1270
   55loPI   C3A  873   1.783  18.999   8.478 -0.0703 -0.0293  0.3464
   55loPI   C4A  874   2.013  19.293   8.108  0.5265 -0.1682 -0.0265
   55loPI   C5A  875   2.093  19.603   7.814  0.0848 -0.0784  0.0045
   55loPI   C6A  876   2.539  19.704   7.482 -0.2388 -0.1719  0.1425
   55loPI   C1B  877   1.707  19.045   9.298 -0.1147 -0.0957  0.2155
   55loPI   C2B  878   1.570  19.172   8.939  0.0710  0.0377  0.3673
   55loPI   C3B  879   1.365  19.213   8.663 -0.1170 -0.1503 -0.1874
   55loPI   C4B  880   1.069  19.549   8.482 -0.1140  0.0091  0.2164
   56loPI    C1  881  11.791  17.399  10.220 -0.3476  0.0875  0.0517
   56loPI    C2  882  11.845  17.700  10.478 -0.0930 -0.2317  0.3813
   56loPI    C3  883  11.479  17.622  10.336 -0.1083  0.4596 -0.0039
   56loPI   PO4  884  11.939  17.452  10.037 -0.0819  0.0372 -0.1904
   56loPI   GL1  885  11.793  17.619   9.671  0.2869  0.3217 -0.1544
   56loPI   GL2  886  11.493  17.508   9.790  0.3278  0.1460 -0.2984
   56loPI   C1A  887  11.815  17.683   9.361 -0.0711  0.0825 -0.0061
   56loPI   C2A  888  11.730  17.625   8.961 -0.2523  0.1335  0.0232
   56loPI   C3A  889  11.780  17.594   8.457 -0.3225 -0.0306  0.1711
   56loPI   C4A  890  11.767  17.630   8.005 -0.1344 -0.0228 -0.1530
   56loPI   C5A  891  11.734  17.883   7.514  0.2040 -0.3196 -0.0141
   56loPI   C6A  892  11.915  17.829   7.067  0.1057  0.2499  0.0114
   56loPI   C1B  893  11.386  17.395   9.388  0.1189  0.0945 -0.0726
   56loPI   C2B  894  11.390  17.177   8.971 -0.0745  0.0165  0.1450
   56loPI   C3B  895  11.385  17.288   8.555 -0.3397 -0.0185 -0.2492
   56loPI   C4B  896  11.439  17.268   8.057 -0.0223 -0.1178 -0.0951
   57loPI    C1  897  17.672  13.803  10.625  0.1776  0.0687 -0.1180
   57loPI    C2  898  17.979  13.644  10.826 -0.1046 -0.2595  0.0637
   57loPI    C3  899  17.604  13.535  10.914 -0.2997  0.3626  0.0544
   57loPI   PO4  900  17.641  13.698  10.338  0.0117 -0.1863 -0.1180
   57loPI   GL1  901  17.936  13.750   9.962 -0.2825  0.0093  0.0709
   57loPI   GL2  902  17.566  13.766   9.835 -0.0222 -0.1323  0.0541
   57loPI   C1A  903  17.867  13.620   9.488 -0.1069  0.1262 -0.0871
   57loPI   C2A  904  17.899  13.537   9.078 -0.1386  0.2832 -0.0623
   57loPI   C3A  905  18.194  13.665   8.840 -0.1626  0.2318  0.2158
   57loPI   C4A  906  18.203  13.691   8.376 -0.0086 -0.1530 -0.0564
   57loPI   C5A  907  17.925  13.999   7.970  0.3674  0.1672 -0.1202
   57loPI   C6A  908  18.060  14.431   7.774  0.1331  0.0241 -0.0820
   57loPI   C1B  909  17.455  13.871   9.444 -0.0658 -0.1495 -0.5070
   57loPI   C2B  910  17.474  13.721   9.035  0.2486 -0.1020  0.2858
   57loPI   C3B  911  17.664  13.761   8.639 -0.0465  0.3309  0.0307
   57loPI   C4B  912  17.731  13.623   8.235  0.0886  0.2299  0.0160
   58loPI    C1  913   4.177   3.415  10.145 -0.0068  0.1425  0.1178
   58loPI    C2  914   4.093   3.764  10.323 -0.0647 -0.0023  0.3793
   58loPI    C3  915   3.834   3.460  10.347 -0.1322  0.0138 -0.0632
   58loPI   PO4  916   4.355   3.558   9.969 -0.3255  0.2182  0.1746
   58loPI   GL1  917   4.401   3.722   9.617  0.0448 -0.0613  0.1332
   58loPI   GL2  918   4.554   3.356   9.576 -0.2127  0.2191 -0.0529
   58loPI   C1A  919   4.011   3.779   9.386 -0.0551 -0.4651  0.1555
   58loPI   C2A  920   3.794   4.010   9.123  0.2303  0.0285  0.0639
   58loPI   C3A  921   3.624   4.203   8.824 -0.2664  0.1782  0.1186
   58loPI   C4A  922   3.476   4.081   8.319 -0.3702  0.3025 -0.0159
   58loPI   C5A  923   3.574   4.271   7.885 -0.1157 -0.0699  0.2766
   58loPI   C6A  924   3.637   4.564   7.592 -0.1370  0.1204 -0.2150
   58loPI   C1B  925   4.503   3.423   9.169 -0.1180 -0.4135 -0.3205
   58loPI   C2B  926   4.264   3.775   8.940  0.0091  0.0014 -0.3109
   58loPI   C3B  927   4.005   3.776   8.643  0.1143  0.0308  0.1418
   58loPI   C4B  928   3.621   3.646   8.526 -0.2322 -0.0582  0.3088
   59loPI    C1  929  15.109   7.060  10.600  0.0941  0.2190  0.0615
   59loPI    C2  930  15.342   7.337  10.770  0.1947  0.0027  0.2836
   59loPI    C3  931  15.139   7.079  10.998  0.0213 -0.0432  0.0815
   59loPI   PO4  932  15.127   7.109  10.327 -0.0982 -0.0547 -0.1298
   59loPI   GL1  933  15.157   6.912   9.994  0.0650 -0.1597 -0.0632
   59loPI   GL2  934  15.288   6.699   9.844  0.1765  0.0462  0.2548
   59loPI   C1A  935  14.925   6.946   9.583  0.4679  0.0826  0.1119
   59loPI   C2A  936  14.871   6.873   9.140  0.0057 -0.0462 -0.2858
   59loPI   C3A  937  14.646   6.835   8.788  0.0760  0.0642 -0.2026
   59loPI   C4A  938  14.615   6.670   8.474 -0.1557 -0.3019  0.1155
   59loPI   C5A  939  14.770   6.506   8.106  0.1060 -0.0709  0.1586
   59loPI   C6A  940  14.683   6.081   7.818 -0.0911 -0.1995 -0.1920
   59loPI   C1B  941  15.308   6.740   9.347  0.0332  0.1786 -0.3007
   59loPI   C2B  942  15.267   6.828   8.887 -0.0376 -0.1374  0.0479
   59loPI   C3B  943  15.145   6.717   8.418  0.0447  0.0211  0.4239
   59loPI   C4B  944  15.193   6.754   7.956 -0.0588  0.1796 -0.1010
   60loPI    C1  945   9.077   1.607  10.183  0.0191  0.1752 -0.0028
   60loPI    C2  946   8.776   1.749  10.406  0.0218 -0.2369  0.2739
   60loPI    C3  947   9.154   1.794  10.528  0.0801  0.2476 -0.0553
   60loPI   PO4  948   9.025   1.671   9.946 -0.2610  0.3561  0.0844
   60loPI   GL1  949   9.183   1.556   9.513  0.2212  0.0283 -0.0949
   60loPI   GL2  950   9.470   1.563   9.662 -0.0911  0.0522  0.0676
   60loPI   C1A  951   9.216   1.716   9.159 -0.0685  0.3031  0.3497
   60loPI   C2A  952   9.482   1.765   8.817 -0.0333  0.1007  0.0785
   60loPI   C3A  953   9.543   1.619   8.374  0.0923 -0.0792  0.2108
   60loPI   C4A  954   9.487   1.659   7.946  0.0950  0.1027  0.2071
   60loPI   C5A  955   9.311   1.640   7.502  0.2523  0.1075 -0.2004
   60loPI   C6A  956   8.873   1.764   7.425  0.3527 -0.0946  0.0217
   60loPI   C1B  957   9.656   1.595   9.317  0.2182 -0.2174 -0.3170
   60loPI   C2B  958   9.882   1.477   8.904  0.0533 -0.2664  0.3334
   60loPI   C3B  959  10.076   1.432   8.508  0.0134  0.1831 -0.0289
   60loPI   C4B  960  10.455   1.417   8.322  0.0963  0.0566  0.4202
   61loPI    C1  961   8.414   4.363  10.569  0.2480 -0.2169 -0.1987
   61loPI    C2  962   8.280   4.246  10.927  0.0640  0.0680 -0.1712
   61loPI    C3  963   8.670   4.315  10.873  0.0712  0.1880  0.0223
   61loPI   PO4  964   8.214   4.195  10.341 -0.0914  0.2760  0.0570
   61loPI   GL1  965   8.425   4.129   9.933 -0.0328 -0.2006  0.2770
   61loPI   GL2  966   8.606   4.064   9.732  0.0010 -0.0647 -0.0940
   61loPI   C1A  967   8.135   4.179   9.492 -0.1057  0.2405  0.0233
   61loPI   C2A  968   8.041   4.069   9.137  0.0859  0.4116  0.0409
   61loPI   C3A  969   7.934   4.182   8.695 -0.2983 -0.1353  0.2141
   61loPI   C4A  970   7.699   4.303   8.214  0.1423 -0.2296 -0.0590
   61loPI   C5A  971   7.463   4.358   7.772  0.1850 -0.0908  0.0017
   61loPI   C6A  972   7.211   4.603   7.543 -0.0914 -0.0631 -0.1926
   61loPI   C1B  973   8.548   3.891   9.388 -0.2248  0.5295  0.2336
   61loPI   C2B  974   8.474   3.855   8.965  0.1686 -0.0932 -0.5522
   61loPI   C3B  975   8.362   3.928   8.548  0.0890  0.0906  0.0196
   61loPI   C4B  976   7.978   3.899   8.289 -0.1844  0.4543  0.2651
   62loPI    C1  977   1.269   0.385  10.439  0.1654  0.1213 -0.2481
   62loPI    C2  978   1.449   0.074  10.615  0.1269 -0.0478 -0.5020
   62loPI    C3  979   1.596   0.443  10.662  0.0893 -0.0825 -0.0801
   62loPI   PO4  980   1.290   0.248  10.138  0.2758 -0.1042  0.0154
   62loPI   GL1  981   1.545   0.040   9.804 -0.1427  0.3043  0.1968
   62loPI   GL2  982   1.214  -0.132   9.826 -0.0842 -0.2599 -0.0120
   62loPI   C1A  983   1.580  -0.131   9.385  0.0463 -0.1045  0.1073
   62loPI   C2A  984   1.613  -0.177   8.966  0.0715  0.1523  0.0212
   62loPI   C3A  985   1.719  -0.218   8.562  0.0077 -0.2892 -0.1675
   62loPI   C4A  986   1.667  -0.251   8.116  0.1565 -0.2093  0.4329
   62loPI   C5A  987   1.593   0.084   7.850  0.2207 -0.1108  0.2572
   62loPI   C6A  988   1.741   0.513   7.740 -0.1449 -0.2318  0.2938
   62loPI   C1B  989   0.996  -0.227   9.399  0.1191 -0.1352 -0.3074
   62loPI   C2B  990   0.817  -0.386   8.999 -0.2382 -0.0834 -0.0426
   62loPI   C3B  991   0.664  -0.336   8.637  0.3084  0.1100  0.0386
   62loPI   C4B  992   0.826  -0.149   8.235  0.2107 -0.0687  0.1229
   63loPI    C1  993   3.747   1.857  10.298 -0.1442  0.1657 -0.1499
   63loPI    C2  994   3.582   2.212  10.380 -0.0160  0.1423  0.2293
   63loPI    C3  995   3.932   2.111  10.545  0.2111  0.0490 -0.2899
   63loPI   PO4  996   3.467   1.773  10.109 -0.0119 -0.0206 -0.2740
   63loPI   GL1  997   3.577   1.903   9.792 -0.3790 -0.0941  0.1269
   63loPI   GL2  998   3.905   1.976   9.727 -0.0374  0.3920 -0.1399
   63loPI   C1A  999   3.417   2.059   9.304 -0.1201 -0.0399 -0.1190
   63loPI   C2A 1000   3.555   2.244   8.909  0.1391 -0.0105 -0.2813
   63loPI   C3A 1001   3.590   2.483   8.506  0.4643  0.1240  0.1424
   63loPI   C4A 1002   3.422   2.849   8.373  0.0293 -0.1449 -0.0077
   63loPI   C5A 1003   3.160   3.022   8.004 -0.2597  0.4250  0.1749
   63loPI   C6A 1004   3.166   3.026   7.536  0.0781  0.0350 -0.1262
   63loPI   C1B 1005   4.329   1.940   9.456  0.0546  0.1622  0.0732
   63loPI   C2B 1006   4.367   1.982   9.070  0.1380  0.1433 -0.0304
   63loPI   C3B 1007   4.377   1.784   8.662  0.0208  0.1181 -0.1194
   63loPI   C4B 1008   4.096   1.599   8.340  0.2706 -0.2998  0.0631
   64loPI    C1 1009  12.718  17.904  10.410  0.0075 -0.2563  0.2641
   64loPI    C2 1010  12.851  18.243  10.576  0.0363 -0.0984 -0.0734
   64loPI    C3 1011  12.593  18.011  10.775  0.1920  0.0027  0.2543
   64loPI   PO4 1012  12.659  17.930  10.151 -0.2255 -0.1662 -0.2914
   64loPI   GL1 1013  12.391  18.137   9.773  0.0550 -0.3036  0.3060
   64loPI   GL2 1014  12.176  18.047   9.703  0.0961  0.1813 -0.1420
   64loPI   C1A 1015  12.621  17.852   9.395  0.0342  0.1066 -0.3611
   64loPI   C2A 1016  12.670  17.913   8.978  0.1665  0.1503  0.2394
   64loPI   C3A 1017  12.707  17.708   8.587 -0.0304  0.1519 -0.1992
   64loPI   C4A 1018  12.747  17.972   8.284 -0.0687 -0.2348  0.3265
   64loPI   C5A 1019  13.022  18.289   8.067  0.0100 -0.0651 -0.3516
   64loPI   C6A 1020  13.185  18.307   7.730  0.0042  0.0271  0.0201
   64loPI   C1B 1021  12.162  18.050   9.197  0.0444 -0.0291 -0.0707
   64loPI   C2B 1022  12.167  17.930   8.816  0.0242  0.0071  0.1047
   64loPI   C3B 1023  12.272  17.921   8.296  0.1082 -0.0289  0.1240
   64loPI   C4B 1024  12.206  18.167   8.008  0.0304 -0.1209  0.1656
   65loPI    C1 1025  12.170   8.298  10.585 -0.1050  0.0497 -0.3061
   65loPI    C2 1026  12.291   8.111  10.918 -0.3889  0.2182 -0.1040
   65loPI    C3 1027  12.559   8.285  10.678 -0.1929  0.2166  0.1098
   65loPI   PO4 1028  11.918   8.200  10.508 -0.4800 -0.1154 -0.1830
   65loPI   GL1 1029  11.650   8.349  10.304 -0.2103 -0.0881 -0.0823
   65loPI   GL2 1030  11.310   8.290  10.088  0.1501 -0.1094  0.1777
   65loPI   C1A 1031  11.761   8.063   9.875 -0.3089  0.0149 -0.0116
   65loPI   C2A 1032  11.630   8.012   9.398 -0.0263 -0.0354  0.0348
   65loPI   C3A 1033  11.413   8.061   9.101 -0.1257 -0.1080  0.0789
   65loPI   C4A 1034  11.320   8.304   8.706  0.0340 -0.1265  0.0204
   65loPI   C5A 1035  11.038   8.245   8.375  0.0330  0.1952 -0.3747
   65loPI   C6A 1036  10.627   8.042   8.087  0.2077  0.2121  0.0335
   65loPI   C1B 1037  11.373   8.468   9.628  0.0110  0.0954  0.0208
   65loPI   C2B 1038  11.190   8.479   9.215  0.0085  0.1720 -0.1306
   65loPI   C3B 1039  10.838   8.221   8.976  0.1254  0.1393 -0.1990
   65loPI   C4B 1040  10.639   7.988   8.632  0.1735  0.1358 -0.0237
   66loPI    C1 1041  16.784  17.926  10.735  0.0925  0.0193 -0.1220
   66loPI    C2 1042  16.739  18.210  11.014 -0.0467 -0.0084 -0.1154
   66loPI    C3 1043  16.444  17.949  10.945 -0.0621  0.0750 -0.3746
   66loPI   PO4 1044  16.911  17.992  10.487 -0.3849  0.0652  0.1062
   66loPI   GL1 1045  16.640  17.964  10.161  0.2361  0.3013 -0.0541
   66loPI   GL2 1046  16.831  17.812   9.956 -0.3853  0.2266  0.0676
   66loPI   C1A 1047  16.551  18.174   9.686  0.0072  0.2729 -0.0152
   66loPI   C2A 1048  16.335  18.125   9.297 -0.2541 -0.1210 -0.1897
   66loPI   C3A 1049  16.168  18.000   8.843 -0.0582  0.0074  0.0726
   66loPI   C4A 1050  16.097  17.929   8.353 -0.1269 -0.2083 -0.0575
   66loPI   C5A 1051  16.066  17.627   8.080  0.1397 -0.1424  0.0043
   66loPI   C6A 1052  16.218  17.474   7.850 -0.0621  0.2745 -0.0056
   66loPI   C1B 1053  16.710  17.718   9.537  0.1143 -0.2196  0.1325
   66loPI   C2B 1054  16.586  17.701   9.062  0.1781  0.1174  0.0153
   66loPI   C3B 1055  16.558  17.821   8.549 -0.1656  0.0703 -0.0189
   66loPI   C4B 1056  16.435  17.930   8.032 -0.3367  0.1002  0.0195
   67loPI    C1 1057  10.617  11.576  10.373 -0.1974 -0.1289 -0.0107
   67loPI    C2 1058  10.469  11.837  10.637 -0.0787  0.0258 -0.0959
   67loPI    C3 1059  10.413  11.445  10.692 -0.0205  0.0541  0.1803
   67loPI   PO4 1060  10.605  11.664  10.158 -0.2506 -0.0960  0.1925
   67loPI   GL1 1061  10.772  11.813   9.791  0.0433  0.4316  0.0966
   67loPI   GL2 1062  11.084  11.912   9.753  0.1491  0.1977  0.0548
   67loPI   C1A 1063  10.642  11.972   9.373 -0.1509  0.1754 -0.0934
   67loPI   C2A 1064  10.574  12.279   9.022 -0.0797 -0.2193 -0.1082
   67loPI   C3A 1065  10.400  12.337   8.590 -0.0052 -0.0427  0.1209
   67loPI   C4A 1066  10.199  12.483   8.095  0.0109  0.0990 -0.0898
   67loPI   C5A 1067   9.817  12.508   7.861 -0.3630  0.1372  0.1053
   67loPI   C6A 1068   9.491  12.210   7.917 -0.2197  0.1983  0.0886
   67loPI   C1B 1069  11.164  11.906   9.339 -0.0472  0.2100 -0.0268
   67loPI   C2B 1070  11.019  11.783   9.005 -0.1176 -0.3795 -0.2123
   67loPI   C3B 1071  10.883  11.632   8.586 -0.0687 -0.1646 -0.0960
   67loPI   C4B 1072  10.992  11.872   8.286  0.0552 -0.2628 -0.1722
   68loPI    C1 1073  17.210   7.196  10.551  0.1429  0.2374  0.0170
   68loPI    C2 1074  17.319   7.381  10.888  0.1888  0.1035  0.0763
   68loPI    C3 1075  17.213   6.996  10.897  0.1877  0.1000 -0.0620
   68loPI   PO4 1076  17.154   7.354  10.407  0.2074 -0.2495  0.1403
   68loPI   GL1 1077  16.971   7.178  10.119 -0.1656 -0.3722  0.2008
   68loPI   GL2 1078  16.919   6.928  10.102  0.2185  0.1607 -0.2248
   68loPI   C1A 1079  17.250   7.003   9.728 -0.1525 -0.2424  0.0856
   68loPI   C2A 1080  17.285   7.186   9.363 -0.3198 -0.3428 -0.1832
   68loPI   C3A 1081  17.206   7.183   8.954 -0.0415 -0.0727  0.0623
   68loPI   C4A 1082  16.977   7.122   8.603  0.4212 -0.1524 -0.0927
   68loPI   C5A 1083  16.993   6.958   8.214 -0.0459  0.1327  0.2022
   68loPI   C6A 1084  17.040   6.891   7.832  0.0197  0.2628 -0.0332
   68loPI   C1B 1085  16.786   6.889   9.720  0.3721 -0.3581 -0.1042
   68loPI   C2B 1086  16.766   7.001   9.302 -0.0621  0.1426 -0.1004
   68loPI   C3B 1087  16.771   7.432   9.170  0.1562 -0.0658  0.1671
   68loPI   C4B 1088  16.795   7.908   9.130 -0.0747 -0.3973 -0.5164
   69loPI    C1 1089  12.681  16.165  10.472 -0.1136 -0.1829  0.2588
   69loPI    C2 1090  13.024  16.209  10.672 -0.1175 -0.1658  0.2616
   69loPI    C3 1091  12.675  16.257  10.861 -0.1198  0.1824  0.1760
   69loPI   PO4 1092  12.738  16.365  10.201 -0.1350 -0.0232 -0.0402
   69loPI   GL1 1093  12.608  16.507   9.799 -0.0859  0.0366 -0.0228
   69loPI   GL2 1094  12.502  16.447   9.544 -0.1615  0.1123  0.0877
   69loPI   C1A 1095  12.870  16.188   9.524  0.0544 -0.2148 -0.4020
   69loPI   C2A 1096  12.856  16.041   9.142 -0.0101  0.1471 -0.0277
   69loPI   C3A 1097  12.946  15.919   8.710  0.2602  0.1106 -0.0779
   69loPI   C4A 1098  13.033  15.910   8.341  0.0211 -0.0554 -0.3044
   69loPI   C5A 1099  13.117  15.768   7.940  0.3970  0.0324  0.5900
   69loPI   C6A 1100  13.297  15.463   7.683 -0.3564 -0.1978  0.0539
   69loPI   C1B 1101  12.436  16.294   9.152  0.2259  0.1887 -0.0699
   69loPI   C2B 1102  12.523  16.302   8.715  0.0061 -0.0723  0.0906
   69loPI   C3B 1103  12.536  16.231   8.314  0.0261 -0.2860 -0.1258
   69loPI   C4B 1104  12.391  16.494   7.922 -0.0755  0.1546 -0.2711
   70loPI    C1 1105  16.095  13.463  10.220  0.0356 -0.0608  0.0877
   70loPI    C2 1106  16.238  13.355  10.578 -0.3887  0.2791  0.3714
   70loPI    C3 1107  16.332  13.712  10.424  0.1021 -0.0146 -0.0452
   70loPI   PO4 1108  16.189  13.229  10.081  0.0481  0.1130 -0.1296
   70loPI   GL1 1109  16.198  13.372   9.675  0.3217  0.3185 -0.0199
   70loPI   GL2 1110  16.026  13.691   9.651 -0.2571  0.1856 -0.4167
   70loPI   C1A 1111  16.148  13.218   9.317  0.6483  0.2195  0.2594
   70loPI   C2A 1112  15.915  13.089   8.850  0.1355  0.1815 -0.0272
   70loPI   C3A 1113  16.007  13.090   8.370  0.0789 -0.2060 -0.0752
   70loPI   C4A 1114  16.287  13.059   8.010 -0.0152  0.1588 -0.0100
   70loPI   C5A 1115  16.075  12.999   7.559  0.0816 -0.3991 -0.0852
   70loPI   C6A 1116  15.921  12.983   7.141 -0.1353 -0.1878 -0.1508
   70loPI   C1B 1117  15.963  13.663   9.174 -0.0145  0.1511  0.4585
   70loPI   C2B 1118  16.049  13.535   8.615 -0.0278  0.1887 -0.1757
   70loPI   C3B 1119  16.214  13.510   8.171  0.0315 -0.3674 -0.0496
   70loPI   C4B 1120  16.462  13.658   7.771 -0.2283 -0.1542  0.0168
   71loPI    C1 1121   7.020  10.470  10.601  0.0372 -0.1862 -0.0320
   71loPI    C2 1122   6.649  10.616  10.585 -0.0025 -0.2907 -0.0750
   71loPI    C3 1123   6.837  10.584  10.937  0.0877  0.0635 -0.0874
   71loPI   PO4 1124   6.938  10.199  10.459  0.0061  0.0327 -0.4168
   71loPI   GL1 1125   7.066  10.056  10.050 -0.1667 -0.0227  0.0894
   71loPI   GL2 1126   7.127   9.659   9.991 -0.1206  0.0881  0.1278
   71loPI   C1A 1127   6.801  10.135   9.658 -0.1898 -0.0202 -0.1824
   71loPI   C2A 1128   6.892  10.089   9.292  0.0656 -0.4701  0.0116
   71loPI   C3A 1129   6.978  10.309   8.866 -0.1007  0.1016  0.1257
   71loPI   C4A 1130   7.042  10.214   8.415  0.1844  0.0338 -0.0557
   71loPI   C5A 1131   6.956   9.839   8.054 -0.1607 -0.1958 -0.3664
   71loPI   C6A 1132   6.864   9.968   7.565  0.0217  0.1479  0.2451
   71loPI   C1B 1133   6.855   9.637   9.533  0.3667  0.0714  0.3668
   71loPI   C2B 1134   6.772   9.688   9.073  0.1141  0.3063 -0.1573
   71loPI   C3B 1135   6.924   9.748   8.675 -0.1719 -0.0823  0.0001
   71loPI   C4B 1136   7.014   9.470   8.343 -0.3226 -0.0860  0.4270
   72loPI    C1 1137  16.534   9.147  10.845 -0.0360  0.0335  0.1253
   72loPI    C2 1138  16.753   8.816  10.894 -0.0020  0.0690  0.2150
   72loPI    C3 1139  16.786   9.118  11.154  0.2811  0.3170 -0.1000
   72loPI   PO4 1140  16.573   9.177  10.552 -0.1575  0.0063  0.0599
   72loPI   GL1 1141  16.311   9.108  10.167 -0.1500 -0.2488 -0.0298
   72loPI   GL2 1142  16.472   8.939  10.054  0.0297  0.1367  0.3693
   72loPI   C1A 1143  16.088   9.024   9.706 -0.2136 -0.0510  0.1364
   72loPI   C2A 1144  15.764   9.233   9.555 -0.0069  0.1756 -0.3860
   72loPI   C3A 1145  15.546   9.518   9.268 -0.0896  0.0410  0.0647
   72loPI   C4A 1146  15.560   9.703   8.919  0.2177  0.2090  0.3977
   72loPI   C5A 1147  15.658   9.892   8.541  0.1294 -0.1647  0.0751
   72loPI   C6A 1148  15.458   9.876   8.121 -0.0576 -0.0852  0.0495
   72loPI   C1B 1149  16.588   9.209   9.668  0.1182 -0.0700  0.1217
   72loPI   C2B 1150  16.241   9.470   9.514 -0.1699  0.3505  0.2286
   72loPI   C3B 1151  16.070   9.759   9.149  0.0905  0.3624  0.1536
   72loPI   C4B 1152  16.076   9.837   8.758 -0.2705 -0.1853 -0.2039
   73loPI    C1 1153   1.397   8.291  11.004 -0.2136 -0.0292 -0.0780
   73loPI    C2 1154   1.778   8.184  11.059 -0.1435  0.3554  0.2279
   73loPI    C3 1155   1.495   8.053  11.310 -0.2178  0.0678 -0.0006
   73loPI   PO4 1156   1.391   8.221  10.736 -0.4327  0.2089  0.0117
   73loPI   GL1 1157   1.417   8.209  10.252  0.1734 -0.1205  0.1571
   73loPI   GL2 1158   1.246   8.013  10.093  0.2002  0.1493  0.0799
   73loPI   C1A 1159   1.529   8.236   9.790 -0.0340  0.2493  0.4274
   73loPI   C2A 1160   1.468   8.272   9.397 -0.0255  0.1131  0.0549
   73loPI   C3A 1161   1.335   8.383   9.048  0.1621 -0.1067 -0.1362
   73loPI   C4A 1162   1.233   8.651   8.660  0.1299  0.0648  0.1254
   73loPI   C5A 1163   1.072   8.619   8.263 -0.1224 -0.0435 -0.1243
   73loPI   C6A 1164   0.806   8.740   7.913 -0.0841 -0.4900  0.0746
   73loPI   C1B 1165   1.024   8.118   9.761  0.1696  0.0480 -0.0635
   73loPI   C2B 1166   0.924   8.209   9.342  0.0116  0.1644 -0.4746
   73loPI   C3B 1167   0.819   8.526   9.011  0.1782 -0.3019 -0.0883
   73loPI   C4B 1168   0.736   8.699   8.675 -0.1293  0.3278  0.2834
   74loPI    C1 1169  18.336  16.143  10.126  0.2364 -0.0083  0.1306
   74loPI    C2 1170  18.208  16.329   9.795  0.3085 -0.1235  0.0368
   74loPI    C3 1171  18.107  16.470  10.156 -0.1321 -0.2444 -0.0341
   74loPI   PO4 1172  18.427  15.900   9.977  0.3645  0.2387  0.2668
   74loPI   GL1 1173  18.621  16.044   9.634 -0.0279  0.0853  0.1139
   74loPI   GL2 1174  18.823  15.767   9.658  0.2664  0.0012  0.2030
   74loPI   C1A 1175  18.595  16.178   9.163  0.0625  0.2257  0.0673
   74loPI   C2A 1176  18.591  16.163   8.707  0.0809 -0.0758  0.0997
   74loPI   C3A 1177  18.899  16.225   8.487  0.1184  0.2488  0.1521
   74loPI   C4A 1178  19.178  16.623   8.352 -0.0148 -0.2567 -0.1446
   74loPI   C5A 1179  19.379  16.940   8.079  0.0261 -0.2785 -0.1910
   74loPI   C6A 1180  19.773  17.178   7.824  0.2498  0.0628  0.1604
   74loPI   C1B 1181  18.870  15.771   9.187  0.1663  0.1039  0.0296
   74loPI   C2B 1182  18.920  15.782   8.799  0.0601 -0.2911 -0.2419
   74loPI   C3B 1183  18.752  15.721   8.355 -0.1527 -0.2264  0.1396
   74loPI   C4B 1184  18.481  15.694   7.953  0.0751 -0.3756  0.0600
   75loPI    C1 1185  16.543  14.387  10.539 -0.0448 -0.0846  0.0382
   75loPI    C2 1186  16.513  14.754  10.695  0.2828 -0.0166 -0.0511
   75loPI    C3 1187  16.614  14.446  10.929 -0.2902 -0.1104  0.0885
   75loPI   PO4 1188  16.378  14.420  10.343 -0.0512 -0.0988 -0.0032
   75loPI   GL1 1189  16.483  14.624   9.922  0.1461 -0.1163 -0.3060
   75loPI   GL2 1190  16.585  14.319   9.851  0.0764  0.2317 -0.2423
   75loPI   C1A 1191  16.539  14.600   9.430  0.3186  0.3669 -0.0536
   75loPI   C2A 1192  16.594  14.578   9.069  0.0101 -0.0472 -0.1437
   75loPI   C3A 1193  16.483  14.345   8.646 -0.0615  0.0073 -0.1310
   75loPI   C4A 1194  16.540  14.226   8.221  0.3229  0.2878 -0.3895
   75loPI   C5A 1195  16.226  14.312   7.963 -0.0113  0.1205  0.1500
   75loPI   C6A 1196  16.117  14.452   7.632 -0.2033  0.1861 -0.0711
   75loPI   C1B 1197  16.348  14.062   9.563  0.1344 -0.3146  0.0412
   75loPI   C2B 1198  16.293  14.061   9.040 -0.0449  0.2061 -0.0929
   75loPI   C3B 1199  16.476  13.842   8.655 -0.2333  0.0416  0.0544
   75loPI   C4B 1200  16.671  13.727   8.316 -0.0175  0.1274 -0.1348
   76loPI    C1 1201   6.432  17.224   9.797 -0.3632 -0.4398 -0.0417
   76loPI    C2 1202   6.202  17.420  10.059  0.0076  0.1897 -0.1671
   76loPI    C3 1203   6.563  17.288  10.170  0.0645  0.2408 -0.2894
   76loPI   PO4 1204   6.462  17.375   9.588  0.4359 -0.2721  0.0178
   76loPI   GL1 1205   6.279  17.387   9.204 -0.3228  0.1262  0.3484
   76loPI   GL2 1206   6.185  17.049   9.276 -0.0006  0.0376  0.3266
   76loPI   C1A 1207   6.310  17.582   8.892 -0.0549 -0.0053 -0.1060
   76loPI   C2A 1208   6.405  17.745   8.447 -0.2617  0.0863 -0.1084
   76loPI   C3A 1209   6.567  17.767   8.019  0.0116  0.1453  0.2205
   76loPI   C4A 1210   6.659  17.734   7.587  0.0761 -0.0260 -0.1354
   76loPI   C5A 1211   6.981  17.994   7.380  0.0188 -0.0555  0.2662
   76loPI   C6A 1212   7.375  18.124   7.333  0.1531 -0.2107 -0.0695
   76loPI   C1B 1213   6.371  16.960   8.838 -0.1118  0.1312 -0.2901
   76loPI   C2B 1214   6.576  16.926   8.498 -0.3255  0.0152 -0.1213
   76loPI   C3B 1215   6.452  16.962   8.158 -0.0666  0.1594  0.2229
   76loPI   C4B 1216   6.256  16.881   7.818  0.2275 -0.0506  0.4280
   77loPI    C1 1217   3.474  13.271  10.368  0.1215 -0.0111  0.0596
   77loPI    C2 1218   3.320  13.633  10.434 -0.0485 -0.0523 -0.1012
   77loPI    C3 1219   3.278  13.345  10.708  0.3276  0.1245  0.1508
   77loPI   PO4 1220   3.356  13.222  10.048 -0.1862 -0.0030  0.0307
   77loPI   GL1 1221   3.325  13.106   9.575 -0.2323  0.1564 -0.1003
   77loPI   GL2 1222   3.068  13.016   9.543  0.2522 -0.0218 -0.0294
   77loPI   C1A 1223   3.258  13.186   9.142 -0.0010 -0.0991 -0.3833
   77loPI   C2A 1224   3.043  13.244   8.683  0.1763  0.2203  0.2976
   77loPI   C3A 1225   2.727  13.184   8.382  0.0760  0.0260 -0.3457
   77loPI   C4A 1226   2.741  13.257   8.036 -0.1305  0.0595 -0.0037
   77loPI   C5A 1227   2.368  13.319   7.647 -0.1284 -0.1086 -0.0061
   77loPI   C6A 1228   2.294  13.555   7.397  0.1299  0.0251  0.3155
   77loPI   C1B 1229   2.796  12.953   9.163 -0.0418 -0.0500 -0.2789
   77loPI   C2B 1230   2.779  12.842   8.772 -0.3288  0.1415  0.3403
   77loPI   C3B 1231   2.603  12.619   8.402  0.1305  0.0148 -0.1557
   77loPI   C4B 1232   2.550  12.571   7.997  0.2166 -0.3261  0.1570
   78loPI    C1 1233  18.196   7.467  10.630 -0.0889  0.1045 -0.2139
   78loPI    C2 1234  18.522   7.452  10.861  0.0052 -0.1094 -0.3578
   78loPI    C3 1235  18.219   7.693  10.959  0.2403  0.1550 -0.2680
   78loPI   PO4 1236  18.132   7.181  10.616 -0.0803 -0.2330  0.0221
   78loPI   GL1 1237  18.045   6.975  10.311  0.1177 -0.0817  0.0681
   78loPI   GL2 1238  18.113   7.297  10.138  0.2272 -0.0599  0.4370
   78loPI   C1A 1239  18.135   6.740   9.942 -0.1311 -0.1993  0.0896
   78loPI   C2A 1240  18.148   6.889   9.564 -0.3826  0.2243 -0.4925
   78loPI   C3A 1241  17.976   7.129   9.284  0.0264 -0.1750 -0.1043
   78loPI   C4A 1242  17.754   7.051   8.948  0.0742 -0.0225  0.4363
   78loPI   C5A 1243  17.629   6.968   8.468 -0.0607 -0.3373 -0.0818
   78loPI   C6A 1244  17.443   6.726   8.070  0.1441  0.1212 -0.1531
   78loPI   C1B 1245  18.334   7.209   9.858 -0.0565 -0.0398 -0.1184
   78loPI   C2B 1246  18.614   7.165   9.568 -0.0687 -0.1633 -0.0611
   78loPI   C3B 1247  18.962   6.947   9.458 -0.3221  0.1948 -0.1107
   78loPI   C4B 1248  19.181   6.600   9.514  0.1834  0.1915 -0.0266
   79loPI    C1 1249   0.515  16.846  10.685  0.0404  0.0797 -0.0057
   79loPI    C2 1250   0.769  17.009  10.948  0.0875 -0.0357  0.0208
   79loPI    C3 1251   0.375  17.057  10.995  0.0961 -0.0475  0.1074
   79loPI   PO4 1252   0.681  16.915  10.418  0.1623 -0.0761 -0.3641
   79loPI   GL1 1253   0.653  16.646   9.986  0.0561  0.0278 -0.1014
   79loPI   GL2 1254   0.518  16.903   9.842 -0.0743  0.1680  0.0511
   79loPI   C1A 1255   0.797  16.558   9.610 -0.1361  0.1661  0.1818
   79loPI   C2A 1256   0.809  16.381   9.149  0.0216 -0.1889 -0.0717
   79loPI   C3A 1257   0.887  16.368   8.736 -0.5551  0.0573 -0.0400
   79loPI   C4A 1258   1.052  16.403   8.334  0.1841 -0.2369  0.0372
   79loPI   C5A 1259   1.440  16.203   8.263 -0.1661 -0.0335  0.0424
   79loPI   C6A 1260   1.540  16.099   7.793  0.0179 -0.3210 -0.1698
   79loPI   C1B 1261   0.415  16.913   9.378  0.0205  0.0251  0.1530
   79loPI   C2B 1262   0.106  17.063   9.146  0.2506  0.3524  0.0991
   79loPI   C3B 1263  -0.183  17.089   8.733 -0.3353  0.4787 -0.1773
   79loPI   C4B 1264  -0.360  17.271   8.443 -0.0749  0.0004  0.1027
   80loPI    C1 1265  11.267   2.647  10.509 -0.2789  0.0225 -0.0778
   80loPI    C2 1266  11.581   2.399  10.492 -0.2663  0.0166  0.1988
   80loPI    C3 1267  11.212   2.252  10.539 -0.2533  0.0498  0.4182
   80loPI   PO4 1268  11.277   2.835  10.332  0.1313 -0.2278  0.0453
   80loPI   GL1 1269  11.237   2.657   9.937 -0.2152 -0.1950 -0.0240
   80loPI   GL2 1270  11.252   2.366  10.028 -0.0090  0.1559 -0.0606
   80loPI   C1A 1271  11.458   2.703   9.656 -0.1521 -0.1206  0.1295
   80loPI   C2A 1272  11.496   2.402   9.254  0.0951 -0.2720  0.1877
   80loPI   C3A 1273  11.643   2.330   8.911 -0.2266  0.4563  0.0755
   80loPI   C4A 1274  11.710   2.160   8.512 -0.0254  0.3046  0.0256
   80loPI   C5A 1275  11.805   2.166   8.043  0.1260  0.2310  0.1837
   80loPI   C6A 1276  11.739   2.391   7.681  0.1622  0.1167  0.1039
   80loPI   C1B 1277  11.326   2.082   9.672 -0.1142  0.2822 -0.0393
   80loPI   C2B 1278  11.374   1.714   9.389 -0.4743  0.4832 -0.1327
   80loPI   C3B 1279  11.441   1.523   9.085 -0.0194 -0.1681  0.2706
   80loPI   C4B 1280  11.297   1.224   8.860  0.0355 -0.1139 -0.1331
   81loPI    C1 1281   6.335   8.056  10.121 -0.2003 -0.3266 -0.1555
   81loPI    C2 1282   6.034   8.148  10.369  0.0947 -0.0103  0.0967
   81loPI    C3 1283   6.280   7.844  10.456  0.0181 -0.0900  0.0357
   81loPI   PO4 1284   6.489   8.280  10.146  0.0363  0.1529  0.3744
   81loPI   GL1 1285   6.702   8.538   9.873 -0.1787  0.1533  0.0100
   81loPI   GL2 1286   6.500   8.766   9.853 -0.0713 -0.0132  0.2060
   81loPI   C1A 1287   6.906   8.684   9.497 -0.2476 -0.1046 -0.0422
   81loPI   C2A 1288   6.918   8.722   9.155  0.1593 -0.0883  0.0410
   81loPI   C3A 1289   6.877   8.728   8.660 -0.0961  0.4614 -0.4878
   81loPI   C4A 1290   6.885   8.844   8.288  0.0639 -0.3641 -0.1383
   81loPI   C5A 1291   6.759   9.172   7.975  0.0322 -0.0322 -0.1661
   81loPI   C6A 1292   6.464   9.331   7.703  0.1539 -0.1446 -0.1472
   81loPI   C1B 1293   6.300   8.677   9.483  0.0686  0.4063  0.1318
   81loPI   C2B 1294   6.326   8.396   9.107 -0.2811  0.0335  0.1883
   81loPI   C3B 1295   6.368   8.364   8.646 -0.0309 -0.3528 -0.1178
   81loPI   C4B 1296   6.434   8.602   8.317  0.0774 -0.0904 -0.0638
   82loPI    C1 1297   6.774   6.646  10.463  0.0826 -0.0238  0.3478
   82loPI    C2 1298   6.950   6.372  10.695 -0.3012 -0.3063  0.3160
   82loPI    C3 1299   6.587   6.512  10.790 -0.2103  0.0165  0.2009
   82loPI   PO4 1300   6.819   6.587  10.200  0.3974 -0.1800 -0.0721
   82loPI   GL1 1301   7.031   6.800   9.923  0.1193  0.6340 -0.0864
   82loPI   GL2 1302   7.384   6.697   9.831  0.1828  0.2086 -0.1351
   82loPI   C1A 1303   7.078   6.709   9.438 -0.2953  0.0093 -0.3871
   82loPI   C2A 1304   7.030   6.947   9.005 -0.2268  0.1270 -0.0409
   82loPI   C3A 1305   7.051   7.149   8.647  0.1664  0.0179  0.0344
   82loPI   C4A 1306   7.058   6.860   8.292  0.0680 -0.0749  0.0400
   82loPI   C5A 1307   6.951   6.782   7.912  0.0783 -0.1734  0.2343
   82loPI   C6A 1308   6.685   6.406   7.767 -0.4670 -0.1218 -0.3080
   82loPI   C1B 1309   7.399   6.340   9.454  0.1463 -0.2803 -0.0344
   82loPI   C2B 1310   7.255   6.406   9.041  0.0823 -0.0136  0.0427
   82loPI   C3B 1311   7.160   6.509   8.640  0.0454  0.1638 -0.3600
   82loPI   C4B 1312   7.016   6.375   8.187  0.0363  0.0022  0.2666
   83loPI    C1 1313   7.974  16.145  10.315  0.1822  0.0267  0.0771
   83loPI    C2 1314   8.288  15.929  10.195  0.1557 -0.0001  0.0561
   83loPI    C3 1315   8.133  15.871  10.559 -0.2310 -0.4467 -0.1687
   83loPI   PO4 1316   8.027  16.467  10.238  0.0728 -0.0441  0.0936
   83loPI   GL1 1317   8.043  16.478   9.749  0.0171 -0.0601  0.2419
   83loPI   GL2 1318   7.761  16.443   9.590  0.1221  0.2304  0.0457
   83loPI   C1A 1319   8.241  16.591   9.470 -0.2238 -0.1421  0.2933
   83loPI   C2A 1320   8.471  16.678   9.127 -0.2101 -0.1295  0.0075
   83loPI   C3A 1321   8.491  16.817   8.695 -0.4483  0.2929  0.3904
   83loPI   C4A 1322   8.563  16.869   8.238 -0.1366  0.2928 -0.0510
   83loPI   C5A 1323   8.648  16.743   7.778  0.0587  0.1223  0.0596
   83loPI   C6A 1324   8.947  16.607   7.569  0.1347 -0.0635 -0.0858
   83loPI   C1B 1325   7.860  16.357   9.237  0.4433 -0.1793  0.2633
   83loPI   C2B 1326   7.730  16.279   8.828  0.1674 -0.1801 -0.0451
   83loPI   C3B 1327   7.694  16.266   8.285 -0.2151  0.1636  0.2102
   83loPI   C4B 1328   7.502  16.040   7.883  0.1299 -0.0571  0.1562
   84loPI    C1 1329   4.642   4.168  10.382  0.0759 -0.1485 -0.0244
   84loPI    C2 1330   4.619   3.769  10.401 -0.1966 -0.1281  0.1153
   84loPI    C3 1331   4.399   3.994  10.648 -0.0215  0.1093  0.0579
   84loPI   PO4 1332   4.885   4.101  10.144 -0.0980  0.2808 -0.0207
   84loPI   GL1 1333   4.783   4.100   9.710 -0.1446 -0.1053 -0.3169
   84loPI   GL2 1334   4.576   4.216   9.564  0.2102  0.0097 -0.1912
   84loPI   C1A 1335   4.684   3.861   9.257  0.1246  0.1667 -0.0644
   84loPI   C2A 1336   4.818   3.739   8.841  0.1167 -0.1237 -0.0572
   84loPI   C3A 1337   4.905   3.515   8.458  0.0057  0.1533  0.0319
   84loPI   C4A 1338   4.910   3.250   8.032  0.0996 -0.0354  0.0139
   84loPI   C5A 1339   4.827   3.092   7.727 -0.1574  0.1388 -0.3859
   84loPI   C6A 1340   4.678   2.776   7.532  0.2367 -0.1325 -0.2291
   84loPI   C1B 1341   4.328   4.204   9.197 -0.0294  0.3103 -0.0934
   84loPI   C2B 1342   4.181   4.261   8.810  0.0851  0.0690  0.3491
   84loPI   C3B 1343   4.091   4.182   8.405 -0.2179 -0.1804  0.2924
   84loPI   C4B 1344   3.991   3.859   8.114  0.4328 -0.3625  0.2169
   85loPI    C1 1345   5.632  16.099  10.026  0.4106 -0.1984 -0.0057
   85loPI    C2 1346   5.426  16.008  10.356  0.0488  0.1454 -0.1284
   85loPI    C3 1347   5.769  16.212  10.384  0.0359  0.1455  0.0357
   85loPI   PO4 1348   5.489  16.081   9.807  0.1026  0.2262  0.1973
   85loPI   GL1 1349   5.562  15.835   9.389  0.4508 -0.1565  0.1329
   85loPI   GL2 1350   5.368  16.188   9.338  0.1185  0.0726 -0.0710
   85loPI   C1A 1351   5.582  15.725   8.904 -0.2121  0.1758  0.2095
   85loPI   C2A 1352   5.407  15.694   8.510 -0.1803 -0.1240  0.0486
   85loPI   C3A 1353   5.305  15.354   8.361  0.1131  0.2403  0.2236
   85loPI   C4A 1354   5.140  15.158   8.083 -0.1905 -0.2358 -0.1063
   85loPI   C5A 1355   4.824  14.985   8.083  0.0546 -0.1316 -0.0440
   85loPI   C6A 1356   4.439  15.202   7.900 -0.2151 -0.0135  0.0122
   85loPI   C1B 1357   5.404  16.196   8.931  0.2694 -0.1195 -0.1620
   85loPI   C2B 1358   5.576  16.167   8.575  0.0397 -0.1123 -0.0066
   85loPI   C3B 1359   5.863  16.351   8.374 -0.2916 -0.0288 -0.1067
   85loPI   C4B 1360   5.880  16.580   8.004 -0.2154 -0.0615 -0.1902
   86loPI    C1 1361  16.911   8.372  10.620  0.1631 -0.0746  0.0348
   86loPI    C2 1362  17.187   8.566  10.835  0.0907  0.1534 -0.0745
   86loPI    C3 1363  16.906   8.349  11.020  0.1999  0.1143  0.0470
   86loPI   PO4 1364  17.051   8.316  10.415  0.0042  0.2455  0.0436
   86loPI   GL1 1365  17.066   8.288  10.042 -0.3401  0.2486 -0.2510
   86loPI   GL2 1366  17.221   8.137   9.830 -0.2848  0.0695 -0.0589
   86loPI   C1A 1367  16.773   8.531   9.774 -0.1626 -0.3282 -0.1091
   86loPI   C2A 1368  16.483   8.714   9.503 -0.4308  0.0021 -0.3061
   86loPI   C3A 1369  16.538   8.934   9.087  0.2415 -0.0505  0.1073
   86loPI   C4A 1370  16.220   8.987   8.759  0.1214  0.0501 -0.2011
   86loPI   C5A 1371  16.115   9.136   8.297 -0.1542 -0.0503 -0.2245
   86loPI   C6A 1372  15.864   9.377   7.937 -0.0882  0.1501 -0.0899
   86loPI   C1B 1373  17.648   8.031   9.505 -0.1203  0.0497 -0.1786
   86loPI   C2B 1374  17.654   8.056   9.022  0.3688  0.1168 -0.1420
   86loPI   C3B 1375  17.558   7.986   8.647 -0.1247  0.0833 -0.1072
   86loPI   C4B 1376  17.573   7.709   8.215 -0.1527 -0.2013 -0.1162
   87loPI    C1 1377   9.968  10.021  10.536 -0.0723 -0.1993 -0.0249
   87loPI    C2 1378  10.014  10.135  10.917  0.0693 -0.0049 -0.0982
   87loPI    C3 1379  10.004   9.746  10.824  0.0394 -0.0533  0.1026
   87loPI   PO4 1380  10.221  10.159  10.403  0.0172 -0.3131  0.0038
   87loPI   GL1 1381  10.452  10.249   9.995 -0.0276  0.1055 -0.0546
   87loPI   GL2 1382  10.654  10.313   9.864  0.1186  0.1111  0.0852
   87loPI   C1A 1383  10.269  10.372   9.541  0.1774 -0.1591  0.1105
   87loPI   C2A 1384  10.209  10.281   9.052 -0.0337 -0.0821 -0.0003
   87loPI   C3A 1385  10.196  10.335   8.547  0.2758  0.0233 -0.0823
   87loPI   C4A 1386  10.164  10.261   8.140 -0.2161 -0.1393  0.0901
   87loPI   C5A 1387   9.947   9.867   7.949  0.2780  0.0773 -0.0446
   87loPI   C6A 1388   9.752   9.461   7.779  0.0943  0.4582 -0.1445
   87loPI   C1B 1389  10.806  10.320   9.440 -0.2729  0.4090  0.1809
   87loPI   C2B 1390  10.867  10.286   8.973 -0.0247  0.3248 -0.2004
   87loPI   C3B 1391  11.086  10.203   8.735  0.1182 -0.1158  0.2325
   87loPI   C4B 1392  11.149  10.297   8.343  0.0978  0.2480  0.0141
   88loPI    C1 1393   9.411   8.388  10.381  0.0051 -0.0701  0.3127
   88loPI    C2 1394   9.247   8.029  10.442  0.2303 -0.1925  0.2137
   88loPI    C3 1395   9.364   8.251  10.754  0.1277 -0.2219  0.2737
   88loPI   PO4 1396   9.250   8.608  10.226 -0.1888  0.1019  0.1441
   88loPI   GL1 1397   9.099   8.473   9.842 -0.1303  0.0856 -0.2401
   88loPI   GL2 1398   9.023   8.107   9.855  0.0905 -0.3579  0.1116
   88loPI   C1A 1399   9.299   8.589   9.492  0.2111 -0.1806 -0.1302
   88loPI   C2A 1400   9.549   8.629   9.212 -0.1558  0.0146  0.0182
   88loPI   C3A 1401   9.447   8.574   8.739 -0.0631  0.3149  0.0180
   88loPI   C4A 1402   9.348   8.283   8.623  0.0078 -0.1430 -0.0042
   88loPI   C5A 1403   9.310   8.082   8.223  0.1249  0.1536  0.2231
   88loPI   C6A 1404   9.410   7.642   8.079 -0.1382  0.0866  0.2219
   88loPI   C1B 1405   9.055   8.200   9.414  0.1647  0.0904 -0.1514
   88loPI   C2B 1406   9.064   8.574   9.073 -0.0896 -0.2612 -0.2024
   88loPI   C3B 1407   9.015   8.768   8.725 -0.2731 -0.1319  0.1553
   88loPI   C4B 1408   8.942   8.991   8.271 -0.1003 -0.0495 -0.4030
   89loPI    C1 1409  12.462   7.429  10.672 -0.0065 -0.4598 -0.0922
   89loPI    C2 1410  12.538   7.147  10.946  0.2512 -0.1296  0.1854
   89loPI    C3 1411  12.370   7.493  11.056  0.1030 -0.1002 -0.1227
   89loPI   PO4 1412  12.571   7.413  10.475 -0.2719 -0.1370  0.0366
   89loPI   GL1 1413  12.654   7.566  10.009 -0.1051  0.2205  0.0588
   89loPI   GL2 1414  12.776   7.809  10.011 -0.0951  0.1380 -0.3128
   89loPI   C1A 1415  12.501   7.730   9.603 -0.1594 -0.0106 -0.2402
   89loPI   C2A 1416  12.605   7.764   9.161  0.0417 -0.2142  0.2273
   89loPI   C3A 1417  12.466   7.791   8.786  0.2213  0.2737  0.2309
   89loPI   C4A 1418  12.213   8.000   8.409 -0.1353 -0.0187 -0.1367
   89loPI   C5A 1419  12.242   8.299   8.085  0.1914  0.0926  0.2022
   89loPI   C6A 1420  12.422   8.635   8.295  0.1748 -0.1425 -0.0031
   89loPI   C1B 1421  12.795   8.131   9.711  0.2002 -0.0856  0.0560
   89loPI   C2B 1422  12.798   8.354   9.355 -0.1645  0.4372  0.3090
   89loPI   C3B 1423  12.674   8.234   8.964  0.0234  0.0359  0.3275
   89loPI   C4B 1424  12.351   8.380   8.764 -0.1359 -0.0929 -0.1812
   90loPI    C1 1425   5.271   0.832   9.748 -0.0554  0.0085 -0.0785
   90loPI    C2 1426   5.007   0.670  10.001 -0.0569 -0.0769 -0.1341
   90loPI    C3 1427   5.307   0.894  10.141  0.0097 -0.2194 -0.0466
   90loPI   PO4 1428   5.125   0.943   9.489  0.0749  0.3224  0.1047
   90loPI   GL1 1429   5.146   1.362   9.361  0.0439 -0.1549 -0.0410
   90loPI   GL2 1430   4.787   1.386   9.510  0.3682  0.2044  0.0314
   90loPI   C1A 1431   5.335   1.507   8.928 -0.1271  0.0368  0.0514
   90loPI   C2A 1432   5.646   1.434   8.750  0.0733 -0.2697 -0.3334
   90loPI   C3A 1433   5.854   1.596   8.314 -0.0968  0.1124 -0.0519
   90loPI   C4A 1434   5.811   1.483   7.974 -0.0213 -0.0430  0.2928
   90loPI   C5A 1435   5.836   1.595   7.590 -0.0583 -0.1746 -0.1120
   90loPI   C6A 1436   6.147   1.598   7.176 -0.0475  0.1415  0.1514
   90loPI   C1B 1437   4.555   1.468   9.164  0.0835 -0.0732  0.1751
   90loPI   C2B 1438   4.464   1.301   8.762 -0.2366 -0.0477 -0.0540
   90loPI   C3B 1439   4.550   1.284   8.338  0.0277  0.1074  0.0447
   90loPI   C4B 1440   4.519   1.416   7.932  0.3376 -0.1267  0.4804
   91loPI    C1 1441   6.087   6.129  10.180 -0.0081 -0.1552 -0.1574
   91loPI    C2 1442   5.864   6.394  10.380 -0.0676 -0.1617 -0.2148
   91loPI    C3 1443   5.715   6.033  10.293 -0.0026 -0.1981 -0.1751
   91loPI   PO4 1444   6.113   6.299   9.952 -0.0574 -0.4837 -0.2348
   91loPI   GL1 1445   5.944   6.459   9.545  0.1329 -0.0881 -0.3283
   91loPI   GL2 1446   5.739   6.230   9.529  0.3864  0.1846 -0.1164
   91loPI   C1A 1447   6.152   6.194   9.246 -0.1959  0.1820  0.0799
   91loPI   C2A 1448   6.343   6.130   8.856 -0.0317  0.3324 -0.3011
   91loPI   C3A 1449   6.363   5.861   8.567  0.3561 -0.1416  0.2959
   91loPI   C4A 1450   6.124   5.881   8.286 -0.1287 -0.2147 -0.1840
   91loPI   C5A 1451   6.091   5.570   7.906 -0.0482  0.2030 -0.1698
   91loPI   C6A 1452   5.969   5.457   7.445  0.0272 -0.0551 -0.0949
   91loPI   C1B 1453   5.682   6.278   9.107  0.4710  0.2448  0.0044
   91loPI   C2B 1454   5.765   6.475   8.760  0.0516  0.3078  0.0641
   91loPI   C3B 1455   6.129   6.456   8.519 -0.1453  0.0286  0.3622
   91loPI   C4B 1456   6.133   6.456   8.087 -0.0294  0.0001 -0.1843
   92loPI    C1 1457  15.981   8.306  10.588  0.0041 -0.1103  0.1619
   92loPI    C2 1458  15.898   8.447  10.953 -0.2213  0.1075  0.0302
   92loPI    C3 1459  15.627   8.227  10.757 -0.1396  0.0748 -0.0464
   92loPI   PO4 1460  16.293   8.105  10.512  0.2174 -0.4113 -0.1152
   92loPI   GL1 1461  16.589   8.084  10.171  0.0319  0.2567 -0.2392
   92loPI   GL2 1462  16.529   7.726  10.118  0.0302  0.3038  0.0842
   92loPI   C1A 1463  16.334   8.347   9.866  0.1630  0.4606  0.0299
   92loPI   C2A 1464  16.039   8.505   9.523  0.0141  0.0243 -0.0585
   92loPI   C3A 1465  16.001   8.903   9.257  0.2642 -0.0377 -0.0391
   92loPI   C4A 1466  15.881   9.256   8.970  0.0940  0.0018 -0.1109
   92loPI   C5A 1467  15.874   9.429   8.615  0.1790  0.1151 -0.2470
   92loPI   C6A 1468  16.148   9.720   8.323  0.3820 -0.0983  0.1567
   92loPI   C1B 1469  16.736   7.992   9.698 -0.2647 -0.1396 -0.1525
   92loPI   C2B 1470  16.536   8.217   9.424 -0.0127  0.1529 -0.1591
   92loPI   C3B 1471  16.176   8.127   9.135 -0.1269 -0.1950 -0.0088
   92loPI   C4B 1472  16.052   8.346   8.856 -0.1805  0.1207 -0.0635
   93loPI    C1 1473   9.099  10.253  10.282 -0.2005  0.0109 -0.1819
   93loPI    C2 1474   9.049  10.047  10.621  0.2680  0.1761 -0.0043
   93loPI    C3 1475   8.971  10.439  10.613  0.0260  0.1268 -0.1575
   93loPI   PO4 1476   9.254  10.209  10.183 -0.0612 -0.0268  0.1199
   93loPI   GL1 1477   9.233  10.172   9.768  0.2759  0.1549 -0.2453
   93loPI   GL2 1478   9.565  10.279   9.678  0.1073 -0.1074  0.1228
   93loPI   C1A 1479   8.893   9.836   9.714  0.3469 -0.1111 -0.1091
   93loPI   C2A 1480   8.755   9.530   9.390  0.2698 -0.2624 -0.3522
   93loPI   C3A 1481   8.796   9.593   9.066 -0.0580  0.0544  0.1530
   93loPI   C4A 1482   8.652   9.595   8.654 -0.0305 -0.1156 -0.2620
   93loPI   C5A 1483   8.658   9.463   8.265  0.1816 -0.0031 -0.1486
   93loPI   C6A 1484   8.854   9.283   7.881 -0.3961 -0.2536  0.2472
   93loPI   C1B 1485   9.593  10.332   9.281  0.0720 -0.1247  0.1328
   93loPI   C2B 1486   9.690  10.418   8.791 -0.0717 -0.0965  0.1806
   93loPI   C3B 1487   9.661  10.571   8.355 -0.2248 -0.1667 -0.0007
   93loPI   C4B 1488   9.499  10.824   7.927  0.1304 -0.3557 -0.1213
   94loPI    C1 1489  10.221   2.241  10.528 -0.0828  0.1900  0.1780
   94loPI    C2 1490  10.248   2.405  10.892  0.1199  0.2900  0.1192
   94loPI    C3 1491  10.375   2.031  10.832 -0.0569  0.2182  0.1843
   94loPI   PO4 1492  10.339   2.430  10.369  0.3427  0.0071  0.1091
   94loPI   GL1 1493  10.275   2.471   9.811 -0.2190 -0.4032  0.2514
   94loPI   GL2 1494  10.574   2.714   9.832 -0.0906  0.3783 -0.0311
   94loPI   C1A 1495   9.949   2.803   9.612 -0.1922 -0.1748  0.2166
   94loPI   C2A 1496   9.898   2.958   9.129  0.2324 -0.0205 -0.3517
   94loPI   C3A 1497   9.997   2.918   8.655  0.2283  0.0529 -0.3487
   94loPI   C4A 1498   9.859   3.151   8.387  0.0888 -0.3027 -0.0450
   94loPI   C5A 1499  10.066   3.369   8.078 -0.1060  0.0599 -0.0061
   94loPI   C6A 1500  10.313   3.576   7.680  0.1474 -0.0550 -0.0916
   94loPI   C1B 1501  10.560   2.809   9.529  0.1320  0.0861 -0.0758
   94loPI   C2B 1502  10.563   2.715   9.199  0.2864 -0.2415 -0.0639
   94loPI   C3B 1503  10.521   2.758   8.823  0.1260 -0.3583  0.2307
   94loPI   C4B 1504  10.783   2.565   8.489  0.0427 -0.0911  0.0211
   95loPI    C1 1505  14.813   9.060  10.618 -0.0805  0.0718  0.0465
   95loPI    C2 1506  14.813   9.349  10.895  0.0466  0.2744 -0.1612
   95loPI    C3 1507  14.932   8.979  10.991 -0.0437  0.3080  0.0874
   95loPI   PO4 1508  14.957   9.245  10.384 -0.1438  0.0709 -0.0542
   95loPI   GL1 1509  14.907   9.200   9.931 -0.0388  0.0064  0.0043
   95loPI   GL2 1510  15.050   8.934   9.836 -0.3785  0.3530  0.3519
   95loPI   C1A 1511  15.256   9.204   9.510  0.1660  0.2987 -0.0960
   95loPI   C2A 1512  15.485   9.064   9.156  0.1336  0.1979  0.2542
   95loPI   C3A 1513  15.759   8.823   8.786  0.0526  0.3322 -0.1663
   95loPI   C4A 1514  15.865   8.574   8.402 -0.2261 -0.2579 -0.2095
   95loPI   C5A 1515  15.748   8.123   8.134  0.0600  0.1680 -0.0683
   95loPI   C6A 1516  15.977   7.884   7.992 -0.0219 -0.2094 -0.0173
   95loPI   C1B 1517  14.789   8.976   9.481 -0.2652  0.0957 -0.0500
   95loPI   C2B 1518  14.893   9.161   9.227  0.0411 -0.0333  0.0377
   95loPI   C3B 1519  14.769   8.994   8.839 -0.0077  0.0302 -0.3391
   95loPI   C4B 1520  14.893   8.858   8.462  0.1232  0.0254 -0.2499
   96loPI    C1 1521   5.905   9.615  10.138 -0.0276  0.0613 -0.0017
   96loPI    C2 1522   6.046   9.245  10.193 -0.2265 -0.0412 -0.1717
   96loPI    C3 1523   5.785   9.400  10.454 -0.1402 -0.0191 -0.0983
   96loPI   PO4 1524   6.119   9.801  10.183 -0.1061 -0.1560 -0.1775
   96loPI   GL1 1525   6.303  10.027   9.863  0.0667  0.0847 -0.1814
   96loPI   GL2 1526   5.973  10.100   9.752  0.2126 -0.4120  0.1444
   96loPI   C1A 1527   6.424   9.875   9.519 -0.2222  0.0319  0.0404
   96loPI   C2A 1528   6.408  10.000   9.082  0.1980  0.3575  0.1597
   96loPI   C3A 1529   6.502  10.090   8.692 -0.0076 -0.1761 -0.2425
   96loPI   C4A 1530   6.532  10.117   8.252  0.1014  0.1862  0.0744
   96loPI   C5A 1531   6.764  10.353   7.974  0.2349  0.0729 -0.2443
   96loPI   C6A 1532   6.836  10.765   7.910 -0.2520 -0.0727  0.0732
   96loPI   C1B 1533   5.937  10.010   9.379  0.0262  0.1297 -0.1755
   96loPI   C2B 1534   5.921  10.080   9.015  0.0944  0.1277 -0.1334
   96loPI   C3B 1535   6.046   9.989   8.665 -0.1720 -0.3256 -0.1034
   96loPI   C4B 1536   6.135   9.828   8.250  0.2475  0.0761  0.1484
   97loPI    C1 1537   8.425  17.928  10.034  0.0431  0.0230 -0.0617
   97loPI    C2 1538   8.431  17.784  10.407  0.3098  0.0011 -0.0724
   97loPI    C3 1539   8.090  17.922  10.251  0.1954  0.0052  0.1769
   97loPI   PO4 1540   8.628  18.056   9.976  0.0565 -0.0758 -0.0064
   97loPI   GL1 1541   8.882  18.012   9.646 -0.1660 -0.0075 -0.1152
   97loPI   GL2 1542   8.530  18.028   9.449 -0.2128 -0.1712 -0.0470
   97loPI   C1A 1543   9.166  17.782   9.210 -0.1986  0.1846 -0.0121
   97loPI   C2A 1544   9.165  17.795   8.776 -0.4735  0.1077 -0.0449
   97loPI   C3A 1545   9.291  17.881   8.362  0.1120  0.0544  0.2027
   97loPI   C4A 1546   9.364  17.870   7.902 -0.1197  0.4471 -0.2818
   97loPI   C5A 1547   9.323  17.931   7.426  0.0549 -0.0079  0.3134
   97loPI   C6A 1548   9.128  17.951   7.094 -0.0499  0.1564 -0.0976
   97loPI   C1B 1549   8.770  17.971   9.063 -0.0605 -0.0044 -0.2040
   97loPI   C2B 1550   8.780  17.509   8.861 -0.1297 -0.0923  0.3548
   97loPI   C3B 1551   8.541  17.283   8.474  0.2564 -0.1507  0.0713
   97loPI   C4B 1552   8.565  17.353   8.066 -0.1978 -0.1617 -0.1043
   98loPI    C1 1553   9.931   3.798  10.364  0.1648  0.0930 -0.2470
   98loPI    C2 1554  10.161   4.020  10.605 -0.0595 -0.2025  0.2562
   98loPI    C3 1555  10.228   3.627  10.570 -0.0711 -0.1751 -0.1230
   98loPI   PO4 1556   9.821   3.944  10.192 -0.0751  0.1282  0.1481
   98loPI   GL1 1557   9.651   3.886   9.879  0.1574  0.1669 -0.0776
   98loPI   GL2 1558   9.901   4.171   9.768 -0.0620 -0.1351 -0.1648
   98loPI   C1A 1559   9.604   4.023   9.428 -0.2928 -0.0612 -0.0261
   98loPI   C2A 1560   9.529   3.948   9.025  0.0018  0.2488  0.3259
   98loPI   C3A 1561   9.351   4.028   8.635 -0.2761  0.3819 -0.3083
   98loPI   C4A 1562   9.312   4.159   8.302 -0.2052  0.0446 -0.0243
   98loPI   C5A 1563   9.420   3.870   7.991 -0.1083 -0.1467 -0.0394
   98loPI   C6A 1564   9.586   3.505   8.054 -0.1809 -0.1018 -0.0401
   98loPI   C1B 1565  10.062   4.212   9.339 -0.1696  0.1139 -0.1088
   98loPI   C2B 1566   9.980   4.284   9.037 -0.3078 -0.1065 -0.0279
   98loPI   C3B 1567   9.867   4.163   8.616  0.1456 -0.0224  0.0869
   98loPI   C4B 1568   9.763   4.359   8.263  0.0569 -0.1595  0.0320
   99loPI    C1 1569   8.405  10.748  10.608 -0.0253  0.2029 -0.0081
   99loPI    C2 1570   8.625  10.656  10.929 -0.1730  0.1966  0.0923
   99loPI    C3 1571   8.239  10.750  10.972 -0.2450 -0.0009 -0.1047
   99loPI   PO4 1572   8.490  10.556  10.461  0.1250  0.3270 -0.1328
   99loPI   GL1 1573   8.797  10.634  10.145  0.0606  0.2331  0.3291
   99loPI   GL2 1574   9.052  10.623   9.918  0.0441 -0.2115  0.1501
   99loPI   C1A 1575   8.689  10.324   9.892 -0.0787  0.1608  0.1533
   99loPI   C2A 1576   8.690  10.311   9.508 -0.2033  0.0667  0.0429
   99loPI   C3A 1577   8.742  10.139   9.106  0.0196  0.1884  0.1296
   99loPI   C4A 1578   8.888  10.107   8.749  0.0519  0.1737  0.1205
   99loPI   C5A 1579   8.874   9.933   8.362 -0.2742  0.0522  0.1448
   99loPI   C6A 1580   8.778  10.109   7.920 -0.2410 -0.0351 -0.1853
   99loPI   C1B 1581   9.101  10.530   9.406  0.1742 -0.2020 -0.0923
   99loPI   C2B 1582   9.087  10.554   9.012 -0.0691 -0.0453  0.0320
   99loPI   C3B 1583   9.181  10.494   8.597 -0.1194 -0.2021  0.1566
   99loPI   C4B 1584   9.100  10.389   8.211 -0.2536 -0.3171 -0.1889
  100loPI    C1 1585  10.963  17.851  10.459 -0.0643  0.0160 -0.0360
  100loPI    C2 1586  10.800  17.885  10.823 -0.0338 -0.0486 -0.0162
  100loPI    C3 1587  11.140  17.680  10.774 -0.0609 -0.0769 -0.0879
  100loPI   PO4 1588  10.751  17.765  10.263 -0.0706  0.1267 -0.2194
  100loPI   GL1 1589  10.535  17.862   9.906  0.0948  0.0864 -0.0074
  100loPI   GL2 1590  10.763  18.037   9.819 -0.3872  0.1786 -0.0408
  100loPI   C1A 1591  10.404  17.941   9.457 -0.0238 -0.0638 -0.3431
  100loPI   C2A 1592  10.418  18.077   9.000  0.0558  0.2172 -0.0772
  100loPI   C3A 1593  10.337  18.080   8.621 -0.0033  0.2470 -0.2788
  100loPI   C4A 1594  10.180  17.900   8.190  0.1081 -0.1507 -0.0979
  100loPI   C5A 1595  10.112  17.614   7.875  0.0375 -0.2607 -0.3842
  100loPI   C6A 1596   9.893  17.367   7.502  0.1408 -0.0218  0.0907
  100loPI   C1B 1597  10.916  18.253   9.476  0.2150  0.0587 -0.0651
  100loPI   C2B 1598  10.872  18.070   9.155 -0.3500  0.0212 -0.0416
  100loPI   C3B 1599  10.821  17.924   8.724  0.3696 -0.4004 -0.2703
  100loPI   C4B 1600  10.715  17.856   8.387  0.2999 -0.0014 -0.1145
  101loPI    C1 1601   2.590  18.398   9.874  0.3747  0.1259 -0.1032
  101loPI    C2 1602   2.689  18.335  10.257  0.0766  0.0138 -0.0421
  101loPI    C3 1603   2.662  18.709  10.116  0.1207  0.0574  0.0646
  101loPI   PO4 1604   2.727  18.258   9.732 -0.0165 -0.0678  0.1853
  101loPI   GL1 1605   2.718  18.346   9.232 -0.1886  0.2631 -0.0240
  101loPI   GL2 1606   2.515  18.163   9.243  0.0224 -0.1863  0.1921
  101loPI   C1A 1607   2.856  18.293   8.885 -0.3607  0.0752  0.3970
  101loPI   C2A 1608   2.849  18.203   8.397  0.1930  0.0743 -0.2612
  101loPI   C3A 1609   2.646  18.148   8.004  0.1140  0.0222 -0.3555
  101loPI   C4A 1610   2.421  18.499   7.817  0.3859  0.1835 -0.0871
  101loPI   C5A 1611   2.593  18.878   7.640 -0.0255 -0.0107 -0.1292
  101loPI   C6A 1612   2.830  19.281   7.616  0.1227  0.1531 -0.3278
  101loPI   C1B 1613   2.320  18.246   8.819  0.3115  0.0622  0.1586
  101loPI   C2B 1614   2.178  18.470   8.467  0.4019 -0.1924  0.0749
  101loPI   C3B 1615   2.121  18.330   8.137 -0.1249 -0.0234 -0.0282
  101loPI   C4B 1616   1.997  18.326   7.659  0.1101  0.3095 -0.1838
  102loPI    C1 1617  17.348  16.124  10.433  0.1654  0.1947 -0.2309
  102loPI    C2 1618  17.286  16.418  10.697  0.4905  0.1282 -0.0752
  102loPI    C3 1619  17.512  16.103  10.797  0.0408 -0.2438 -0.1942
  102loPI   PO4 1620  17.308  16.185  10.256 -0.3180  0.1133  0.0469
  102loPI   GL1 1621  17.362  16.032   9.852 -0.1870 -0.0019 -0.0249
  102loPI   GL2 1622  17.210  16.078   9.739  0.3266  0.0864 -0.0729
  102loPI   C1A 1623  17.615  16.215   9.532 -0.1357 -0.1737  0.4415
  102loPI   C2A 1624  17.616  16.185   9.041  0.1314 -0.3355 -0.0441
  102loPI   C3A 1625  17.636  16.286   8.648 -0.0611 -0.0312  0.3709
  102loPI   C4A 1626  17.543  16.434   8.260  0.2361  0.0450 -0.0329
  102loPI   C5A 1627  17.279  16.447   7.910 -0.3481 -0.0403 -0.0608
  102loPI   C6A 1628  17.184  16.786   7.791  0.0892  0.0346 -0.0029
  102loPI   C1B 1629  17.241  15.943   9.251 -0.0551 -0.0636 -0.0547
  102loPI   C2B 1630  17.290  15.881   8.792  0.0915 -0.2711  0.1851
  102loPI   C3B 1631  16.978  15.866   8.575 -0.1473 -0.4537  0.1847
  102loPI   C4B 1632  17.076  16.172   8.246 -0.0419 -0.0456 -0.2343
  103loPI    C1 1633   7.095   2.768  10.112 -0.1544  0.0090 -0.1295
  103loPI    C2 1634   7.148   3.122  10.289 -0.1202 -0.1502  0.1855
  103loPI    C3 1635   7.250   2.786  10.480 -0.2289 -0.3360 -0.0776
  103loPI   PO4 1636   7.022   2.816   9.865  0.0645 -0.2291  0.1905
  103loPI   GL1 1637   6.863   2.839   9.363  0.0599  0.0011  0.2342
  103loPI   GL2 1638   6.770   3.151   9.539 -0.1324 -0.2915  0.0233
  103loPI   C1A 1639   7.061   2.915   9.041 -0.2817 -0.0361 -0.2486
  103loPI   C2A 1640   7.006   3.201   8.702  0.1853 -0.1720 -0.1108
  103loPI   C3A 1641   6.917   3.273   8.250  0.0259 -0.2737 -0.2179
  103loPI   C4A 1642   7.115   3.259   7.932 -0.0746 -0.1958 -0.1381
  103loPI   C5A 1643   7.217   3.574   7.698 -0.2595  0.0545 -0.3113
  103loPI   C6A 1644   7.262   3.820   7.417  0.2934  0.4209  0.0464
  103loPI   C1B 1645   6.969   3.392   9.204 -0.0277  0.1279 -0.1835
  103loPI   C2B 1646   7.125   3.680   8.857 -0.0850  0.1547  0.0896
  103loPI   C3B 1647   7.064   3.708   8.457 -0.2813 -0.2027 -0.1233
  103loPI   C4B 1648   7.224   3.871   8.070 -0.2819 -0.1444  0.1213
  104loPI    C1 1649   7.562   2.473  10.253 -0.0781  0.2306 -0.0044
  104loPI    C2 1650   7.608   2.138  10.467 -0.1087  0.3174  0.1399
  104loPI    C3 1651   7.905   2.406  10.447 -0.0038  0.1837 -0.1512
  104loPI   PO4 1652   7.523   2.461  10.049  0.1268 -0.3001  0.0401
  104loPI   GL1 1653   7.609   2.654   9.644  0.3473  0.1188 -0.3625
  104loPI   GL2 1654   7.323   2.538   9.608  0.4056 -0.0649 -0.2215
  104loPI   C1A 1655   7.783   2.674   9.246 -0.1512 -0.0448  0.1167
  104loPI   C2A 1656   7.769   2.728   8.803  0.1373  0.0095  0.0867
  104loPI   C3A 1657   7.829   2.781   8.449 -0.1789  0.1334  0.1092
  104loPI   C4A 1658   7.978   2.995   8.094  0.0504 -0.0466  0.5170
  104loPI   C5A 1659   7.923   2.925   7.527  0.0408  0.0997  0.0762
  104loPI   C6A 1660   7.941   3.037   7.206  0.1702  0.0281  0.4062
  104loPI   C1B 1661   7.287   2.536   9.149  0.4675 -0.1059  0.0652
  104loPI   C2B 1662   7.379   2.511   8.672  0.1653  0.0544 -0.1853
  104loPI   C3B 1663   7.350   2.905   8.449 -0.0749 -0.0603  0.0398
  104loPI   C4B 1664   7.506   3.086   8.161 -0.0850 -0.2765  0.4194
  105loPI    C1 1665  15.252   4.531  10.940 -0.0677 -0.1962  0.0783
  105loPI    C2 1666  14.991   4.834  10.933  0.0392 -0.1042  0.0685
  105loPI    C3 1667  15.379   4.904  11.005  0.0905 -0.2195 -0.0891
  105loPI   PO4 1668  15.297   4.360  10.638  0.0399  0.1364  0.2017
  105loPI   GL1 1669  15.113   4.240  10.236 -0.0097  0.1393  0.1084
  105loPI   GL2 1670  15.322   4.036  10.035  0.0336  0.0300 -0.1261
  105loPI   C1A 1671  15.039   4.459   9.797 -0.1788  0.0729 -0.1793
  105loPI   C2A 1672  15.114   4.393   9.434 -0.1230 -0.2669 -0.0680
  105loPI   C3A 1673  14.778   4.197   9.111 -0.0969 -0.3368  0.2559
  105loPI   C4A 1674  14.685   4.067   8.667 -0.0540 -0.0225  0.0578
  105loPI   C5A 1675  14.886   4.010   8.335 -0.1893  0.0187  0.0823
  105loPI   C6A 1676  14.713   3.947   7.912  0.0003 -0.1816  0.0060
  105loPI   C1B 1677  15.678   4.119   9.775 -0.0278  0.1386 -0.0450
  105loPI   C2B 1678  15.775   3.979   9.366 -0.0158 -0.0178  0.0844
  105loPI   C3B 1679  15.785   4.054   9.002 -0.0801  0.1531 -0.0084
  105loPI   C4B 1680  15.717   4.347   8.682 -0.3504  0.0685 -0.0005
  106loPI    C1 1681  11.495  11.951  10.247 -0.0414  0.1226  0.1534
  106loPI    C2 1682  11.627  12.289  10.414  0.1985  0.0110  0.1939
  106loPI    C3 1683  11.661  11.942  10.610  0.1807 -0.0728  0.0501
  106loPI   PO4 1684  11.635  11.927   9.984 -0.3552 -0.0164 -0.2008
  106loPI   GL1 1685  11.661  11.896   9.498 -0.2711 -0.0405  0.0087
  106loPI   GL2 1686  11.532  12.218   9.471 -0.0425  0.1125  0.1654
  106loPI   C1A 1687  11.556  11.605   9.211 -0.3097  0.1297 -0.0548
  106loPI   C2A 1688  11.799  11.530   8.829 -0.3123  0.1347  0.2995
  106loPI   C3A 1689  12.032  11.490   8.341 -0.0318  0.1706  0.0353
  106loPI   C4A 1690  12.245  11.547   8.035 -0.0944  0.3603  0.1750
  106loPI   C5A 1691  12.558  11.659   7.860  0.0404 -0.1974 -0.0633
  106loPI   C6A 1692  12.682  11.692   7.345  0.2299  0.1650 -0.1533
  106loPI   C1B 1693  11.488  12.152   9.101  0.0858 -0.1081  0.0173
  106loPI   C2B 1694  11.342  11.944   8.645  0.0501  0.0149  0.0466
  106loPI   C3B 1695  11.463  11.537   8.436 -0.0628  0.1645 -0.0365
  106loPI   C4B 1696  11.616  11.173   8.578 -0.0005  0.3071  0.0878
  107loPI    C1 1697  18.354   7.845  10.162  0.0135 -0.1456 -0.0077
  107loPI    C2 1698  18.416   7.874  10.556 -0.1916 -0.1800  0.0282
  107loPI    C3 1699  18.632   7.617  10.338 -0.0757 -0.1591  0.1171
  107loPI   PO4 1700  18.316   8.062  10.114  0.1850  0.1521  0.1511
  107loPI   GL1 1701  18.366   8.347   9.748  0.1100  0.2472  0.0451
  107loPI   GL2 1702  18.636   8.113   9.641  0.4635 -0.2693  0.0952
  107loPI   C1A 1703  18.107   8.175   9.461 -0.2428 -0.1514 -0.0239
  107loPI   C2A 1704  18.216   7.956   9.044  0.3297  0.3842 -0.1106
  107loPI   C3A 1705  18.362   7.571   8.768 -0.1405  0.2880 -0.2991
  107loPI   C4A 1706  18.475   7.380   8.517  0.0875 -0.1739  0.1941
  107loPI   C5A 1707  18.394   7.290   8.166 -0.0901 -0.1951 -0.0086
  107loPI   C6A 1708  18.462   6.815   7.986  0.0927  0.0199  0.1045
  107loPI   C1B 1709  18.722   8.013   9.254  0.1477  0.1538  0.0859
  107loPI   C2B 1710  18.782   7.728   8.960 -0.0910  0.2790  0.0413
  107loPI   C3B 1711  18.974   7.481   8.556 -0.0703  0.0041  0.1281
  107loPI   C4B 1712  19.363   7.470   8.250  0.1780 -0.0867  0.0867
  108loPI    C1 1713   5.817   4.517  10.240  0.1599 -0.1653 -0.0963
  108loPI    C2 1714   5.805   4.270  10.554  0.1219  0.0550  0.0783
  108loPI    C3 1715   5.477   4.329  10.335  0.0827  0.0886  0.1457
  108loPI   PO4 1716   6.012   4.553  10.131 -0.0310 -0.1415 -0.0742
  108loPI   GL1 1717   6.143   4.444   9.754  0.0585  0.1277  0.2106
  108loPI   GL2 1718   6.483   4.616   9.668 -0.1565  0.5109 -0.2043
  108loPI   C1A 1719   6.039   4.432   9.321 -0.0436 -0.1082  0.1702
  108loPI   C2A 1720   6.001   4.453   8.881 -0.0554 -0.1329  0.3325
  108loPI   C3A 1721   5.860   4.605   8.455 -0.0729  0.1585 -0.0150
  108loPI   C4A 1722   5.999   4.741   8.103 -0.0115 -0.0259 -0.1283
  108loPI   C5A 1723   6.167   4.982   7.723 -0.0698  0.0195 -0.1358
  108loPI   C6A 1724   6.490   4.940   7.501 -0.1280  0.2770 -0.1015
  108loPI   C1B 1725   6.575   4.263   9.225  0.2395 -0.6340  0.0544
  108loPI   C2B 1726   6.363   4.141   8.974  0.1262 -0.2944  0.1816
  108loPI   C3B 1727   6.319   4.174   8.601 -0.0867 -0.0663 -0.0328
  108loPI   C4B 1728   6.139   4.222   8.092 -0.1964 -0.0538  0.2954
  109loPI    C1 1729  12.131   6.410  10.645  0.3692  0.0967 -0.0916
  109loPI    C2 1730  12.115   6.712  10.907 -0.1066 -0.0440  0.0520
  109loPI    C3 1731  12.212   6.344  11.031  0.1313 -0.0210 -0.0599
  109loPI   PO4 1732  12.223   6.460  10.450 -0.2838  0.1015 -0.1490
  109loPI   GL1 1733  12.347   6.635  10.097 -0.0933 -0.1375  0.1585
  109loPI   GL2 1734  11.959   6.861  10.188  0.0981  0.1282 -0.1184
  109loPI   C1A 1735  12.632   6.698   9.709 -0.0319 -0.0691  0.1255
  109loPI   C2A 1736  12.671   6.924   9.317 -0.0290  0.0400 -0.1368
  109loPI   C3A 1737  12.744   6.898   8.918 -0.1016  0.0549 -0.1524
  109loPI   C4A 1738  12.970   6.913   8.570  0.2278  0.0077  0.1604
  109loPI   C5A 1739  13.080   7.206   8.162 -0.2291 -0.1227 -0.0491
  109loPI   C6A 1740  13.332   7.522   7.965 -0.1597 -0.2158 -0.2906
  109loPI   C1B 1741  11.854   7.013   9.805  0.0152  0.1846 -0.0963
  109loPI   C2B 1742  11.959   7.095   9.410  0.2889  0.2091 -0.1262
  109loPI   C3B 1743  11.852   7.050   8.947  0.0138  0.5491 -0.2681
  109loPI   C4B 1744  11.892   7.127   8.513 -0.1307  0.1282  0.0768
  110loPI    C1 1745   8.323   3.708  10.281 -0.0862 -0.1956 -0.2644
  110loPI    C2 1746   8.012   3.588  10.501  0.0283 -0.1603 -0.0806
  110loPI    C3 1747   8.292   3.823  10.663  0.1377 -0.1710 -0.2518
  110loPI   PO4 1748   8.408   3.459  10.170  0.1003 -0.3211 -0.1160
  110loPI   GL1 1749   8.363   3.399   9.723  0.0064 -0.2649  0.0615
  110loPI   GL2 1750   8.214   3.681   9.741  0.0644  0.0892  0.2137
  110loPI   C1A 1751   8.464   3.412   9.219  0.0748 -0.0466 -0.0844
  110loPI   C2A 1752   8.471   3.400   8.798 -0.3152 -0.0410 -0.2021
  110loPI   C3A 1753   8.659   3.428   8.387 -0.1777  0.2273 -0.3850
  110loPI   C4A 1754   8.629   3.549   7.891  0.3018  0.2245  0.0531
  110loPI   C5A 1755   8.683   3.455   7.478 -0.1890 -0.0369 -0.0095
  110loPI   C6A 1756   8.648   3.629   7.084 -0.2724 -0.1888  0.2799
  110loPI   C1B 1757   7.946   3.600   9.393  0.1283  0.2716  0.1069
  110loPI   C2B 1758   8.019   3.600   8.967  0.0553  0.0179  0.2239
  110loPI   C3B 1759   8.060   3.412   8.553  0.0530 -0.2709  0.3263
  110loPI   C4B 1760   8.163   3.451   8.160 -0.4096 -0.0134 -0.2304
  111loPI    C1 1761   7.614   0.348  10.061 -0.2764  0.2959  0.1560
  111loPI    C2 1762   7.894   0.319  10.345 -0.0615 -0.0040 -0.0797
  111loPI    C3 1763   7.532   0.161  10.405 -0.0090 -0.0883  0.0174
  111loPI   PO4 1764   7.627   0.609   9.991 -0.0267 -0.0532 -0.0329
  111loPI   GL1 1765   7.504   0.890   9.610 -0.1972  0.0318 -0.2337
  111loPI   GL2 1766   7.618   0.452   9.482  0.3820 -0.0063  0.0770
  111loPI   C1A 1767   7.440   1.239   9.145  0.0370  0.5825 -0.1129
  111loPI   C2A 1768   7.417   1.126   8.654  0.4236 -0.1244 -0.2407
  111loPI   C3A 1769   7.532   1.020   8.315  0.0251  0.1347  0.1039
  111loPI   C4A 1770   7.688   0.832   7.876 -0.2836 -0.1279 -0.1670
  111loPI   C5A 1771   8.039   0.707   7.542 -0.0254 -0.1757  0.0002
  111loPI   C6A 1772   8.424   0.849   7.590  0.1593 -0.0680 -0.1050
  111loPI   C1B 1773   7.391   0.714   9.143  0.2210 -0.0361 -0.0216
  111loPI   C2B 1774   7.190   0.776   8.944  0.0692 -0.0993  0.2141
  111loPI   C3B 1775   7.055   0.816   8.496  0.0542  0.0539  0.2665
  111loPI   C4B 1776   6.757   1.040   8.278 -0.2441 -0.1232 -0.0718
  112loPI    C1 1777  15.068   8.632  10.528 -0.0336  0.0405 -0.1099
  112loPI    C2 1778  15.118   8.288  10.727  0.1088  0.0345 -0.1550
  112loPI    C3 1779  14.811   8.528  10.816  0.1595  0.0224  0.0582
  112loPI   PO4 1780  15.126   8.488  10.254 -0.1031 -0.2606 -0.0379
  112loPI   GL1 1781  15.444   8.412   9.928 -0.0548 -0.1713  0.0495
  112loPI   GL2 1782  15.706   8.712   9.913  0.0434  0.1719  0.1035
  112loPI   C1A 1783  15.611   8.278   9.610 -0.1088  0.2284 -0.1104
  112loPI   C2A 1784  15.686   8.309   9.218 -0.1408  0.1615 -0.1514
  112loPI   C3A 1785  15.520   8.205   8.844 -0.1313 -0.1815 -0.1926
  112loPI   C4A 1786  15.347   8.092   8.492 -0.0386  0.0016  0.0262
  112loPI   C5A 1787  15.277   7.873   8.106 -0.1959  0.0338 -0.0256
  112loPI   C6A 1788  15.136   7.506   8.096  0.1307 -0.1339  0.0022
  112loPI   C1B 1789  15.630   8.774   9.605 -0.1117 -0.2617 -0.4091
  112loPI   C2B 1790  15.256   8.650   9.341 -0.1822 -0.0153 -0.0803
  112loPI   C3B 1791  15.206   8.571   8.933 -0.1489  0.1728  0.0582
  112loPI   C4B 1792  15.329   8.612   8.474 -0.1353 -0.1662  0.1033
  113loPI    C1 1793  16.143   5.089  10.580  0.3007  0.1713 -0.0443
  113loPI    C2 1794  15.904   5.102  10.900  0.4202  0.2521  0.0424
  113loPI    C3 1795  16.299   5.142  10.944  0.4449  0.1790 -0.1066
  113loPI   PO4 1796  16.140   4.848  10.352 -0.3145  0.3637 -0.3528
  113loPI   GL1 1797  16.472   4.690  10.060  0.4163  0.1579 -0.0491
  113loPI   GL2 1798  16.691   4.481  10.021 -0.2049 -0.4131  0.3290
  113loPI   C1A 1799  16.455   4.710   9.666 -0.2647 -0.1389  0.2407
  113loPI   C2A 1800  16.404   4.863   9.197 -0.0112  0.2367 -0.2114
  113loPI   C3A 1801  16.390   5.094   8.814 -0.1452  0.2679  0.1234
  113loPI   C4A 1802  16.654   5.216   8.472 -0.0535 -0.0826  0.1541
  113loPI   C5A 1803  16.913   5.125   8.119  0.4138  0.0126  0.0390
  113loPI   C6A 1804  17.076   4.709   7.876  0.0077  0.2211  0.0808
  113loPI   C1B 1805  16.461   4.139   9.829  0.0653  0.0940  0.1845
  113loPI   C2B 1806  16.445   3.988   9.547 -0.0726 -0.3242 -0.0858
  113loPI   C3B 1807  16.215   3.856   9.181 -0.0362 -0.0496 -0.2785
  113loPI   C4B 1808  16.055   3.624   8.882 -0.0761  0.0085  0.0521
  114loPI    C1 1809  18.457  18.431  10.540 -0.1327  0.0672  0.1063
  114loPI    C2 1810  18.213  18.416  10.857 -0.0209  0.2724  0.2046
  114loPI    C3 1811  18.469  18.116  10.787 -0.0370  0.2324  0.3151
  114loPI   PO4 1812  18.389  18.442  10.366 -0.0703 -0.0149  0.1491
  114loPI   GL1 1813  18.268  18.190  10.073  0.2255 -0.0616 -0.2529
  114loPI   GL2 1814  18.400  18.566   9.850 -0.1051 -0.2001  0.2945
  114loPI   C1A 1815  18.156  18.157   9.688  0.0938 -0.2934 -0.1381
  114loPI   C2A 1816  17.966  18.092   9.182 -0.2184  0.6085 -0.2579
  114loPI   C3A 1817  17.618  18.161   9.035  0.0017  0.1106  0.2832
  114loPI   C4A 1818  17.257  18.432   8.883 -0.1357 -0.3888  0.0420
  114loPI   C5A 1819  17.179  18.673   8.497  0.0251  0.0210 -0.0501
  114loPI   C6A 1820  16.936  18.638   8.153  0.0699 -0.0325 -0.1125
  114loPI   C1B 1821  18.281  18.611   9.424  0.1601  0.2112 -0.2312
  114loPI   C2B 1822  18.129  18.595   9.035 -0.1311 -0.1607  0.1140
  114loPI   C3B 1823  18.132  18.658   8.530  0.1818  0.0440 -0.3151
  114loPI   C4B 1824  17.954  18.534   8.151 -0.0272 -0.0454  0.0022
  115loPI    C1 1825  17.906  11.941  10.908 -0.1161  0.0942  0.1714
  115loPI    C2 1826  18.258  11.997  11.089  0.0198 -0.1873  0.0016
  115loPI    C3 1827  18.084  11.637  11.097 -0.2206 -0.0731  0.0044
  115loPI   PO4 1828  17.986  12.051  10.624 -0.1619 -0.0511  0.1311
  115loPI   GL1 1829  17.788  11.907  10.198  0.0664 -0.2822  0.3718
  115loPI   GL2 1830  18.140  11.808  10.223 -0.0267  0.1885 -0.2011
  115loPI   C1A 1831  17.683  12.070   9.723 -0.0172 -0.0159 -0.0458
  115loPI   C2A 1832  17.694  12.020   9.242  0.0018 -0.0114  0.0057
  115loPI   C3A 1833  17.873  11.767   8.831  0.2503 -0.2255 -0.2975
  115loPI   C4A 1834  17.877  11.783   8.421  0.1917 -0.2266  0.1303
  115loPI   C5A 1835  17.483  11.702   8.179 -0.0516 -0.0187  0.1742
  115loPI   C6A 1836  17.165  11.926   7.981 -0.1508  0.0130 -0.2023
  115loPI   C1B 1837  17.914  11.569   9.835 -0.1642  0.0388 -0.0545
  115loPI   C2B 1838  18.134  11.249   9.636  0.0786  0.0202 -0.0893
  115loPI   C3B 1839  18.195  11.395   9.133 -0.0210  0.1152 -0.0968
  115loPI   C4B 1840  18.367  11.572   8.744 -0.2117 -0.0151 -0.3173
  116loPI    C1 1841   2.857   0.434  10.176  0.0420 -0.1048  0.1162
  116loPI    C2 1842   3.023   0.178  10.436 -0.0658 -0.0952  0.1954
  116loPI    C3 1843   2.651   0.313  10.497  0.0280  0.1632  0.2106
  116loPI   PO4 1844   2.981   0.382   9.893 -0.0304  0.2618 -0.1950
  116loPI   GL1 1845   2.963   0.422   9.435 -0.0858  0.1397  0.2810
  116loPI   GL2 1846   3.050   0.061   9.545  0.0541 -0.1186 -0.4119
  116loPI   C1A 1847   2.986   0.475   8.930 -0.0032 -0.3270 -0.0071
  116loPI   C2A 1848   2.925   0.361   8.481 -0.0257 -0.0467 -0.0174
  116loPI   C3A 1849   2.689   0.365   8.063  0.3208  0.2504 -0.1558
  116loPI   C4A 1850   2.495   0.729   8.007  0.0585 -0.3553  0.1121
  116loPI   C5A 1851   2.595   1.139   8.046  0.1322  0.0691 -0.1220
  116loPI   C6A 1852   2.255   1.398   7.863 -0.0719  0.2410  0.1888
  116loPI   C1B 1853   3.108  -0.045   9.165 -0.1578  0.1950 -0.2722
  116loPI   C2B 1854   3.144  -0.070   8.666 -0.0147 -0.2820  0.0753
  116loPI   C3B 1855   3.160  -0.018   8.319 -0.2188  0.1106  0.0318
  116loPI   C4B 1856   3.403   0.116   8.059  0.1950  0.2036 -0.0953
  117loPI    C1 1857  14.735  14.116  10.373  0.0631  0.1232 -0.1936
  117loPI    C2 1858  14.921  13.797  10.527 -0.0779  0.1355  0.0061
  117loPI    C3 1859  14.546  13.881  10.636 -0.1072  0.2637 -0.1892
  117loPI   PO4 1860  14.816  14.038  10.099 -0.5075  0.0253 -0.2473
  117loPI   GL1 1861  14.603  13.884   9.793  0.0274  0.1233  0.1285
  117loPI   GL2 1862  14.733  14.166   9.530  0.0423  0.0973 -0.2800
  117loPI   C1A 1863  14.408  13.756   9.341  0.1241 -0.2027  0.0863
  117loPI   C2A 1864  14.262  13.668   8.879  0.0860  0.2162 -0.0033
  117loPI   C3A 1865  14.027  13.694   8.508 -0.1181  0.0157 -0.0863
  117loPI   C4A 1866  13.846  13.636   8.172 -0.1161  0.1723 -0.1273
  117loPI   C5A 1867  13.738  13.217   7.990  0.1669  0.1926 -0.0412
  117loPI   C6A 1868  13.722  12.991   7.632  0.1753 -0.1275 -0.1775
  117loPI   C1B 1869  15.028  14.228   9.229 -0.1483 -0.1672 -0.0418
  117loPI   C2B 1870  15.356  14.192   8.996 -0.0236 -0.0474  0.3991
  117loPI   C3B 1871  15.510  14.244   8.558 -0.2022  0.1266  0.0642
  117loPI   C4B 1872  15.628  14.137   8.060  0.1672 -0.1058 -0.0782
  118loPI    C1 1873   3.338  16.189  10.329 -0.1464  0.2507  0.0142
  118loPI    C2 1874   3.321  16.585  10.379  0.0571  0.2493  0.1012
  118loPI    C3 1875   3.537  16.360  10.630 -0.0689  0.0814  0.0604
  118loPI   PO4 1876   3.419  16.222  10.027 -0.4718  0.2232 -0.4911
  118loPI   GL1 1877   3.077  16.377   9.763 -0.0752  0.1037 -0.1646
  118loPI   GL2 1878   2.735  16.304   9.782  0.0849 -0.0919  0.0398
  118loPI   C1A 1879   3.255  16.607   9.395  0.0996 -0.0708  0.3230
  118loPI   C2A 1880   3.407  16.739   9.009  0.3111 -0.2157  0.3459
  118loPI   C3A 1881   3.382  16.750   8.607  0.0627 -0.1720  0.0091
  118loPI   C4A 1882   3.273  16.806   8.193 -0.0973 -0.0950  0.0626
  118loPI   C5A 1883   3.228  17.083   7.907 -0.2166  0.2011 -0.1469
  118loPI   C6A 1884   3.124  17.496   7.917 -0.2414 -0.2382  0.0839
  118loPI   C1B 1885   2.724  16.338   9.409  0.0154  0.2019  0.2540
  118loPI   C2B 1886   2.864  16.238   8.929  0.2048  0.1734 -0.0283
  118loPI   C3B 1887   2.926  16.133   8.540  0.2535 -0.0316  0.2248
  118loPI   C4B 1888   2.940  15.988   8.177 -0.0213 -0.1654 -0.0705
  119loPI    C1 1889  14.418   8.261  10.332  0.0093 -0.1162  0.0717
  119loPI    C2 1890  14.521   7.883  10.252 -0.0484 -0.0818 -0.1747
  119loPI    C3 1891  14.783   8.129  10.428 -0.0367 -0.2558  0.0557
  119loPI   PO4 1892  14.095   8.292  10.339 -0.2055  0.2192 -0.1245
  119loPI   GL1 1893  13.855   8.627  10.124  0.0834  0.1232 -0.2666
  119loPI   GL2 1894  13.607   8.598   9.859 -0.1067  0.0018 -0.0925
  119loPI   C1A 1895  14.199   8.591   9.774  0.2779 -0.1560 -0.2872
  119loPI   C2A 1896  14.390   8.805   9.686  0.0955 -0.1755 -0.1154
  119loPI   C3A 1897  14.361   8.764   9.205 -0.2049 -0.0475 -0.3750
  119loPI   C4A 1898  14.438   8.569   8.707 -0.4566 -0.1259  0.0178
  119loPI   C5A 1899  14.483   8.500   8.193  0.0788 -0.1960 -0.1732
  119loPI   C6A 1900  14.335   8.869   7.873 -0.4094 -0.0190  0.1187
  119loPI   C1B 1901  13.819   8.337   9.618 -0.0779 -0.5721  0.2875
  119loPI   C2B 1902  13.970   8.367   9.329 -0.0901  0.2385 -0.0389
  119loPI   C3B 1903  14.222   8.237   8.973  0.1810  0.0524  0.1085
  119loPI   C4B 1904  14.397   7.967   8.556 -0.2451 -0.0890 -0.0656
  120loPI    C1 1905   2.468   5.531  10.801  0.1574 -0.0917 -0.4056
  120loPI    C2 1906   2.746   5.800  10.699 -0.0877  0.3355  0.0128
  120loPI    C3 1907   2.637   5.760  11.081 -0.2806 -0.1490 -0.0846
  120loPI   PO4 1908   2.346   5.533  10.561 -0.0918  0.0837 -0.1711
  120loPI   GL1 1909   2.257   5.677  10.081 -0.2687 -0.0872 -0.0342
  120loPI   GL2 1910   1.964   5.449  10.021 -0.1263  0.0848  0.1702
  120loPI   C1A 1911   2.340   5.886   9.705  0.2025 -0.1555 -0.2147
  120loPI   C2A 1912   2.668   6.071   9.545 -0.3184  0.1555 -0.1365
  120loPI   C3A 1913   2.858   5.996   9.055  0.1940  0.1085 -0.0307
  120loPI   C4A 1914   2.758   5.951   8.595  0.0842 -0.0118 -0.0898
  120loPI   C5A 1915   2.749   6.152   8.136  0.2408 -0.2053  0.2387
  120loPI   C6A 1916   3.094   5.982   7.929 -0.0724 -0.0994 -0.5797
  120loPI   C1B 1917   2.181   5.370   9.651 -0.0924  0.1675 -0.2318
  120loPI   C2B 1918   2.517   5.520   9.460 -0.1516  0.1664 -0.2001
  120loPI   C3B 1919   2.683   5.248   9.134  0.0648  0.2748 -0.1906
  120loPI   C4B 1920   2.907   4.989   8.980  0.0206 -0.0999  0.1745
  121loPI    C1 1921  17.970  13.044  10.242  0.1952  0.0188  0.1017
  121loPI    C2 1922  17.815  13.232  10.559  0.0231  0.0993 -0.0285
  121loPI    C3 1923  18.070  13.424  10.318  0.0575  0.0779 -0.0092
  121loPI   PO4 1924  17.772  12.886  10.167  0.1884 -0.0581 -0.4028
  121loPI   GL1 1925  17.452  12.755   9.902 -0.1499  0.0388  0.2548
  121loPI   GL2 1926  17.747  12.524   9.846 -0.2666 -0.2306  0.0481
  121loPI   C1A 1927  17.443  13.035   9.575 -0.0685  0.0450  0.0811
  121loPI   C2A 1928  17.508  13.290   9.258  0.1285 -0.1026 -0.1081
  121loPI   C3A 1929  17.429  13.270   8.833  0.0021  0.2937  0.3388
  121loPI   C4A 1930  17.298  13.079   8.429  0.3323  0.3386  0.0682
  121loPI   C5A 1931  17.458  13.134   8.096 -0.0835 -0.0909  0.0548
  121loPI   C6A 1932  17.299  13.230   7.643  0.1291  0.0816 -0.3629
  121loPI   C1B 1933  17.610  12.528   9.458  0.0308  0.0919  0.0382
  121loPI   C2B 1934  17.380  12.380   9.091 -0.0327  0.0252 -0.0058
  121loPI   C3B 1935  17.260  12.440   8.712  0.3556  0.2741  0.0016
  121loPI   C4B 1936  17.236  12.594   8.280 -0.1639  0.1774 -0.1019
  122loPI    C1 1937   4.287   2.978   9.957 -0.1394 -0.0036  0.0683
  122loPI    C2 1938   4.425   2.639  10.120  0.2342  0.1073 -0.0079
  122loPI    C3 1939   4.536   2.992  10.270 -0.1141  0.1998  0.0400
  122loPI   PO4 1940   3.992   2.924   9.942  0.2025 -0.1722  0.1821
  122loPI   GL1 1941   3.717   2.877   9.713  0.1079  0.0763  0.2448
  122loPI   GL2 1942   3.669   3.188   9.499  0.1701 -0.0857  0.0529
  122loPI   C1A 1943   4.036   2.893   9.303 -0.0645  0.3316 -0.1005
  122loPI   C2A 1944   3.953   2.793   8.880 -0.1518  0.0927  0.1753
  122loPI   C3A 1945   4.032   2.784   8.414 -0.1558  0.0084  0.1223
  122loPI   C4A 1946   3.796   2.871   8.023 -0.0080  0.0772 -0.2477
  122loPI   C5A 1947   3.602   3.176   7.712 -0.1843 -0.0495 -0.0437
  122loPI   C6A 1948   3.428   3.475   7.460  0.0880 -0.4265  0.3412
  122loPI   C1B 1949   3.911   3.378   9.125  0.1010 -0.1513  0.0620
  122loPI   C2B 1950   4.197   3.268   8.807  0.1960 -0.3351  0.1998
  122loPI   C3B 1951   4.479   3.014   8.541 -0.0278  0.0293 -0.0439
  122loPI   C4B 1952   4.471   2.952   8.038  0.0562  0.4478 -0.0245
  123loPI    C1 1953  14.439   3.973  10.324  0.0517 -0.0255  0.0132
  123loPI    C2 1954  14.497   3.579  10.294 -0.3013 -0.0826  0.0334
  123loPI    C3 1955  14.394   3.740  10.646 -0.3538 -0.0005 -0.0193
  123loPI   PO4 1956  14.562   4.067  10.137 -0.0656  0.5360 -0.1102
  123loPI   GL1 1957  14.522   4.111   9.601  0.0642 -0.2222  0.3490
  123loPI   GL2 1958  14.471   4.416   9.819 -0.0615 -0.3530 -0.0429
  123loPI   C1A 1959  14.847   3.788   9.505  0.0052 -0.2556  0.1382
  123loPI   C2A 1960  14.965   3.672   9.135 -0.2910  0.1798  0.3278
  123loPI   C3A 1961  15.015   3.673   8.782 -0.0724  0.0120 -0.0715
  123loPI   C4A 1962  15.058   3.537   8.328  0.2792  0.0609  0.1891
  123loPI   C5A 1963  15.265   3.548   7.990 -0.2633 -0.2575 -0.1592
  123loPI   C6A 1964  15.597   3.545   7.822 -0.5442  0.2019  0.2549
  123loPI   C1B 1965  14.619   4.640   9.447 -0.3479 -0.2404 -0.1255
  123loPI   C2B 1966  14.924   4.704   9.084  0.1057 -0.2901  0.2403
  123loPI   C3B 1967  14.955   5.007   8.651  0.1950 -0.0020 -0.1107
  123loPI   C4B 1968  15.021   5.019   8.185  0.2441 -0.4115 -0.0079
  124loPI    C1 1969   5.918   2.988   9.959 -0.0206 -0.0462  0.1853
  124loPI    C2 1970   5.677   2.798   9.703 -0.2860  0.2813  0.1850
  124loPI    C3 1971   5.728   2.654  10.073 -0.2385  0.0427  0.0879
  124loPI   PO4 1972   6.176   3.032   9.795  0.0251  0.0823  0.0648
  124loPI   GL1 1973   6.335   2.883   9.279 -0.3709 -0.0206  0.0513
  124loPI   GL2 1974   6.081   3.158   9.277  0.0090 -0.1580 -0.2680
  124loPI   C1A 1975   6.562   3.193   9.021  0.6155 -0.2538  0.3441
  124loPI   C2A 1976   6.493   3.334   8.588 -0.1162 -0.0968  0.0416
  124loPI   C3A 1977   6.422   3.265   8.165  0.1694 -0.2122  0.0175
  124loPI   C4A 1978   6.678   3.110   7.757  0.3575 -0.1988  0.0166
  124loPI   C5A 1979   7.125   3.013   7.510  0.0022 -0.1064 -0.0318
  124loPI   C6A 1980   7.446   2.906   7.162  0.0284  0.0698 -0.0719
  124loPI   C1B 1981   6.113   3.138   8.775 -0.0350  0.2768 -0.4322
  124loPI   C2B 1982   5.984   3.120   8.326  0.2419  0.0769  0.1183
  124loPI   C3B 1983   6.032   2.955   7.790  0.0643  0.1333  0.1760
  124loPI   C4B 1984   5.844   2.817   7.446  0.3297  0.1324  0.3376
  125loPI    C1 1985  13.253  14.895  10.409  0.1673  0.1985 -0.0119
  125loPI    C2 1986  13.334  14.576  10.637  0.0404  0.2474  0.1033
  125loPI    C3 1987  12.955  14.671  10.553  0.0715  0.4442  0.1787
  125loPI   PO4 1988  13.408  14.845  10.224  0.2193 -0.1829 -0.0826
  125loPI   GL1 1989  13.458  14.720   9.891 -0.0532  0.2549  0.1461
  125loPI   GL2 1990  13.700  14.890   9.744 -0.1345 -0.0052 -0.0019
  125loPI   C1A 1991  13.169  14.546   9.486  0.0943 -0.1300  0.2474
  125loPI   C2A 1992  13.122  14.490   9.051 -0.2589  0.3618  0.0101
  125loPI   C3A 1993  13.394  14.484   8.719  0.0515  0.2976 -0.0917
  125loPI   C4A 1994  13.454  14.589   8.294  0.0134  0.0028  0.2988
  125loPI   C5A 1995  13.898  14.603   8.086 -0.1081  0.3056 -0.1033
  125loPI   C6A 1996  14.252  14.508   7.813  0.1762 -0.1141  0.0738
  125loPI   C1B 1997  13.764  14.621   9.422 -0.0289 -0.2201 -0.1727
  125loPI   C2B 1998  14.093  14.437   9.048 -0.0638 -0.1670  0.0237
  125loPI   C3B 1999  14.299  14.226   8.626  0.3784 -0.1859 -0.3902
  125loPI   C4B 2000  14.125  14.052   8.203  0.2145  0.0691  0.0696
  126loPI    C1 2001   5.435  13.163  10.132 -0.0010  0.0232  0.0134
  126loPI    C2 2002   5.144  13.392  10.284  0.0178 -0.0393  0.1444
  126loPI    C3 2003   5.279  13.076  10.490  0.0340 -0.1329 -0.0085
  126loPI   PO4 2004   5.294  13.048   9.928  0.0676 -0.1029  0.0800
  126loPI   GL1 2005   5.322  12.959   9.569 -0.2507  0.0227 -0.2409
  126loPI   GL2 2006   5.092  13.295   9.468 -0.1498 -0.0592  0.2482
  126loPI   C1A 2007   5.688  12.829   9.346  0.2373 -0.2153  0.3572
  126loPI   C2A 2008   5.748  12.738   8.941 -0.0388  0.1747 -0.1168
  126loPI   C3A 2009   5.845  12.818   8.546 -0.2604 -0.0447 -0.1026
  126loPI   C4A 2010   5.889  12.931   8.079  0.1270 -0.1182  0.0319
  126loPI   C5A 2011   6.132  12.766   7.672  0.0531 -0.1893 -0.0991
  126loPI   C6A 2012   6.295  12.865   7.378 -0.0310 -0.0617  0.0822
  126loPI   C1B 2013   5.189  13.011   9.104 -0.2869 -0.0828 -0.1467
  126loPI   C2B 2014   5.322  12.886   8.749 -0.3306  0.1306  0.0719
  126loPI   C3B 2015   5.260  12.628   8.374  0.1293  0.2536  0.1938
  126loPI   C4B 2016   4.970  12.478   8.038  0.1444  0.2130 -0.1284
  127loPI    C1 2017  12.214  11.980  10.514  0.1451 -0.0609  0.0625
  127loPI    C2 2018  12.277  11.597  10.608 -0.2288 -0.1440 -0.0081
  127loPI    C3 2019  12.083  11.836  10.863  0.1145  0.0354  0.0910
  127loPI   PO4 2020  12.231  11.938  10.249  0.1563  0.1041 -0.1522
  127loPI   GL1 2021  12.178  11.844   9.831 -0.1240  0.0179 -0.5665
  127loPI   GL2 2022  12.066  12.167   9.865  0.0745  0.0435 -0.0191
  127loPI   C1A 2023  12.191  12.002   9.380  0.0763  0.0800 -0.0747
  127loPI   C2A 2024  11.978  12.071   8.965  0.0459  0.1321 -0.0601
  127loPI   C3A 2025  11.816  11.961   8.543  0.0299 -0.0785 -0.2044
  127loPI   C4A 2026  11.929  11.959   8.190 -0.2295 -0.0322  0.0366
  127loPI   C5A 2027  12.174  12.013   7.807 -0.2738  0.1684  0.0979
  127loPI   C6A 2028  12.262  12.132   7.418 -0.0838 -0.2994  0.0162
  127loPI   C1B 2029  11.992  12.421   9.482  0.1376 -0.0402 -0.1575
  127loPI   C2B 2030  11.924  12.581   9.103 -0.2295 -0.0536  0.0618
  127loPI   C3B 2031  11.749  12.453   8.788  0.1571 -0.2042  0.0255
  127loPI   C4B 2032  11.328  12.481   8.476  0.0442 -0.0364 -0.0683
  128loPI    C1 2033  13.993  10.926  10.591  0.1585  0.0242 -0.0350
  128loPI    C2 2034  14.005  11.288  10.761  0.1955 -0.0730  0.1729
  128loPI    C3 2035  13.769  11.003  10.913  0.0105 -0.0761 -0.1127
  128loPI   PO4 2036  14.132  10.938  10.362  0.2854 -0.0858  0.2148
  128loPI   GL1 2037  14.260  11.013  10.010 -0.0060 -0.0849 -0.0906
  128loPI   GL2 2038  14.075  11.192   9.759 -0.1793 -0.2640  0.0415
  128loPI   C1A 2039  14.247  10.722   9.626 -0.2202 -0.2554 -0.0489
  128loPI   C2A 2040  14.421  10.288   9.444  0.0953 -0.1854  0.1527
  128loPI   C3A 2041  14.518  10.215   9.032  0.2222 -0.1562 -0.0276
  128loPI   C4A 2042  14.516  10.242   8.515  0.1605 -0.1333 -0.2644
  128loPI   C5A 2043  14.471   9.950   8.078 -0.0687  0.0994  0.0141
  128loPI   C6A 2044  14.277   9.997   7.692  0.1537 -0.3358  0.2315
  128loPI   C1B 2045  13.941  11.211   9.255 -0.1686 -0.2662  0.0351
  128loPI   C2B 2046  14.075  11.101   8.852  0.0537  0.2185  0.3144
  128loPI   C3B 2047  13.965  11.012   8.471  0.0559  0.3603  0.3316
  128loPI   C4B 2048  13.667  11.105   8.170  0.2781 -0.1014  0.0169
  129loPI    C1 2049  10.238   7.563  10.328  0.3034  0.2044  0.1814
  129loPI    C2 2050  10.067   7.682  10.670  0.1384  0.0683  0.1479
  129loPI    C3 2051  10.314   7.367  10.669 -0.0336 -0.0677  0.1057
  129loPI   PO4 2052  10.201   7.656  10.216 -0.1327 -0.1596 -0.0331
  129loPI   GL1 2053  10.020   7.615   9.842 -0.1553 -0.2935 -0.0590
  129loPI   GL2 2054   9.783   7.433   9.961  0.1018  0.0825  0.2907
  129loPI   C1A 2055   9.960   7.694   9.428  0.2117  0.2364  0.0173
  129loPI   C2A 2056   9.843   7.583   9.052  0.1317 -0.1002  0.0923
  129loPI   C3A 2057   9.946   7.491   8.633 -0.0426  0.0914  0.0965
  129loPI   C4A 2058   9.783   7.143   8.336  0.0078 -0.2263 -0.0315
  129loPI   C5A 2059   9.516   6.821   8.096  0.1469  0.2336  0.1081
  129loPI   C6A 2060   9.173   6.774   8.158  0.1995 -0.1587 -0.0276
  129loPI   C1B 2061   9.702   7.284   9.603  0.4141 -0.2157  0.2797
  129loPI   C2B 2062   9.668   7.091   9.234 -0.4965 -0.1022 -0.0697
  129loPI   C3B 2063   9.550   7.235   8.806 -0.0554  0.0580  0.1293
  129loPI   C4B 2064   9.314   7.160   8.416  0.2189 -0.0688  0.2708
  130loPI    C1 2065   0.655   8.174  10.468  0.1104 -0.0326  0.1457
  130loPI    C2 2066   0.442   7.836  10.484  0.0328  0.0108  0.0386
  130loPI    C3 2067   0.632   7.969  10.810  0.1265 -0.1765  0.0612
  130loPI   PO4 2068   0.496   8.353  10.261  0.0508 -0.3833  0.0232
  130loPI   GL1 2069   0.477   8.371   9.787  0.2203  0.0269 -0.1211
  130loPI   GL2 2070   0.177   8.547   9.665 -0.1878  0.3625  0.2555
  130loPI   C1A 2071   0.409   8.285   9.338  0.0038  0.0945 -0.0077
  130loPI   C2A 2072   0.378   8.252   8.893  0.0467 -0.1747  0.0988
  130loPI   C3A 2073   0.336   8.386   8.598 -0.2316  0.1743  0.3432
  130loPI   C4A 2074   0.398   8.559   8.179  0.0831 -0.1871 -0.1247
  130loPI   C5A 2075   0.488   8.268   7.924  0.0843  0.1655 -0.1616
  130loPI   C6A 2076   0.521   7.838   7.792 -0.1607  0.3666 -0.2029
  130loPI   C1B 2077   0.586   8.823   9.445  0.2098 -0.2612 -0.2438
  130loPI   C2B 2078   0.622   9.035   9.042 -0.0396 -0.0298  0.0841
  130loPI   C3B 2079   0.576   9.216   8.735  0.0996 -0.2763 -0.0141
  130loPI   C4B 2080   0.568   9.032   8.261  0.0957 -0.2324 -0.1133
  131loPI    C1 2081   1.725   4.195  10.826  0.2144 -0.0586 -0.1695
  131loPI    C2 2082   1.558   4.166  11.188 -0.1321  0.3073 -0.2925
  131loPI    C3 2083   1.840   3.906  11.077 -0.1096  0.1145  0.1900
  131loPI   PO4 2084   1.539   4.179  10.572  0.1338  0.0314  0.1497
  131loPI   GL1 2085   1.423   4.165  10.142  0.2878  0.1361 -0.2573
  131loPI   GL2 2086   1.188   4.475  10.039 -0.0032  0.2097 -0.0359
  131loPI   C1A 2087   1.343   4.000   9.689 -0.0181  0.0871  0.5188
  131loPI   C2A 2088   1.279   3.862   9.215 -0.4921  0.1247  0.4026
  131loPI   C3A 2089   0.931   3.600   8.921  0.0720 -0.3846  0.0545
  131loPI   C4A 2090   0.885   3.660   8.508  0.2396 -0.0898 -0.2203
  131loPI   C5A 2091   0.585   3.411   8.312  0.2457  0.0081 -0.1456
  131loPI   C6A 2092   0.374   3.410   7.988  0.2023  0.1608  0.4974
  131loPI   C1B 2093   1.280   4.456   9.707 -0.4114 -0.0254  0.0347
  131loPI   C2B 2094   1.394   4.340   9.303  0.0815  0.0132 -0.0512
  131loPI   C3B 2095   1.311   4.170   8.799 -0.0121 -0.1390 -0.1984
  131loPI   C4B 2096   1.115   4.143   8.435  0.0134  0.3335  0.1417
  132loPI    C1 2097  17.610   2.300  10.788  0.1604  0.0391 -0.0649
  132loPI    C2 2098  17.883   2.189  11.058  0.1484 -0.1053 -0.1114
  132loPI    C3 2099  17.502   2.073  11.100  0.0450  0.2860  0.0782
  132loPI   PO4 2100  17.720   2.254  10.586 -0.0840  0.3558  0.0213
  132loPI   GL1 2101  17.721   2.345  10.137  0.0795 -0.0682 -0.0876
  132loPI   GL2 2102  17.704   2.595   9.971  0.1115  0.0037 -0.0093
  132loPI   C1A 2103  17.801   2.114   9.839 -0.0504 -0.0505 -0.0899
  132loPI   C2A 2104  17.837   2.065   9.409  0.1081  0.0025  0.2822
  132loPI   C3A 2105  17.749   1.804   9.076 -0.1182  0.2552  0.0586
  132loPI   C4A 2106  17.850   1.761   8.629  0.2295  0.2167  0.0480
  132loPI   C5A 2107  17.807   1.640   8.155 -0.4197 -0.0984 -0.2817
  132loPI   C6A 2108  17.889   1.884   7.666  0.1465 -0.1357 -0.2188
  132loPI   C1B 2109  17.741   2.538   9.591 -0.0007 -0.2875  0.3030
  132loPI   C2B 2110  17.861   2.478   9.182 -0.4068  0.0935 -0.1020
  132loPI   C3B 2111  18.098   2.322   8.819  0.1721  0.2803  0.0776
  132loPI   C4B 2112  18.223   2.532   8.472 -0.2243 -0.2837 -0.0381
  133loPI    C1 2113   5.305   5.730  10.328  0.2279  0.1978 -0.1485
  133loPI    C2 2114   5.338   5.952  10.658  0.0365  0.1786 -0.1154
  133loPI    C3 2115   5.537   5.607  10.629 -0.0968  0.0853  0.0607
  133loPI   PO4 2116   5.292   5.919  10.143 -0.0008  0.1688 -0.2168
  133loPI   GL1 2117   5.228   5.921   9.718 -0.0247  0.0990 -0.0706
  133loPI   GL2 2118   5.475   5.706   9.700 -0.1094 -0.0199  0.0084
  133loPI   C1A 2119   5.320   6.000   9.322 -0.2315 -0.2424 -0.1851
  133loPI   C2A 2120   5.356   5.902   9.008 -0.1540  0.1092  0.4549
  133loPI   C3A 2121   5.377   5.614   8.676  0.0787  0.2447  0.0321
  133loPI   C4A 2122   5.654   5.660   8.251 -0.0372 -0.1131 -0.0292
  133loPI   C5A 2123   5.531   5.745   7.823 -0.0164  0.1658  0.0724
  133loPI   C6A 2124   5.317   5.964   7.459 -0.3293  0.2596  0.2475
  133loPI   C1B 2125   5.342   5.502   9.334  0.2998 -0.2207 -0.3223
  133loPI   C2B 2126   5.090   5.392   8.997  0.0475  0.1810  0.0800
  133loPI   C3B 2127   4.930   5.385   8.552 -0.0606 -0.0606 -0.2213
  133loPI   C4B 2128   4.808   5.393   8.164  0.0828 -0.0161 -0.1197
  134loPI    C1 2129   1.952  11.112  10.111  0.1018  0.0180 -0.1145
  134loPI    C2 2130   1.872  11.370  10.407  0.1335 -0.0324 -0.0617
  134loPI    C3 2131   1.610  11.082  10.317  0.1326 -0.0290 -0.0700
  134loPI   PO4 2132   2.102  11.383   9.941  0.2371  0.0355  0.1567
  134loPI   GL1 2133   2.208  11.498   9.483 -0.0348 -0.1498 -0.3844
  134loPI   GL2 2134   1.789  11.539   9.412 -0.2035  0.3120 -0.0856
  134loPI   C1A 2135   2.147  11.130   9.221  0.1520  0.0548 -0.2959
  134loPI   C2A 2136   2.171  10.888   8.862 -0.0607 -0.0658 -0.0986
  134loPI   C3A 2137   2.091  10.626   8.459  0.0606  0.3087  0.0205
  134loPI   C4A 2138   1.989  10.711   8.004  0.0979  0.0614 -0.1623
  134loPI   C5A 2139   1.711  10.971   7.755 -0.0464 -0.1858  0.1330
  134loPI   C6A 2140   1.572  11.189   7.454  0.0515  0.3685  0.0206
  134loPI   C1B 2141   1.918  11.535   8.857 -0.1207  0.0716  0.1035
  134loPI   C2B 2142   1.919  11.471   8.443 -0.1958 -0.0713 -0.0963
  134loPI   C3B 2143   2.096  11.496   8.029  0.2212  0.1071 -0.1177
  134loPI   C4B 2144   2.369  11.526   7.850 -0.1092  0.1556  0.0532
  135loPI    C1 2145   1.254  11.387  10.127 -0.0157  0.2189 -0.1946
  135loPI    C2 2146   1.588  11.419   9.909  0.0558 -0.1128 -0.1386
  135loPI    C3 2147   1.521  11.674  10.209  0.0195  0.2645 -0.4585
  135loPI   PO4 2148   1.069  11.316  10.023 -0.0282  0.0264 -0.4035
  135loPI   GL1 2149   1.045  11.135   9.657 -0.0628  0.0265  0.3011
  135loPI   GL2 2150   1.354  11.273   9.515 -0.1065 -0.1575  0.2679
  135loPI   C1A 2151   1.168  10.952   9.173  0.0815  0.0918 -0.4289
  135loPI   C2A 2152   1.150  10.994   8.723 -0.2225 -0.0935 -0.1623
  135loPI   C3A 2153   1.218  11.154   8.354  0.0081 -0.0970  0.0372
  135loPI   C4A 2154   1.139  11.119   7.823 -0.3405  0.0795 -0.0600
  135loPI   C5A 2155   1.220  10.898   7.548  0.0087 -0.0030  0.2838
  135loPI   C6A 2156   1.337  10.776   7.196  0.2221 -0.0700 -0.1306
  135loPI   C1B 2157   1.400  11.395   9.125  0.1275  0.3057  0.0350
  135loPI   C2B 2158   1.242  11.502   8.740 -0.0889 -0.1198  0.1378
  135loPI   C3B 2159   0.870  11.558   8.518 -0.0755  0.1121 -0.0517
  135loPI   C4B 2160   0.822  11.346   8.077  0.0272  0.0525  0.0383
  136loPI    C1 2161   1.164  16.220  10.371  0.0907 -0.1226  0.1264
  136loPI    C2 2162   0.937  16.513  10.520  0.1469  0.0049 -0.0364
  136loPI    C3 2163   0.773  16.234  10.286  0.0865 -0.1151  0.1472
  136loPI   PO4 2164   1.386  16.369  10.175 -0.1505  0.0091  0.1432
  136loPI   GL1 2165   1.622  16.213   9.753 -0.1342  0.2208  0.2549
  136loPI   GL2 2166   1.773  16.441   9.825  0.0304 -0.3858  0.0333
  136loPI   C1A 2167   1.641  16.238   9.377 -0.2112  0.1074 -0.1522
  136loPI   C2A 2168   1.423  16.268   9.073 -0.1119  0.0709 -0.0941
  136loPI   C3A 2169   1.413  16.318   8.729  0.2952  0.2683  0.2058
  136loPI   C4A 2170   1.490  16.636   8.455 -0.0709 -0.0384 -0.0692
  136loPI   C5A 2171   1.399  16.979   8.175  0.1677 -0.3506 -0.1171
  136loPI   C6A 2172   1.447  17.499   8.013 -0.0292 -0.3675  0.0220
  136loPI   C1B 2173   2.210  16.359   9.496 -0.3000  0.0151 -0.0890
  136loPI   C2B 2174   2.322  16.342   9.011 -0.2020 -0.0275 -0.0519
  136loPI   C3B 2175   2.426  16.174   8.634  0.3906 -0.0461  0.0851
  136loPI   C4B 2176   2.355  16.186   8.264 -0.0584 -0.1069  0.4425
  137loPI    C1 2177   9.766   1.054  10.304  0.1444 -0.0575  0.1977
  137loPI    C2 2178   9.485   1.179  10.049  0.2500 -0.0436  0.0871
  137loPI    C3 2179   9.483   1.309  10.427 -0.0716 -0.2806  0.1716
  137loPI   PO4 2180   9.985   0.932  10.164 -0.2284  0.0096 -0.0552
  137loPI   GL1 2181   9.983   0.838   9.765  0.1140 -0.1135  0.0336
  137loPI   GL2 2182   9.925   1.157   9.770 -0.2221  0.1512  0.2842
  137loPI   C1A 2183   9.786   0.644   9.452  0.0716 -0.1733  0.2302
  137loPI   C2A 2184   9.442   0.581   9.045 -0.2589  0.1081 -0.2588
  137loPI   C3A 2185   9.533   0.619   8.546 -0.2074  0.0608  0.1864
  137loPI   C4A 2186   9.501   0.592   8.078  0.0733  0.0049  0.0898
  137loPI   C5A 2187   9.614   0.319   7.566  0.0041  0.2359 -0.2411
  137loPI   C6A 2188   9.929   0.296   7.446 -0.4029  0.3456  0.1591
  137loPI   C1B 2189   9.925   1.114   9.303  0.1843 -0.3349  0.1304
  137loPI   C2B 2190  10.013   0.978   8.913  0.1148 -0.0247  0.0668
  137loPI   C3B 2191   9.969   0.900   8.603  0.1083  0.1072  0.1891
  137loPI   C4B 2192  10.109   0.986   8.163 -0.0269 -0.0856  0.1750
  138loPI    C1 2193  10.881  16.728  10.315 -0.0679  0.1099  0.0744
  138loPI    C2 2194  10.629  16.554  10.573 -0.0584  0.0465  0.0411
  138loPI    C3 2195  10.975  16.376  10.481 -0.0820  0.0470 -0.0497
  138loPI   PO4 2196  10.688  16.771  10.060 -0.2453 -0.1643 -0.0103
  138loPI   GL1 2197  10.513  16.545   9.733 -0.1460  0.2345 -0.1018
  138loPI   GL2 2198  10.286  16.625   9.623 -0.0417  0.1274  0.0540
  138loPI   C1A 2199  10.858  16.553   9.365  0.1189  0.0525  0.1175
  138loPI   C2A 2200  11.101  16.423   8.984  0.1918  0.2200 -0.1154
  138loPI   C3A 2201  11.096  16.212   8.540  0.1753 -0.1570  0.1549
  138loPI   C4A 2202  10.975  16.114   8.110 -0.2153  0.1044 -0.0514
  138loPI   C5A 2203  10.789  15.856   7.743 -0.1850 -0.1623  0.0773
  138loPI   C6A 2204  10.887  15.590   7.406 -0.0027 -0.1864  0.1465
  138loPI   C1B 2205  10.393  16.645   9.181 -0.1770 -0.2041  0.1827
  138loPI   C2B 2206  10.619  16.612   8.813  0.4662  0.1479 -0.2251
  138loPI   C3B 2207  10.902  16.682   8.539 -0.0212 -0.0034 -0.2077
  138loPI   C4B 2208  10.949  16.590   8.186 -0.0941  0.3628 -0.4404
  139loPI    C1 2209  14.864   3.515  10.860 -0.0529  0.0941  0.1207
  139loPI    C2 2210  14.937   3.123  10.889  0.0563  0.1111  0.0806
  139loPI    C3 2211  14.570   3.252  10.795  0.0388  0.0165  0.0175
  139loPI   PO4 2212  15.138   3.542  10.759 -0.0556 -0.2110 -0.1417
  139loPI   GL1 2213  15.379   3.440  10.291  0.0880 -0.0625  0.1549
  139loPI   GL2 2214  15.563   3.570  10.025 -0.0099 -0.0827 -0.3128
  139loPI   C1A 2215  15.071   3.392   9.892 -0.0343  0.0108  0.1369
  139loPI   C2A 2216  15.209   3.382   9.407  0.0429  0.0945  0.5379
  139loPI   C3A 2217  15.136   3.179   9.048  0.1044  0.3815  0.0928
  139loPI   C4A 2218  15.322   3.307   8.651  0.1520  0.0744  0.1625
  139loPI   C5A 2219  15.565   3.441   8.399 -0.4084  0.1571 -0.0571
  139loPI   C6A 2220  15.979   3.406   8.093  0.0057  0.1174 -0.1826
  139loPI   C1B 2221  15.492   3.663   9.669 -0.1510 -0.1378  0.0297
  139loPI   C2B 2222  15.292   3.961   9.319  0.1315 -0.0226 -0.1514
  139loPI   C3B 2223  15.301   4.213   8.977 -0.5552 -0.1888 -0.0091
  139loPI   C4B 2224  15.134   4.450   8.629 -0.2149 -0.3685  0.0685
  140loPI    C1 2225   1.632   7.118  10.756  0.0217  0.1511  0.2219
  140loPI    C2 2226   1.356   7.397  10.679 -0.4195 -0.3184  0.0451
  140loPI    C3 2227   1.382   7.237  11.044  0.0946  0.2147  0.2594
  140loPI   PO4 2228   1.587   6.960  10.471 -0.1886  0.0021 -0.0633
  140loPI   GL1 2229   1.746   6.925  10.042  0.1045 -0.0154 -0.4146
  140loPI   GL2 2230   1.435   6.775  10.069  0.2455  0.1495 -0.1437
  140loPI   C1A 2231   1.886   6.845   9.542  0.1065 -0.0770 -0.1213
  140loPI   C2A 2232   1.883   6.974   9.204 -0.2942  0.0766 -0.1695
  140loPI   C3A 2233   1.736   6.955   8.838  0.1653 -0.0840  0.1031
  140loPI   C4A 2234   1.551   6.837   8.454 -0.0075  0.0531 -0.0204
  140loPI   C5A 2235   1.232   6.682   8.224 -0.2277  0.1908 -0.2090
  140loPI   C6A 2236   1.077   6.409   7.805 -0.0249  0.4054 -0.2420
  140loPI   C1B 2237   1.400   6.725   9.598  0.1247  0.0483  0.1159
  140loPI   C2B 2238   1.499   6.662   9.157  0.1728  0.3250 -0.1984
  140loPI   C3B 2239   1.357   6.402   8.742  0.0543 -0.1588 -0.0094
  140loPI   C4B 2240   1.190   6.146   8.295  0.2397 -0.1092 -0.2523
  141loPI    C1 2241  17.370   9.812  10.394 -0.0565 -0.0998 -0.0611
  141loPI    C2 2242  17.003   9.935  10.497 -0.0563 -0.0222 -0.1518
  141loPI    C3 2243  17.325  10.125  10.640 -0.0574  0.1433 -0.3641
  141loPI   PO4 2244  17.321   9.763  10.097 -0.3758  0.1280 -0.0112
  141loPI   GL1 2245  16.876   9.872   9.921  0.0368  0.4158 -0.2211
  141loPI   GL2 2246  16.876  10.147   9.710 -0.1114 -0.2437 -0.1796
  141loPI   C1A 2247  16.781   9.639   9.593  0.0576 -0.2275  0.3425
  141loPI   C2A 2248  16.683   9.360   9.218  0.3001  0.1668 -0.2715
  141loPI   C3A 2249  16.368   9.427   8.947  0.0984  0.4179  0.0104
  141loPI   C4A 2250  16.582   9.416   8.609 -0.0943 -0.0934  0.1727
  141loPI   C5A 2251  16.928   9.617   8.325 -0.2224 -0.0118 -0.1719
  141loPI   C6A 2252  17.315   9.561   8.022  0.1340  0.1857 -0.1380
  141loPI   C1B 2253  17.140   9.933   9.284 -0.1675  0.1270  0.0429
  141loPI   C2B 2254  17.342  10.102   8.924 -0.0240 -0.0781  0.0814
  141loPI   C3B 2255  17.159  10.452   8.808  0.2941 -0.2544 -0.4138
  141loPI   C4B 2256  17.127  10.643   8.428  0.4111 -0.0503  0.0382
  142loPI    C1 2257  17.874  15.955  10.346 -0.2082  0.2448 -0.0144
  142loPI    C2 2258  17.675  15.632  10.472 -0.0922  0.1395 -0.0991
  142loPI    C3 2259  17.901  15.839  10.728 -0.5009  0.4037  0.0573
  142loPI   PO4 2260  17.881  15.988  10.138 -0.2331 -0.0408  0.0002
  142loPI   GL1 2261  17.987  15.837   9.689  0.1069 -0.1060 -0.0652
  142loPI   GL2 2262  17.729  15.746   9.530 -0.0436 -0.0725  0.1397
  142loPI   C1A 2263  18.078  16.036   9.324  0.1271 -0.1039  0.0222
  142loPI   C2A 2264  18.066  16.271   8.864  0.0028 -0.1352  0.2653
  142loPI   C3A 2265  18.374  16.618   8.761 -0.0583  0.1531  0.3327
  142loPI   C4A 2266  18.579  16.628   8.406  0.2457 -0.1264  0.2837
  142loPI   C5A 2267  18.843  16.801   7.959 -0.0468 -0.2298 -0.1549
  142loPI   C6A 2268  19.169  17.005   7.668 -0.1087  0.1902 -0.0361
  142loPI   C1B 2269  17.764  15.683   9.077 -0.1056 -0.1152  0.0344
  142loPI   C2B 2270  17.861  15.835   8.703 -0.1463  0.1175 -0.1470
  142loPI   C3B 2271  17.699  15.908   8.259  0.0211 -0.2782 -0.2149
  142loPI   C4B 2272  17.454  15.995   8.022  0.0463  0.4341  0.1466
  143loPI    C1 2273   9.177   3.835  10.369  0.3060 -0.1607 -0.2650
  143loPI    C2 2274   8.952   3.504  10.361  0.1605 -0.0686 -0.0479
  143loPI    C3 2275   9.262   3.529  10.612  0.1733 -0.0416 -0.0663
  143loPI   PO4 2276   9.189   3.869  10.099 -0.0832 -0.3110 -0.2422
  143loPI   GL1 2277   9.120   4.183   9.819 -0.4142 -0.2332 -0.1375
  143loPI   GL2 2278   9.016   4.489   9.950  0.3586 -0.0996  0.2037
  143loPI   C1A 2279   9.086   4.153   9.426 -0.0215 -0.0823  0.0192
  143loPI   C2A 2280   8.867   4.155   8.995  0.1256  0.3049 -0.2066
  143loPI   C3A 2281   8.939   4.360   8.527 -0.3092 -0.0197  0.0827
  143loPI   C4A 2282   8.879   4.503   8.109 -0.2480 -0.2293  0.0188
  143loPI   C5A 2283   8.997   4.777   7.797  0.3703  0.3196 -0.2106
  143loPI   C6A 2284   9.383   5.017   7.789  0.0421 -0.1331  0.0466
  143loPI   C1B 2285   9.067   4.719   9.505 -0.0188 -0.1044 -0.0914
  143loPI   C2B 2286   8.945   4.681   9.122 -0.1050  0.2259  0.0361
  143loPI   C3B 2287   8.991   4.853   8.742  0.0347 -0.0891 -0.2253
  143loPI   C4B 2288   9.014   5.063   8.254  0.3984 -0.0256 -0.0626
  144loPI    C1 2289  18.487   0.780  10.806  0.2204 -0.0087  0.3255
  144loPI    C2 2290  18.228   0.581  11.037  0.0174  0.1759  0.2604
  144loPI    C3 2291  18.376   0.932  11.159  0.0114  0.2108  0.1677
  144loPI   PO4 2292  18.456   0.633  10.594  0.1867  0.2910 -0.0589
  144loPI   GL1 2293  18.311   0.785  10.241 -0.1066  0.4646  0.0615
  144loPI   GL2 2294  18.545   0.993  10.264 -0.0914  0.1922 -0.2116
  144loPI   C1A 2295  18.059   0.692   9.875 -0.0185  0.2465 -0.0586
  144loPI   C2A 2296  17.872   0.333   9.755 -0.0870 -0.0473  0.1361
  144loPI   C3A 2297  17.910   0.342   9.248  0.2965  0.4572 -0.3418
  144loPI   C4A 2298  17.990   0.307   8.835  0.1100 -0.0724 -0.1936
  144loPI   C5A 2299  18.108   0.561   8.476 -0.2226  0.4164 -0.2829
  144loPI   C6A 2300  18.321   0.284   8.168 -0.0446 -0.1632  0.1803
  144loPI   C1B 2301  18.516   0.847   9.818  0.2623  0.0049 -0.2937
  144loPI   C2B 2302  18.682   0.818   9.460 -0.3672 -0.1027 -0.2118
  144loPI   C3B 2303  18.712   1.028   9.067  0.0646 -0.2330 -0.3177
  144loPI   C4B 2304  18.591   1.203   8.699 -0.0037 -0.0579  0.0686
  145loPI    C1 2305  10.411  14.380  10.563 -0.0340  0.0960 -0.1207
  145loPI    C2 2306  10.059  14.240  10.691  0.0545  0.0823  0.1111
  145loPI    C3 2307  10.258  14.511  10.908  0.1700  0.1176 -0.0369
  145loPI   PO4 2308  10.373  14.433  10.261  0.0918 -0.2969 -0.1920
  145loPI   GL1 2309  10.560  14.420   9.907  0.2696  0.2155 -0.1759
  145loPI   GL2 2310  10.852  14.293   9.692  0.2364 -0.1846  0.1584
  145loPI   C1A 2311  10.233  14.585   9.650  0.0186 -0.2083  0.1746
  145loPI   C2A 2312  10.107  14.547   9.158 -0.0273  0.3092  0.1172
  145loPI   C3A 2313  10.098  14.446   8.654 -0.0884 -0.0534  0.1865
  145loPI   C4A 2314  10.095  14.445   8.196 -0.2154  0.2526 -0.3302
  145loPI   C5A 2315  10.052  14.216   7.726  0.1158 -0.1445 -0.2721
  145loPI   C6A 2316   9.721  14.264   7.431  0.3603  0.2070 -0.0312
  145loPI   C1B 2317  10.969  14.087   9.333  0.0386 -0.0918 -0.4217
  145loPI   C2B 2318  10.918  14.234   8.931 -0.0443 -0.0543 -0.0697
  145loPI   C3B 2319  10.949  14.242   8.529 -0.1964 -0.2234 -0.1957
  145loPI   C4B 2320  11.100  14.155   8.156  0.1009 -0.1362 -0.4145
  146loPI    C1 2321   4.836  18.307  10.169 -0.0401  0.1461 -0.1064
  146loPI    C2 2322   5.114  18.589  10.227  0.2590 -0.1518 -0.0541
  146loPI    C3 2323   4.977  18.377  10.537 -0.0465  0.0070 -0.0766
  146loPI   PO4 2324   4.936  18.365   9.790  0.4526  0.3000 -0.0790
  146loPI   GL1 2325   5.083  18.451   9.480 -0.1848 -0.1333 -0.0065
  146loPI   GL2 2326   5.037  18.654   9.269 -0.1580  0.0151  0.0266
  146loPI   C1A 2327   5.155  18.258   9.023  0.1066 -0.1371 -0.1226
  146loPI   C2A 2328   5.101  18.155   8.671 -0.1538 -0.1185  0.1556
  146loPI   C3A 2329   5.296  17.956   8.288 -0.1491  0.2852  0.2138
  146loPI   C4A 2330   5.517  18.032   8.018  0.2575 -0.0549  0.2880
  146loPI   C5A 2331   5.689  18.227   7.596  0.0023 -0.1239 -0.0183
  146loPI   C6A 2332   5.670  18.289   7.174  0.0783 -0.1379 -0.0202
  146loPI   C1B 2333   5.019  18.698   8.810  0.1694 -0.2114  0.0071
  146loPI   C2B 2334   5.218  18.920   8.418  0.1772 -0.2369 -0.0053
  146loPI   C3B 2335   5.350  18.950   8.014  0.2332 -0.1364  0.0383
  146loPI   C4B 2336   5.105  19.010   7.666  0.0434 -0.3916  0.0397
  147loPI    C1 2337  12.594  12.882  10.529  0.0349  0.1571 -0.1472
  147loPI    C2 2338  12.217  12.811  10.643  0.0940  0.1485  0.0471
  147loPI    C3 2339  12.404  13.142  10.767  0.2003  0.0787  0.0749
  147loPI   PO4 2340  12.514  12.746  10.214 -0.1385  0.1230 -0.0649
  147loPI   GL1 2341  12.540  12.788   9.832  0.1056  0.0869 -0.0910
  147loPI   GL2 2342  12.283  12.666   9.768  0.2852 -0.3508  0.3693
  147loPI   C1A 2343  12.556  13.162   9.638 -0.0000 -0.2079 -0.1164
  147loPI   C2A 2344  12.561  13.648   9.634 -0.0404  0.2385  0.1291
  147loPI   C3A 2345  12.415  13.817   9.277 -0.0371 -0.0977 -0.1395
  147loPI   C4A 2346  12.342  13.741   8.892  0.1132 -0.0822  0.0415
  147loPI   C5A 2347  12.451  13.741   8.540 -0.2373 -0.0175  0.2131
  147loPI   C6A 2348  12.176  13.999   8.181 -0.0664 -0.1357 -0.0106
  147loPI   C1B 2349  12.189  12.883   9.492  0.1621 -0.0257 -0.4379
  147loPI   C2B 2350  11.974  13.097   9.142 -0.0582  0.1225  0.0754
  147loPI   C3B 2351  12.025  13.207   8.729  0.1450  0.1761  0.3291
  147loPI   C4B 2352  11.797  13.447   8.385 -0.0514 -0.2581 -0.0373
  148loPI    C1 2353   9.001  16.185  10.455  0.1044  0.0574 -0.0367
  148loPI    C2 2354   9.189  15.847  10.559  0.0460  0.0511  0.0493
  148loPI    C3 2355   9.259  16.186  10.760 -0.1039  0.0280  0.1417
  148loPI   PO4 2356   8.989  16.086  10.173 -0.4073 -0.2229 -0.3883
  148loPI   GL1 2357   8.816  16.005   9.845  0.0253  0.0893  0.0082
  148loPI   GL2 2358   8.795  15.771   9.809 -0.1053  0.0736 -0.0369
  148loPI   C1A 2359   8.449  16.057   9.569 -0.1584 -0.2900  0.3246
  148loPI   C2A 2360   8.325  16.138   9.215  0.2476 -0.1043 -0.5930
  148loPI   C3A 2361   8.217  16.281   8.864 -0.0617  0.0235  0.2655
  148loPI   C4A 2362   8.190  16.145   8.409 -0.1529  0.0573  0.1343
  148loPI   C5A 2363   8.070  15.969   8.051  0.1880 -0.0874 -0.0623
  148loPI   C6A 2364   7.693  15.594   8.031  0.1756  0.1184 -0.0309
  148loPI   C1B 2365   8.842  15.759   9.378  0.0397 -0.2385  0.0898
  148loPI   C2B 2366   8.788  15.813   8.967 -0.0968  0.0888  0.0096
  148loPI   C3B 2367   8.738  16.019   8.680  0.2060  0.0319  0.0207
  148loPI   C4B 2368   8.609  16.400   8.455  0.1108 -0.1592  0.0431
  149loPI    C1 2369  13.318   9.768  10.581  0.1535  0.1330  0.0290
  149loPI    C2 2370  13.030  10.034  10.500 -0.0537 -0.1487 -0.1807
  149loPI    C3 2371  13.012   9.814  10.834 -0.0733 -0.1562 -0.1867
  149loPI   PO4 2372  13.519   9.978  10.364  0.2611 -0.0077 -0.0036
  149loPI   GL1 2373  13.641  10.005   9.968 -0.1554 -0.2931 -0.3618
  149loPI   GL2 2374  13.763  10.345   9.783 -0.0945 -0.0210  0.1248
  149loPI   C1A 2375  13.614   9.939   9.530  0.0491  0.1625 -0.3429
  149loPI   C2A 2376  13.725  10.011   9.181  0.1436 -0.0147  0.2154
  149loPI   C3A 2377  13.873  10.043   8.778 -0.2297 -0.0746  0.3096
  149loPI   C4A 2378  14.017  10.028   8.340  0.0537 -0.2122  0.0036
  149loPI   C5A 2379  13.891  10.194   8.008  0.0323 -0.2562  0.1201
  149loPI   C6A 2380  13.792  10.669   8.048  0.0675 -0.1038 -0.1302
  149loPI   C1B 2381  13.909  10.470   9.274  0.0535 -0.0440  0.1739
  149loPI   C2B 2382  13.978  10.522   8.820  0.2778 -0.2441  0.0790
  149loPI   C3B 2383  14.136  10.525   8.343 -0.1933 -0.0856 -0.0439
  149loPI   C4B 2384  14.308  10.453   7.959  0.1513 -0.1431 -0.3597
  150loPI    C1 2385  13.156  13.737  10.526  0.0122 -0.0719  0.0124
  150loPI    C2 2386  13.428  14.025  10.579 -0.1378  0.0940 -0.1080
  150loPI    C3 2387  13.545  13.644  10.543  0.0478  0.1112  0.2579
  150loPI   PO4 2388  12.931  13.876  10.346  0.1040  0.1631 -0.3151
  150loPI   GL1 2389  12.884  13.919   9.938 -0.0417  0.1790 -0.0784
  150loPI   GL2 2390  13.214  14.071   9.746  0.1148 -0.3797  0.1063
  150loPI   C1A 2391  12.822  14.177   9.452  0.1876  0.3379  0.3090
  150loPI   C2A 2392  12.765  14.089   9.035 -0.1825 -0.3834 -0.3988
  150loPI   C3A 2393  12.764  14.187   8.694  0.2434 -0.3129  0.1802
  150loPI   C4A 2394  12.703  14.065   8.219  0.1445  0.1260 -0.0248
  150loPI   C5A 2395  12.748  13.941   7.838 -0.2847 -0.3414  0.2659
  150loPI   C6A 2396  12.823  13.627   7.574  0.1050  0.3154  0.2956
  150loPI   C1B 2397  13.296  13.962   9.322 -0.0518  0.1957  0.4708
  150loPI   C2B 2398  13.260  14.023   8.832 -0.2649  0.3408  0.2034
  150loPI   C3B 2399  13.175  14.032   8.421 -0.3057  0.0940  0.1810
  150loPI   C4B 2400  13.159  14.269   7.999 -0.1030 -0.2050  0.0673
  151loPI    C1 2401   8.838   6.729  10.514 -0.0110  0.0257 -0.0563
  151loPI    C2 2402   9.163   6.846  10.312  0.0012  0.2409  0.0855
  151loPI    C3 2403   9.155   6.872  10.711 -0.1331  0.0925  0.0935
  151loPI   PO4 2404   8.787   6.504  10.420 -0.0257 -0.2541  0.0205
  151loPI   GL1 2405   8.779   6.404  10.028  0.0927 -0.2757  0.0166
  151loPI   GL2 2406   8.611   6.165   9.999  0.0643  0.1572  0.0603
  151loPI   C1A 2407   8.792   6.669   9.683 -0.2734  0.2486 -0.0563
  151loPI   C2A 2408   8.718   6.834   9.308  0.0178  0.1872 -0.2566
  151loPI   C3A 2409   8.777   6.813   8.860 -0.0625  0.0468  0.0151
  151loPI   C4A 2410   8.842   7.033   8.396  0.2316  0.0438 -0.0456
  151loPI   C5A 2411   8.758   7.449   8.277 -0.1825  0.1142  0.0530
  151loPI   C6A 2412   8.941   7.733   8.004  0.0979  0.1602  0.3036
  151loPI   C1B 2413   8.649   6.202   9.522  0.0018  0.3445  0.1772
  151loPI   C2B 2414   8.419   6.419   9.283 -0.1472 -0.4104 -0.3009
  151loPI   C3B 2415   8.302   6.602   8.865 -0.0642  0.0669 -0.0647
  151loPI   C4B 2416   8.515   6.671   8.443 -0.1531  0.3059 -0.0449
  152loPI    C1 2417  18.002   2.777  10.568  0.1799  0.0888 -0.0021
  152loPI    C2 2418  17.961   2.621  10.935 -0.0276 -0.3009 -0.1848
  152loPI    C3 2419  17.683   2.870  10.791  0.2233  0.1228  0.0460
  152loPI   PO4 2420  18.027   2.582  10.384  0.2434 -0.0933  0.5062
  152loPI   GL1 2421  18.198   2.281  10.170  0.2024  0.1556  0.0149
  152loPI   GL2 2422  18.528   2.257  10.164  0.1129 -0.1073  0.2265
  152loPI   C1A 2423  18.271   2.417   9.710  0.0967  0.0293 -0.0869
  152loPI   C2A 2424  18.437   2.498   9.282 -0.1454  0.1886 -0.1249
  152loPI   C3A 2425  18.409   2.689   8.965 -0.0222  0.0628  0.0733
  152loPI   C4A 2426  18.744   2.772   8.645 -0.0343  0.0758  0.0237
  152loPI   C5A 2427  18.644   2.781   8.186  0.0474  0.0204  0.0750
  152loPI   C6A 2428  18.952   2.615   7.786  0.2942 -0.1578 -0.1905
  152loPI   C1B 2429  18.838   2.353   9.788 -0.2148 -0.4284 -0.2598
  152loPI   C2B 2430  18.898   2.351   9.386 -0.1314 -0.3478 -0.0844
  152loPI   C3B 2431  18.951   2.438   8.981  0.0857  0.0754  0.0134
  152loPI   C4B 2432  18.713   2.297   8.622 -0.0156 -0.2237 -0.1297
  153loPI    C1 2433   4.666   5.409  10.290 -0.0971  0.0760 -0.1094
  153loPI    C2 2434   4.350   5.471  10.053 -0.2082  0.0659  0.0345
  153loPI    C3 2435   4.319   5.225  10.367 -0.0537  0.0566  0.0432
  153loPI   PO4 2436   4.860   5.455  10.090 -0.0077 -0.2945  0.1158
  153loPI   GL1 2437   4.758   5.370   9.650 -0.2813 -0.1165 -0.0014
  153loPI   GL2 2438   4.880   5.625   9.560  0.0279 -0.1418 -0.4159
  153loPI   C1A 2439   4.695   5.144   9.274  0.1183 -0.2467  0.0746
  153loPI   C2A 2440   4.623   5.154   8.901  0.1586 -0.0057  0.0274
  153loPI   C3A 2441   4.508   5.136   8.470  0.2700  0.0770  0.0421
  153loPI   C4A 2442   4.599   4.939   8.072 -0.0869  0.1698 -0.0314
  153loPI   C5A 2443   4.903   4.706   7.698 -0.2774  0.0557  0.0989
  153loPI   C6A 2444   5.284   4.515   7.554 -0.0481  0.2354 -0.3086
  153loPI   C1B 2445   4.863   5.821   9.119  0.0126  0.0244  0.1106
  153loPI   C2B 2446   4.877   5.894   8.674  0.1212  0.1369 -0.1015
  153loPI   C3B 2447   4.798   6.146   8.492  0.1043  0.1407 -0.3611
  153loPI   C4B 2448   4.840   6.430   8.274 -0.1357 -0.1199  0.0664
  154loPI    C1 2449  14.655   0.476  10.166 -0.0888 -0.1545 -0.0399
  154loPI    C2 2450  14.459   0.477  10.515 -0.0577 -0.0085 -0.0220
  154loPI    C3 2451  14.647   0.807  10.391  0.3587 -0.2080  0.0631
  154loPI   PO4 2452  14.877   0.355  10.111  0.0465  0.0409 -0.0428
  154loPI   GL1 2453  14.961   0.113   9.745 -0.2572  0.1014  0.2735
  154loPI   GL2 2454  14.984   0.371   9.465  0.3562 -0.1399  0.0092
  154loPI   C1A 2455  15.143  -0.070   9.326 -0.1812 -0.1338  0.4413
  154loPI   C2A 2456  15.245  -0.028   8.966  0.2016  0.0794  0.0947
  154loPI   C3A 2457  15.338   0.058   8.595  0.0720 -0.0364 -0.0738
  154loPI   C4A 2458  15.277  -0.266   8.136  0.0870 -0.1369 -0.0405
  154loPI   C5A 2459  14.980  -0.170   7.856 -0.0950  0.2464 -0.0230
  154loPI   C6A 2460  15.167   0.112   7.675 -0.1157 -0.1535 -0.2750
  154loPI   C1B 2461  14.950   0.344   9.043 -0.2052 -0.0637  0.0143
  154loPI   C2B 2462  15.089   0.451   8.623 -0.1148 -0.0323 -0.1788
  154loPI   C3B 2463  15.378   0.745   8.453 -0.2188  0.1707  0.3707
  154loPI   C4B 2464  15.709   0.720   8.474 -0.0889 -0.0328 -0.0521
  155loPI    C1 2465   3.814   0.964  10.219  0.0697  0.3347 -0.0850
  155loPI    C2 2466   3.459   0.923  10.398  0.0804  0.1460 -0.1057
  155loPI    C3 2467   3.790   0.971  10.618  0.0529  0.2382 -0.0841
  155loPI   PO4 2468   3.708   0.922   9.979  0.1128 -0.3981  0.0254
  155loPI   GL1 2469   3.824   0.834   9.589  0.2402  0.1917  0.1401
  155loPI   GL2 2470   4.050   0.746   9.524  0.0095  0.0420 -0.0670
  155loPI   C1A 2471   3.763   1.151   9.263  0.0407  0.0066 -0.1868
  155loPI   C2A 2472   3.523   1.281   8.878  0.0378  0.5596  0.0263
  155loPI   C3A 2473   3.137   1.251   8.492  0.0214  0.1368 -0.0645
  155loPI   C4A 2474   3.140   1.442   8.125  0.2082  0.3599 -0.3103
  155loPI   C5A 2475   3.043   1.698   7.800 -0.0234 -0.1559  0.0444
  155loPI   C6A 2476   2.848   1.655   7.478  0.0442  0.2998 -0.1288
  155loPI   C1B 2477   3.790   0.611   9.156 -0.1894  0.2755 -0.0135
  155loPI   C2B 2478   3.690   0.829   8.810 -0.2577 -0.1650 -0.2957
  155loPI   C3B 2479   3.267   0.810   8.649  0.2080  0.0226 -0.0872
  155loPI   C4B 2480   2.875   0.847   8.248 -0.0961  0.0812 -0.1694
  156loPI    C1 2481   2.923  16.977  10.145 -0.1180 -0.0391 -0.1105
  156loPI    C2 2482   2.871  16.798  10.499 -0.0554 -0.0358 -0.0996
  156loPI    C3 2483   2.798  17.189  10.459 -0.0467 -0.0331 -0.0860
  156loPI   PO4 2484   3.077  16.876   9.985  0.1362  0.0632 -0.0622
  156loPI   GL1 2485   3.248  17.063   9.737 -0.0413 -0.0883 -0.4362
  156loPI   GL2 2486   3.578  17.128   9.581 -0.4302  0.0345  0.3260
  156loPI   C1A 2487   3.210  17.073   9.254 -0.0210  0.0775 -0.1245
  156loPI   C2A 2488   3.115  17.204   8.729 -0.1309  0.0937 -0.2025
  156loPI   C3A 2489   3.272  17.389   8.378 -0.1938 -0.2158 -0.0376
  156loPI   C4A 2490   3.633  17.201   8.171 -0.1930 -0.0533  0.0372
  156loPI   C5A 2491   3.810  17.279   7.729 -0.1360 -0.2263  0.1114
  156loPI   C6A 2492   3.815  16.915   7.401  0.1782  0.2984  0.0989
  156loPI   C1B 2493   3.717  16.765   9.425 -0.1401 -0.0310  0.2086
  156loPI   C2B 2494   3.676  16.315   9.265  0.3010  0.1872 -0.0722
  156loPI   C3B 2495   3.350  16.202   8.938 -0.1909 -0.1214 -0.0101
  156loPI   C4B 2496   3.429  16.251   8.520  0.3381 -0.1032 -0.0854
  157loPI    C1 2497  16.192   2.865  10.451  0.1799 -0.1379  0.0721
  157loPI    C2 2498  16.318   3.185  10.656 -0.1992  0.1951 -0.1986
  157loPI    C3 2499  16.059   2.928  10.823 -0.2090  0.2530 -0.1244
  157loPI   PO4 2500  16.306   2.815  10.297 -0.1716 -0.0809 -0.0672
  157loPI   GL1 2501  16.552   2.891   9.946 -0.0685 -0.2069  0.0323
  157loPI   GL2 2502  16.739   2.731   9.652  0.0947  0.0849  0.0496
  157loPI   C1A 2503  16.492   3.166   9.642  0.0704 -0.1747  0.0421
  157loPI   C2A 2504  16.468   3.464   9.312 -0.0779 -0.2212  0.1046
  157loPI   C3A 2505  16.525   3.491   8.856  0.0615  0.3489  0.1798
  157loPI   C4A 2506  16.855   3.619   8.635  0.0758  0.1172  0.1465
  157loPI   C5A 2507  16.866   3.841   8.187  0.0619 -0.2206 -0.1075
  157loPI   C6A 2508  16.900   4.196   7.945  0.2832  0.1693  0.0119
  157loPI   C1B 2509  16.806   2.665   9.219 -0.0840  0.1209 -0.3153
  157loPI   C2B 2510  16.976   2.745   8.806  0.0589  0.0430  0.0767
  157loPI   C3B 2511  17.115   2.450   8.411  0.4423 -0.3790 -0.3015
  157loPI   C4B 2512  17.194   2.525   7.978 -0.1600  0.1461 -0.3241
  158loPI    C1 2513   5.833   1.541   9.853 -0.2049  0.0808  0.0568
  158loPI    C2 2514   5.617   1.733  10.129  0.1807 -0.0360  0.4509
  158loPI    C3 2515   5.984   1.602  10.218  0.2781 -0.1572 -0.0949
  158loPI   PO4 2516   5.855   1.690   9.696 -0.1001  0.0479 -0.1386
  158loPI   GL1 2517   5.567   1.686   9.307 -0.0912 -0.0069 -0.1401
  158loPI   GL2 2518   5.841   1.615   9.214  0.4958  0.4384  0.0426
  158loPI   C1A 2519   5.701   1.919   8.828  0.2704  0.0710 -0.1956
  158loPI   C2A 2520   5.669   2.114   8.319  0.3399 -0.3312  0.0167
  158loPI   C3A 2521   5.872   1.999   7.975  0.0731  0.2029  0.2663
  158loPI   C4A 2522   6.230   1.843   7.743 -0.1371 -0.1299 -0.0800
  158loPI   C5A 2523   6.551   2.074   7.817  0.0602  0.2667 -0.1133
  158loPI   C6A 2524   6.779   2.332   8.126  0.2249 -0.1297 -0.1016
  158loPI   C1B 2525   6.005   1.220   9.095 -0.1576  0.0503  0.0961
  158loPI   C2B 2526   5.981   1.090   8.719  0.0844 -0.1387  0.1459
  158loPI   C3B 2527   5.870   1.080   8.264 -0.1760  0.1191  0.0018
  158loPI   C4B 2528   5.539   1.089   7.906  0.1234  0.3656 -0.1025
  159loPI    C1 2529   7.364   7.103  10.838 -0.0454  0.2511  0.1844
  159loPI    C2 2530   7.075   6.828  10.875  0.0763  0.1674  0.5532
  159loPI    C3 2531   6.997   7.212  10.956 -0.0984  0.2533  0.0210
  159loPI   PO4 2532   7.547   6.978  10.571  0.1702  0.2131 -0.0055
  159loPI   GL1 2533   7.511   7.090  10.110  0.0028  0.0006 -0.3662
  159loPI   GL2 2534   7.613   7.401  10.057  0.3084 -0.0135 -0.3168
  159loPI   C1A 2535   7.736   7.040   9.681 -0.0158 -0.2410 -0.3341
  159loPI   C2A 2536   7.588   6.782   9.263  0.0586 -0.1059  0.0485
  159loPI   C3A 2537   7.502   6.868   8.833  0.0267 -0.2306 -0.2099
  159loPI   C4A 2538   7.584   7.025   8.507  0.0891 -0.1172  0.0922
  159loPI   C5A 2539   7.836   6.971   8.043 -0.0826 -0.0714  0.0250
  159loPI   C6A 2540   8.157   6.964   7.707 -0.0785 -0.0703 -0.3293
  159loPI   C1B 2541   7.506   7.560   9.715  0.0783 -0.4925 -0.1022
  159loPI   C2B 2542   7.448   7.719   9.263  0.1318  0.2112  0.0492
  159loPI   C3B 2543   7.473   7.980   8.947 -0.2139  0.0516 -0.0574
  159loPI   C4B 2544   7.243   8.105   8.624 -0.4942  0.0708  0.1067
  160loPI    C1 2545   7.635  18.486   9.905  0.1074  0.0064 -0.0795
  160loPI    C2 2546   7.872  18.455  10.226 -0.0009 -0.0723 -0.0068
  160loPI    C3 2547   7.488  18.343  10.248 -0.0363  0.0218 -0.1339
  160loPI   PO4 2548   7.669  18.728   9.739 -0.4065 -0.0376  0.3124
  160loPI   GL1 2549   7.673  18.726   9.237  0.1380 -0.1138 -0.0636
  160loPI   GL2 2550   8.014  18.762   9.346 -0.2676 -0.0219 -0.2468
  160loPI   C1A 2551   7.692  18.946   8.989 -0.1285 -0.1049 -0.1108
  160loPI   C2A 2552   7.576  19.227   8.762 -0.5066 -0.0040  0.0398
  160loPI   C3A 2553   7.451  19.267   8.391 -0.2141 -0.1209  0.0373
  160loPI   C4A 2554   7.483  19.093   7.931  0.1719 -0.1687 -0.1895
  160loPI   C5A 2555   7.780  19.042   7.712 -0.0705  0.1835 -0.0163
  160loPI   C6A 2556   7.788  19.021   7.314  0.2031 -0.1038  0.1932
  160loPI   C1B 2557   8.005  18.524   8.892  0.0585  0.3653  0.1009
  160loPI   C2B 2558   8.101  18.673   8.587 -0.1300  0.3207  0.0185
  160loPI   C3B 2559   8.272  18.833   8.253 -0.2193  0.0411  0.0870
  160loPI   C4B 2560   8.212  19.083   7.843  0.1952 -0.1809 -0.1885
  161loPI    C1 2561  13.744  12.461  10.635 -0.2120 -0.1206 -0.1026
  161loPI    C2 2562  13.350  12.498  10.688 -0.1759 -0.0649  0.1387
  161loPI    C3 2563  13.595  12.505  11.004  0.0301  0.0376 -0.0214
  161loPI   PO4 2564  13.755  12.313  10.411  0.5317 -0.0727 -0.3795
  161loPI   GL1 2565  14.127  12.094  10.107 -0.0911  0.1031 -0.0195
  161loPI   GL2 2566  14.250  11.807  10.066  0.0339 -0.1819  0.0885
  161loPI   C1A 2567  14.116  12.106   9.680 -0.0002 -0.1641  0.0730
  161loPI   C2A 2568  14.031  12.420   9.436 -0.0613 -0.2525 -0.1705
  161loPI   C3A 2569  14.000  12.320   8.988  0.0695  0.1814 -0.1436
  161loPI   C4A 2570  13.701  12.182   8.697 -0.1664 -0.0755  0.2216
  161loPI   C5A 2571  13.617  11.907   8.435  0.2979 -0.1453 -0.0144
  161loPI   C6A 2572  13.495  11.752   8.118 -0.2521 -0.0480 -0.0231
  161loPI   C1B 2573  14.309  11.655   9.772  0.1047  0.0271 -0.1313
  161loPI   C2B 2574  14.418  11.553   9.296 -0.2285 -0.1859  0.4820
  161loPI   C3B 2575  14.543  11.495   8.942 -0.0026 -0.0613 -0.0009
  161loPI   C4B 2576  14.408  11.394   8.568 -0.1949  0.0690 -0.3151
  162loPI    C1 2577  12.793   4.794  10.406  0.1238 -0.1645 -0.2189
  162loPI    C2 2578  12.514   4.741  10.687 -0.0885  0.2648 -0.3415
  162loPI    C3 2579  12.900   4.689  10.777 -0.1777  0.0531 -0.0668
  162loPI   PO4 2580  12.743   4.633  10.241 -0.1341  0.2331 -0.0953
  162loPI   GL1 2581  12.946   4.459   9.793  0.3319  0.0180 -0.2549
  162loPI   GL2 2582  12.959   4.096   9.725  0.1464  0.0689  0.1787
  162loPI   C1A 2583  13.051   4.876   9.453  0.2004  0.1761 -0.0219
  162loPI   C2A 2584  13.137   4.667   9.054 -0.0388 -0.1305 -0.2040
  162loPI   C3A 2585  13.069   4.889   8.575  0.1316  0.0523  0.3546
  162loPI   C4A 2586  12.973   5.228   8.279  0.0042 -0.1492 -0.1133
  162loPI   C5A 2587  12.770   5.191   7.952  0.4366 -0.2608 -0.1298
  162loPI   C6A 2588  12.409   5.313   7.832  0.2748 -0.1679 -0.0288
  162loPI   C1B 2589  12.845   4.330   9.342  0.2100 -0.1048  0.0744
  162loPI   C2B 2590  12.663   4.438   8.913  0.0501 -0.2606 -0.3098
  162loPI   C3B 2591  12.718   4.507   8.489 -0.1609  0.0492 -0.0882
  162loPI   C4B 2592  12.905   4.602   8.138 -0.3891 -0.0847 -0.1527
  163loPI    C1 2593   4.257   6.571  10.374  0.1438 -0.0333 -0.0441
  163loPI    C2 2594   4.008   6.261  10.419  0.1849 -0.0654 -0.0364
  163loPI    C3 2595   4.152   6.451  10.741 -0.1722  0.2302 -0.0442
  163loPI   PO4 2596   4.136   6.724  10.215 -0.0001  0.2164 -0.1466
  163loPI   GL1 2597   4.132   6.823   9.807  0.1529  0.1237  0.1918
  163loPI   GL2 2598   4.212   6.506   9.598 -0.0588 -0.2524  0.0257
  163loPI   C1A 2599   4.372   7.050   9.488  0.1117 -0.2297 -0.0865
  163loPI   C2A 2600   4.328   7.208   9.105 -0.4663 -0.0114 -0.1434
  163loPI   C3A 2601   4.444   7.275   8.662 -0.1713 -0.1801  0.1958
  163loPI   C4A 2602   4.265   7.329   8.170 -0.1240 -0.0749  0.1582
  163loPI   C5A 2603   4.040   7.308   7.834 -0.0763 -0.0939  0.3129
  163loPI   C6A 2604   4.072   7.239   7.433 -0.1243 -0.3206 -0.0552
  163loPI   C1B 2605   4.063   6.710   9.241 -0.2658  0.0904  0.1365
  163loPI   C2B 2606   4.093   6.855   8.809  0.3433  0.0457  0.1259
  163loPI   C3B 2607   3.973   7.141   8.540  0.0405 -0.2763 -0.1151
  163loPI   C4B 2608   3.691   7.274   8.185 -0.4031  0.3041  0.1187
  164loPI    C1 2609   3.822   9.536  10.486 -0.1308 -0.0087  0.0913
  164loPI    C2 2610   4.175   9.689  10.597 -0.1458 -0.0689  0.2236
  164loPI    C3 2611   3.835   9.857  10.725 -0.1669  0.0357  0.0340
  164loPI   PO4 2612   3.751   9.474  10.216 -0.1180 -0.0697  0.0885
  164loPI   GL1 2613   3.761   9.315   9.816 -0.0669 -0.4934 -0.0885
  164loPI   GL2 2614   3.869   9.732   9.798  0.0682  0.0338  0.1651
  164loPI   C1A 2615   3.767   9.491   9.361 -0.0557  0.1567  0.1415
  164loPI   C2A 2616   3.704   9.539   8.955 -0.0289 -0.1573  0.1330
  164loPI   C3A 2617   3.686   9.414   8.587 -0.3489 -0.1440  0.1844
  164loPI   C4A 2618   3.706   9.649   8.237  0.0369 -0.1381 -0.1563
  164loPI   C5A 2619   3.592   9.695   7.872  0.0539  0.1084  0.0737
  164loPI   C6A 2620   3.556  10.153   7.557 -0.2069  0.4258  0.1575
  164loPI   C1B 2621   3.888   9.928   9.400 -0.3306  0.4072  0.1487
  164loPI   C2B 2622   3.933  10.108   8.912 -0.1838  0.1950 -0.1509
  164loPI   C3B 2623   3.900   9.983   8.554  0.1903 -0.0243 -0.2906
  164loPI   C4B 2624   3.673  10.175   8.080 -0.2056  0.1274  0.1246
  165loPI    C1 2625  14.092   3.299  10.450  0.2505  0.0132  0.0738
  165loPI    C2 2626  13.756   3.232  10.655  0.1605  0.2500  0.0071
  165loPI    C3 2627  14.104   3.089  10.790  0.0115 -0.1457 -0.0133
  165loPI   PO4 2628  14.030   3.267  10.178 -0.5234 -0.1828 -0.0417
  165loPI   GL1 2629  14.251   3.400   9.879  0.1713  0.0643 -0.0893
  165loPI   GL2 2630  14.570   3.255   9.942 -0.2853  0.0690  0.1579
  165loPI   C1A 2631  14.393   3.571   9.477 -0.0237  0.2290  0.2901
  165loPI   C2A 2632  14.362   3.782   9.027 -0.1661  0.2377 -0.0282
  165loPI   C3A 2633  14.433   3.591   8.652  0.0324  0.0068  0.0396
  165loPI   C4A 2634  14.519   3.527   8.202 -0.0526  0.2902  0.0043
  165loPI   C5A 2635  14.347   3.289   7.975 -0.2547 -0.0663 -0.0629
  165loPI   C6A 2636  13.914   3.286   7.606 -0.1581 -0.1723 -0.1376
  165loPI   C1B 2637  14.707   3.170   9.572  0.3188  0.0456  0.0733
  165loPI   C2B 2638  14.665   3.285   9.214 -0.0673  0.0050  0.1077
  165loPI   C3B 2639  14.727   3.183   8.785  0.3629 -0.1629  0.0497
  165loPI   C4B 2640  14.550   3.047   8.382 -0.2825 -0.4138 -0.0781
  166loPI    C1 2641  11.236  10.188  10.610  0.0684  0.1319  0.0051
  166loPI    C2 2642  10.918  10.326  10.811  0.0880  0.1486  0.0248
  166loPI    C3 2643  11.273  10.299  10.992  0.0336 -0.1505  0.0928
  166loPI   PO4 2644  11.227  10.323  10.375 -0.3585  0.1591 -0.0326
  166loPI   GL1 2645  11.086  10.175   9.932 -0.2054  0.1891  0.4024
  166loPI   GL2 2646  11.087  10.568   9.887  0.0354 -0.0304  0.2464
  166loPI   C1A 2647  11.274  10.219   9.615 -0.2281  0.1159  0.1401
  166loPI   C2A 2648  11.302  10.085   9.218  0.3676 -0.0505  0.1178
  166loPI   C3A 2649  11.374   9.835   8.781  0.1920  0.1369  0.2829
  166loPI   C4A 2650  11.586   9.759   8.367  0.0163 -0.1156 -0.1001
  166loPI   C5A 2651  11.575   9.563   7.934 -0.0105 -0.2340  0.1583
  166loPI   C6A 2652  11.457   9.828   7.617 -0.1680 -0.1687  0.2710
  166loPI   C1B 2653  11.081  10.722   9.462  0.0477 -0.1714 -0.1994
  166loPI   C2B 2654  11.165  10.732   9.074 -0.0731 -0.2801  0.2384
  166loPI   C3B 2655  11.214  10.784   8.641 -0.2712  0.1012  0.2245
  166loPI   C4B 2656  11.346  10.781   8.233 -0.0420  0.2149  0.2197
  167loPI    C1 2657  13.827   9.066  10.504 -0.1264 -0.0316  0.0529
  167loPI    C2 2658  13.882   8.685  10.615  0.0978 -0.0399 -0.0789
  167loPI    C3 2659  13.904   8.978  10.886  0.0786 -0.1071 -0.0044
  167loPI   PO4 2660  14.051   9.139  10.351 -0.2756 -0.0326 -0.0174
  167loPI   GL1 2661  14.057   9.125   9.941 -0.0670  0.0017 -0.0406
  167loPI   GL2 2662  13.705   9.064   9.973  0.2064  0.2759 -0.0891
  167loPI   C1A 2663  13.939   8.943   9.490  0.2568  0.2046 -0.0274
  167loPI   C2A 2664  13.864   8.769   9.047 -0.4000  0.4014 -0.1641
  167loPI   C3A 2665  13.955   8.723   8.660 -0.0764  0.3360  0.2716
  167loPI   C4A 2666  14.049   8.776   8.266 -0.0602  0.1540  0.0273
  167loPI   C5A 2667  13.844   8.606   7.932  0.1699  0.1139  0.2859
  167loPI   C6A 2668  13.852   8.133   7.759 -0.0774 -0.1635  0.1763
  167loPI   C1B 2669  13.481   9.111   9.610 -0.1754  0.3051  0.0943
  167loPI   C2B 2670  13.439   8.976   9.138 -0.1266  0.1586 -0.0848
  167loPI   C3B 2671  13.562   9.136   8.778  0.1020  0.4244  0.0138
  167loPI   C4B 2672  13.645   9.022   8.472 -0.0354  0.0594  0.0694
  168loPI    C1 2673   8.373   7.073  10.665  0.2160  0.1883 -0.0606
  168loPI    C2 2674   8.619   6.932  10.946  0.1653  0.1864 -0.0170
  168loPI    C3 2675   8.669   7.303  10.805  0.2633  0.1459 -0.0905
  168loPI   PO4 2676   8.348   6.918  10.481 -0.0702 -0.2621 -0.1224
  168loPI   GL1 2677   8.423   6.843  10.074  0.1563 -0.2234 -0.1475
  168loPI   GL2 2678   8.710   6.909  10.095 -0.0238  0.2294  0.1439
  168loPI   C1A 2679   8.205   6.880   9.675 -0.1661 -0.1107 -0.0541
  168loPI   C2A 2680   8.146   6.869   9.278 -0.1412  0.1345  0.0021
  168loPI   C3A 2681   8.013   6.999   8.847  0.2072 -0.1604  0.2674
  168loPI   C4A 2682   8.132   6.952   8.418  0.2178 -0.1400 -0.2202
  168loPI   C5A 2683   8.337   7.071   8.163 -0.0659  0.0211 -0.0398
  168loPI   C6A 2684   8.482   7.306   7.762  0.0177  0.1154 -0.0336
  168loPI   C1B 2685   8.667   7.183   9.755  0.1669  0.0434  0.1630
  168loPI   C2B 2686   8.449   7.223   9.429 -0.0077 -0.1485  0.1962
  168loPI   C3B 2687   8.440   7.206   9.042  0.1424  0.2288 -0.0118
  168loPI   C4B 2688   8.465   7.245   8.633 -0.0035  0.2354 -0.0295
  169loPI    C1 2689   9.957  16.103  10.488 -0.1235 -0.0233  0.2329
  169loPI    C2 2690  10.149  16.426  10.624 -0.0609  0.0028  0.0852
  169loPI    C3 2691  10.054  16.129  10.875  0.2642 -0.0569  0.1424
  169loPI   PO4 2692  10.085  16.045  10.211 -0.0278 -0.0724 -0.1204
  169loPI   GL1 2693   9.986  16.258   9.905 -0.1765  0.1539 -0.0441
  169loPI   GL2 2694   9.704  16.104   9.891 -0.2988  0.0038 -0.0559
  169loPI   C1A 2695  10.346  16.096   9.690 -0.0474 -0.0865  0.1834
  169loPI   C2A 2696  10.613  16.087   9.306 -0.0640  0.0971  0.0224
  169loPI   C3A 2697  10.641  16.055   8.847  0.0893  0.1459  0.1456
  169loPI   C4A 2698  10.529  16.236   8.499 -0.1310 -0.1910 -0.2592
  169loPI   C5A 2699  10.554  16.323   8.116 -0.3250  0.3034  0.1043
  169loPI   C6A 2700  10.389  16.187   7.767  0.2407 -0.0740  0.0803
  169loPI   C1B 2701   9.720  15.984   9.390 -0.2194 -0.2508  0.0395
  169loPI   C2B 2702   9.664  15.775   8.946  0.1969 -0.0135 -0.0549
  169loPI   C3B 2703   9.771  15.670   8.545  0.1296 -0.0892  0.3149
  169loPI   C4B 2704   9.471  15.737   8.175  0.0538 -0.0212  0.4617
  170loPI    C1 2705   6.663  14.004  10.127  0.2005 -0.1927  0.1547
  170loPI    C2 2706   6.884  14.093   9.805 -0.0231  0.0977  0.0774
  170loPI    C3 2707   7.054  14.077  10.167  0.1599  0.1322 -0.0063
  170loPI   PO4 2708   6.535  13.860  10.052  0.1363 -0.0762 -0.2225
  170loPI   GL1 2709   6.338  13.948   9.676  0.0361 -0.1414  0.0889
  170loPI   GL2 2710   6.068  13.737   9.580  0.0387 -0.0882 -0.0233
  170loPI   C1A 2711   6.471  14.124   9.308  0.1285 -0.3964 -0.0353
  170loPI   C2A 2712   6.425  14.105   8.824 -0.2607  0.1109 -0.0183
  170loPI   C3A 2713   6.458  14.040   8.423  0.1254  0.2224  0.2795
  170loPI   C4A 2714   6.394  14.109   8.030 -0.4650  0.2836 -0.1333
  170loPI   C5A 2715   6.277  13.896   7.724  0.3189  0.1112 -0.1714
  170loPI   C6A 2716   6.374  13.555   7.524 -0.1481 -0.0489  0.0809
  170loPI   C1B 2717   6.322  13.600   9.312  0.0921  0.1817 -0.1528
  170loPI   C2B 2718   6.314  13.550   8.953 -0.2595 -0.1780 -0.0620
  170loPI   C3B 2719   6.467  13.553   8.572  0.3199  0.2810  0.0426
  170loPI   C4B 2720   6.539  13.631   8.161  0.0786 -0.0733  0.0548
  171loPI    C1 2721   8.293   7.534  10.568  0.0886  0.0972 -0.0692
  171loPI    C2 2722   8.385   7.907  10.457  0.2986  0.0696  0.0087
  171loPI    C3 2723   8.153   7.845  10.777  0.4060  0.1305  0.0990
  171loPI   PO4 2724   8.455   7.438  10.289  0.0202 -0.0376 -0.0279
  171loPI   GL1 2725   8.513   7.735   9.970 -0.1235 -0.3545  0.0569
  171loPI   GL2 2726   8.329   8.050  10.002  0.2440 -0.1538 -0.1405
  171loPI   C1A 2727   8.422   7.699   9.519  0.1011 -0.1080 -0.0175
  171loPI   C2A 2728   8.411   7.807   9.149 -0.1119  0.0069 -0.0763
  171loPI   C3A 2729   8.326   7.663   8.745 -0.1654 -0.1906  0.2520
  171loPI   C4A 2730   8.238   7.680   8.322 -0.1689  0.1875 -0.0152
  171loPI   C5A 2731   8.311   7.815   7.999 -0.0243  0.0393 -0.0702
  171loPI   C6A 2732   8.287   7.700   7.579 -0.1798 -0.0558 -0.0242
  171loPI   C1B 2733   8.554   8.204   9.641 -0.0640  0.3072 -0.2596
  171loPI   C2B 2734   8.739   8.543   9.441  0.2326 -0.1696 -0.0160
  171loPI   C3B 2735   8.625   8.821   9.055 -0.2674 -0.1435  0.2383
  171loPI   C4B 2736   8.621   9.061   8.763 -0.0737  0.1862  0.0942
  172loPI    C1 2737   9.977  16.979  10.186 -0.0855  0.2140 -0.0984
  172loPI    C2 2738   9.792  17.244  10.422 -0.0416  0.3132 -0.1746
  172loPI    C3 2739   9.937  16.905  10.578 -0.0779  0.3440 -0.0726
  172loPI   PO4 2740  10.199  17.058  10.116  0.1271  0.0479 -0.3150
  172loPI   GL1 2741  10.190  17.153   9.725  0.3922 -0.4359 -0.1223
  172loPI   GL2 2742  10.496  17.121   9.687  0.1136  0.0072  0.1551
  172loPI   C1A 2743  10.150  17.509   9.507 -0.0576 -0.2612 -0.0519
  172loPI   C2A 2744  10.174  17.634   9.050 -0.1872 -0.1318  0.3348
  172loPI   C3A 2745  10.284  17.567   8.581 -0.2497  0.1783  0.1987
  172loPI   C4A 2746  10.554  17.414   8.215 -0.0357  0.0724  0.1556
  172loPI   C5A 2747  10.551  17.155   7.815  0.1507 -0.2291 -0.0306
  172loPI   C6A 2748  10.298  17.127   7.418 -0.1172 -0.0349  0.2078
  172loPI   C1B 2749  10.348  17.143   9.251  0.1488  0.0334  0.0628
  172loPI   C2B 2750  10.183  17.070   8.889 -0.2048  0.2342 -0.2006
  172loPI   C3B 2751  10.061  17.088   8.368 -0.0145 -0.1783  0.4569
  172loPI   C4B 2752  10.074  17.090   7.883 -0.0888  0.1045 -0.1123
  173loPI    C1 2753   7.047   5.654  10.110 -0.1591  0.0058 -0.1325
  173loPI    C2 2754   6.680   5.502  10.158 -0.1301  0.0209  0.1543
  173loPI    C3 2755   6.747   5.779   9.877 -0.2738 -0.1892 -0.0917
  173loPI   PO4 2756   7.290   5.529   9.989  0.2236 -0.5803  0.0088
  173loPI   GL1 2757   7.630   5.428   9.842  0.2955  0.0804 -0.0469
  173loPI   GL2 2758   7.700   5.783   9.748  0.0172 -0.1845 -0.0079
  173loPI   C1A 2759   7.476   5.335   9.368 -0.2277  0.0087  0.3476
  173loPI   C2A 2760   7.461   5.451   8.965 -0.1197  0.0314  0.2827
  173loPI   C3A 2761   7.499   5.596   8.588 -0.0437  0.0849 -0.2496
  173loPI   C4A 2762   7.634   6.040   8.366 -0.0395 -0.1912  0.2866
  173loPI   C5A 2763   7.754   6.082   7.928 -0.0577 -0.2411  0.2384
  173loPI   C6A 2764   7.684   6.105   7.444 -0.1827 -0.2099  0.2748
  173loPI   C1B 2765   7.763   5.752   9.343 -0.2760 -0.4230 -0.0299
  173loPI   C2B 2766   7.653   5.964   8.917 -0.0603  0.2897 -0.1411
  173loPI   C3B 2767   7.302   6.014   8.687 -0.3911 -0.3463  0.1507
  173loPI   C4B 2768   6.997   5.807   8.443 -0.1888 -0.0003  0.3438
  174loPI    C1 2769  17.210   2.983  10.740  0.0245 -0.1076  0.0037
  174loPI    C2 2770  17.361   3.202  11.038 -0.0503  0.0596 -0.0801
  174loPI    C3 2771  17.005   3.026  11.080  0.0170 -0.0605 -0.0066
  174loPI   PO4 2772  17.348   3.123  10.461 -0.0638 -0.2892  0.0264
  174loPI   GL1 2773  17.387   3.406  10.145 -0.0493  0.0788  0.0746
  174loPI   GL2 2774  17.612   3.528  10.268 -0.1517  0.3383  0.2685
  174loPI   C1A 2775  17.277   3.560   9.804  0.0382  0.0782 -0.1329
  174loPI   C2A 2776  17.359   3.527   9.402  0.0202 -0.0323  0.2181
  174loPI   C3A 2777  17.447   3.691   8.971 -0.0736  0.3426 -0.0779
  174loPI   C4A 2778  17.252   3.891   8.709 -0.1700 -0.1100 -0.1024
  174loPI   C5A 2779  16.934   4.155   8.560 -0.0857  0.1744  0.1512
  174loPI   C6A 2780  16.908   4.573   8.330  0.2627  0.1022  0.5362
  174loPI   C1B 2781  17.797   3.482   9.919  0.3445 -0.1979 -0.2088
  174loPI   C2B 2782  17.936   3.353   9.473 -0.0144  0.2194 -0.0057
  174loPI   C3B 2783  18.113   3.627   9.170  0.1246  0.0114 -0.3273
  174loPI   C4B 2784  18.167   3.930   8.886  0.2142  0.1196 -0.0760
  175loPI    C1 2785   5.327   3.678  10.120 -0.0519 -0.0204 -0.1290
  175loPI    C2 2786   5.509   3.873  10.417  0.1668 -0.2074 -0.1374
  175loPI    C3 2787   5.120   3.784  10.445  0.1883 -0.2326  0.0975
  175loPI   PO4 2788   5.331   3.860   9.874 -0.0918 -0.0668 -0.1190
  175loPI   GL1 2789   5.150   3.828   9.531  0.0734 -0.2681  0.0976
  175loPI   GL2 2790   5.462   4.112   9.479 -0.0337 -0.1307  0.1409
  175loPI   C1A 2791   5.025   3.506   9.323 -0.0960 -0.2206 -0.0616
  175loPI   C2A 2792   5.052   3.038   9.352 -0.0848  0.1154 -0.0653
  175loPI   C3A 2793   5.385   2.758   9.098  0.0095  0.1583 -0.1375
  175loPI   C4A 2794   5.724   2.863   8.992 -0.0617  0.1721 -0.1265
  175loPI   C5A 2795   5.911   2.682   8.626  0.0754 -0.5115 -0.4147
  175loPI   C6A 2796   5.977   2.659   8.159  0.1422 -0.0396 -0.1450
  175loPI   C1B 2797   5.609   4.258   9.163 -0.2122  0.1658  0.1006
  175loPI   C2B 2798   5.457   4.263   8.789 -0.0445 -0.1265 -0.2922
  175loPI   C3B 2799   5.389   4.432   8.413  0.2391  0.0125  0.2101
  175loPI   C4B 2800   5.161   4.277   7.990 -0.0033 -0.0026 -0.2088
  176loPI    C1 2801  14.937   1.217  10.386 -0.0502 -0.1718 -0.1923
  176loPI    C2 2802  15.254   1.102  10.600 -0.1519 -0.2517 -0.0831
  176loPI    C3 2803  14.886   1.056  10.749 -0.2081 -0.0314 -0.1510
  176loPI   PO4 2804  15.001   1.072  10.201 -0.0737 -0.1474 -0.0140
  176loPI   GL1 2805  15.004   1.325   9.894 -0.2360  0.0742 -0.2824
  176loPI   GL2 2806  14.688   1.465   9.837 -0.1448 -0.4548  0.5062
  176loPI   C1A 2807  15.175   1.378   9.426  0.0240  0.0374  0.0638
  176loPI   C2A 2808  15.086   1.295   8.944  0.0102 -0.2011  0.1128
  176loPI   C3A 2809  14.938   1.351   8.594  0.2168 -0.2713  0.2594
  176loPI   C4A 2810  14.744   1.278   8.150 -0.0964  0.1030 -0.1520
  176loPI   C5A 2811  14.730   1.047   7.800  0.0864 -0.1428  0.0326
  176loPI   C6A 2812  14.572   1.013   7.342 -0.0696  0.0188 -0.0918
  176loPI   C1B 2813  14.704   1.475   9.332  0.0601  0.3494  0.2320
  176loPI   C2B 2814  14.489   1.495   8.913 -0.1523  0.4384 -0.1226
  176loPI   C3B 2815  14.429   1.339   8.495 -0.2280  0.0355 -0.1405
  176loPI   C4B 2816  14.272   1.311   8.084  0.1436 -0.2119 -0.0440
  177loPI    C1 2817   9.281  15.158  10.493  0.1575  0.0037 -0.0977
  177loPI    C2 2818   9.171  15.172  10.878  0.1047  0.0418 -0.1139
  177loPI    C3 2819   9.189  14.820  10.687 -0.1021  0.0460 -0.1432
  177loPI   PO4 2820   9.131  15.345  10.407  0.1880 -0.2898 -0.0740
  177loPI   GL1 2821   9.203  15.613  10.134  0.0177 -0.0013  0.1854
  177loPI   GL2 2822   9.324  15.809   9.914 -0.1330  0.0996  0.1693
  177loPI   C1A 2823   9.072  15.419   9.722 -0.2517 -0.0320  0.2160
  177loPI   C2A 2824   9.053  15.228   9.346  0.0270  0.1411 -0.0727
  177loPI   C3A 2825   8.956  15.286   8.908  0.1601  0.3274  0.2867
  177loPI   C4A 2826   8.992  15.482   8.687  0.0001 -0.0391  0.1290
  177loPI   C5A 2827   8.698  15.632   8.376 -0.1146 -0.0541  0.1963
  177loPI   C6A 2828   8.575  15.959   8.206 -0.1259  0.0238 -0.1542
  177loPI   C1B 2829   9.267  15.941   9.535 -0.0253 -0.0259 -0.2524
  177loPI   C2B 2830   9.235  16.026   9.168 -0.0388  0.3423  0.2386
  177loPI   C3B 2831   9.309  15.910   8.648 -0.0109  0.1840 -0.0903
  177loPI   C4B 2832   9.089  16.012   8.347  0.3594  0.2447  0.1147
  178loPI    C1 2833   2.249  16.816  10.475 -0.0319  0.0365 -0.1242
  178loPI    C2 2834   2.355  17.156  10.657  0.2735  0.0285 -0.2804
  178loPI    C3 2835   2.303  16.822  10.871 -0.2513  0.2179 -0.0951
  178loPI   PO4 2836   2.151  16.894  10.294 -0.2212 -0.0811 -0.0227
  178loPI   GL1 2837   2.100  16.824   9.889 -0.0782  0.2286  0.2621
  178loPI   GL2 2838   2.193  17.027   9.678  0.2101  0.1197 -0.0957
  178loPI   C1A 2839   1.891  16.716   9.444  0.0249  0.1429  0.0557
  178loPI   C2A 2840   1.850  16.567   9.084 -0.1191  0.0582 -0.1166
  178loPI   C3A 2841   1.948  16.580   8.709  0.0628 -0.1437 -0.1556
  178loPI   C4A 2842   1.992  16.524   8.203  0.2085  0.1029 -0.1184
  178loPI   C5A 2843   1.696  16.527   7.954 -0.1553  0.0244  0.1189
  178loPI   C6A 2844   1.583  16.925   7.742  0.4012 -0.0511  0.3142
  178loPI   C1B 2845   2.301  17.011   9.375 -0.1605 -0.2986 -0.1183
  178loPI   C2B 2846   2.285  16.900   8.888  0.1539  0.0263 -0.0025
  178loPI   C3B 2847   2.399  16.705   8.448  0.1989  0.1187  0.2447
  178loPI   C4B 2848   2.734  16.581   8.126  0.1476 -0.1349  0.2161
  179loPI    C1 2849  17.364  14.510  10.411 -0.2307 -0.1223  0.0633
  179loPI    C2 2850  17.067  14.349  10.625 -0.1586 -0.2353  0.0795
  179loPI    C3 2851  17.441  14.216  10.671 -0.1032 -0.0864  0.0667
  179loPI   PO4 2852  17.347  14.491  10.202 -0.1054  0.2471  0.0174
  179loPI   GL1 2853  17.253  14.601   9.896 -0.0554 -0.2283 -0.0695
  179loPI   GL2 2854  16.950  14.590   9.814  0.2659 -0.2351  0.2952
  179loPI   C1A 2855  17.305  14.317   9.561 -0.2498 -0.0685  0.0117
  179loPI   C2A 2856  17.409  14.235   9.078 -0.2618 -0.0598 -0.1093
  179loPI   C3A 2857  17.440  14.267   8.674 -0.3194  0.2516  0.2219
  179loPI   C4A 2858  17.475  14.060   8.275 -0.3939 -0.0305 -0.2313
  179loPI   C5A 2859  17.343  13.908   7.849  0.0895  0.2332 -0.1219
  179loPI   C6A 2860  17.037  13.644   7.937  0.2363  0.3262  0.2007
  179loPI   C1B 2861  17.029  14.558   9.237 -0.0621  0.0003 -0.5046
  179loPI   C2B 2862  16.982  14.614   8.729  0.1312 -0.1530 -0.2403
  179loPI   C3B 2863  16.813  14.666   8.261 -0.2204  0.0432  0.1081
  179loPI   C4B 2864  16.477  14.696   8.052  0.1027  0.0870  0.1849
  180loPI    C1 2865  13.716  10.468  10.564 -0.0883  0.1339 -0.0693
  180loPI    C2 2866  14.104  10.405  10.634 -0.1616 -0.0866  0.1519
  180loPI    C3 2867  13.860  10.502  10.936 -0.2966 -0.0451  0.0303
  180loPI   PO4 2868  13.723  10.526  10.325 -0.2044  0.0893  0.0813
  180loPI   GL1 2869  13.783  10.850  10.017 -0.2015 -0.2469 -0.1234
  180loPI   GL2 2870  13.487  10.684   9.951 -0.0375  0.2524 -0.1924
  180loPI   C1A 2871  13.732  10.889   9.544  0.0476  0.5626 -0.1650
  180loPI   C2A 2872  13.644  10.823   9.060 -0.0364 -0.2316  0.1400
  180loPI   C3A 2873  13.517  10.934   8.729 -0.2701 -0.1887  0.1882
  180loPI   C4A 2874  13.269  11.235   8.466  0.1741  0.1882  0.1316
  180loPI   C5A 2875  13.102  11.250   8.074  0.0105  0.1708 -0.3493
  180loPI   C6A 2876  13.468  11.390   7.788  0.1325  0.0907 -0.0859
  180loPI   C1B 2877  13.367  10.594   9.499  0.0367 -0.1751 -0.0469
  180loPI   C2B 2878  13.415  10.385   9.189  0.0010  0.3322  0.2275
  180loPI   C3B 2879  13.425  10.388   8.805 -0.0508 -0.1065  0.2707
  180loPI   C4B 2880  13.663  10.360   8.411 -0.0453 -0.0523 -0.0630
  181loPI    C1 2881   5.788   0.678  10.010  0.0917  0.0071  0.0780
  181loPI    C2 2882   5.741   1.065   9.921  0.0721 -0.0141 -0.0044
  181loPI    C3 2883   5.881   0.958  10.280 -0.0138  0.0662  0.0536
  181loPI   PO4 2884   5.910   0.552   9.861 -0.3657 -0.1003 -0.1951
  181loPI   GL1 2885   5.728   0.691   9.411  0.1467  0.0191 -0.3737
  181loPI   GL2 2886   5.584   1.089   9.388  0.0674 -0.0094 -0.5626
  181loPI   C1A 2887   5.762   0.586   8.909  0.0356  0.0130  0.1894
  181loPI   C2A 2888   6.071   0.647   8.562  0.0329  0.0082  0.2481
  181loPI   C3A 2889   6.234   0.752   8.184 -0.2154 -0.1680 -0.0092
  181loPI   C4A 2890   6.316   1.174   7.940  0.1636 -0.0193 -0.2750
  181loPI   C5A 2891   6.346   1.258   7.516  0.1409  0.0728  0.0595
  181loPI   C6A 2892   6.355   1.159   7.049 -0.2170  0.1084  0.0618
  181loPI   C1B 2893   5.485   1.023   8.992  0.3464  0.2996  0.1429
  181loPI   C2B 2894   5.451   0.966   8.589 -0.0633  0.1417  0.1081
  181loPI   C3B 2895   5.285   0.735   8.267 -0.1065  0.1814 -0.2244
  181loPI   C4B 2896   4.932   0.458   8.089  0.0397 -0.1568 -0.2565
  182loPI    C1 2897   9.955   4.391  10.369 -0.2574 -0.1983  0.0228
  182loPI    C2 2898   9.931   4.717  10.600 -0.1698 -0.0447 -0.1822
  182loPI    C3 2899   9.719   4.391  10.692 -0.3074  0.0913 -0.0107
  182loPI   PO4 2900   9.931   4.506  10.162 -0.0860 -0.3041  0.0350
  182loPI   GL1 2901  10.075   4.627   9.745  0.1026 -0.4630 -0.0902
  182loPI   GL2 2902  10.346   4.473   9.801 -0.1945  0.0893  0.2702
  182loPI   C1A 2903  10.068   4.745   9.283 -0.1233  0.0150 -0.1243
  182loPI   C2A 2904   9.920   4.821   8.771 -0.0148  0.1117 -0.0335
  182loPI   C3A 2905   9.874   4.815   8.359  0.0799  0.1775  0.0879
  182loPI   C4A 2906  10.177   4.591   7.987  0.2461 -0.0863 -0.2858
  182loPI   C5A 2907  10.332   4.158   7.758 -0.1647  0.1337  0.1006
  182loPI   C6A 2908  10.493   3.928   7.989 -0.4893 -0.0180  0.1886
  182loPI   C1B 2909  10.591   4.166   9.580 -0.0951 -0.4671  0.0984
  182loPI   C2B 2910  10.492   3.960   9.230  0.2349 -0.0212 -0.0555
  182loPI   C3B 2911  10.465   3.870   8.841 -0.3548  0.3439  0.0935
  182loPI   C4B 2912  10.491   3.752   8.470 -0.1244 -0.2222  0.0334
  183loPI    C1 2913  18.122   9.221  10.055  0.0830  0.0267 -0.0697
  183loPI    C2 2914  18.278   8.941  10.294  0.1337  0.1054 -0.0101
  183loPI    C3 2915  18.396   9.322  10.328  0.2027  0.1039 -0.2162
  183loPI   PO4 2916  18.070   9.117   9.800 -0.1107 -0.0819 -0.2814
  183loPI   GL1 2917  17.799   9.229   9.365  0.1817  0.2682 -0.1444
  183loPI   GL2 2918  17.827   8.859   9.303 -0.2339  0.2415 -0.0589
  183loPI   C1A 2919  18.152   9.286   9.131  0.0938 -0.3070 -0.1907
  183loPI   C2A 2920  18.125   9.305   8.749  0.2514 -0.2172 -0.1248
  183loPI   C3A 2921  18.303   9.532   8.455 -0.2092 -0.0305  0.1621
  183loPI   C4A 2922  18.241   9.816   8.139 -0.0705  0.0155 -0.1302
  183loPI   C5A 2923  18.384   9.887   7.749 -0.0971 -0.2257 -0.1435
  183loPI   C6A 2924  18.357   9.843   7.346  0.1034  0.1653  0.1382
  183loPI   C1B 2925  17.971   8.487   9.059  0.4355 -0.0924  0.0198
  183loPI   C2B 2926  18.076   8.288   8.715 -0.0255 -0.2998  0.2503
  183loPI   C3B 2927  18.143   8.195   8.280  0.0907  0.1155 -0.0236
  183loPI   C4B 2928  18.322   8.118   7.966 -0.1280 -0.1181 -0.0916
  184loPI    C1 2929   6.914   1.805  10.292 -0.1854  0.2298 -0.0189
  184loPI    C2 2930   6.533   1.760  10.404 -0.1627 -0.4256 -0.1645
  184loPI    C3 2931   6.821   1.551  10.587  0.1828  0.3065  0.1692
  184loPI   PO4 2932   6.908   1.764  10.020 -0.0062 -0.0594 -0.0488
  184loPI   GL1 2933   7.195   1.692   9.655  0.4645  0.0962 -0.1896
  184loPI   GL2 2934   7.134   1.339   9.574 -0.3848 -0.2935  0.1480
  184loPI   C1A 2935   7.351   1.739   9.175  0.3071 -0.1395  0.2354
  184loPI   C2A 2936   7.251   1.666   8.774  0.0297 -0.1818  0.0486
  184loPI   C3A 2937   7.427   1.719   8.329 -0.1207  0.1034  0.1461
  184loPI   C4A 2938   7.468   1.909   7.967  0.1263 -0.0054 -0.2124
  184loPI   C5A 2939   7.413   2.223   7.650  0.0913 -0.1003 -0.2069
  184loPI   C6A 2940   7.413   2.631   7.594 -0.0713 -0.0002  0.1041
  184loPI   C1B 2941   6.935   1.385   9.226 -0.3979 -0.0051 -0.0447
  184loPI   C2B 2942   6.831   1.368   8.788 -0.0283  0.1958  0.3290
  184loPI   C3B 2943   6.847   1.500   8.440  0.0114 -0.1007  0.0971
  184loPI   C4B 2944   6.844   1.829   8.169 -0.0805 -0.3290 -0.0788
  185loPI    C1 2945   5.381   0.335   9.900 -0.2064 -0.1938  0.1256
  185loPI    C2 2946   5.661   0.165  10.130  0.0109  0.1552  0.1268
  185loPI    C3 2947   5.342   0.339  10.298 -0.0530  0.0262  0.1403
  185loPI   PO4 2948   5.308   0.214   9.636  0.1500 -0.3706 -0.0254
  185loPI   GL1 2949   5.516   0.221   9.340 -0.0021  0.3707 -0.1075
  185loPI   GL2 2950   5.300   0.567   9.242 -0.1056  0.0104 -0.1290
  185loPI   C1A 2951   5.522   0.150   8.780  0.0335  0.0994 -0.1585
  185loPI   C2A 2952   5.712   0.170   8.319 -0.1386 -0.0541 -0.1383
  185loPI   C3A 2953   5.755   0.568   8.065 -0.0640 -0.1533  0.2853
  185loPI   C4A 2954   6.022   0.725   7.741 -0.2353  0.0040 -0.1379
  185loPI   C5A 2955   6.373   0.753   7.516 -0.0575 -0.0892  0.1058
  185loPI   C6A 2956   6.820   0.784   7.439  0.0751 -0.1293  0.1659
  185loPI   C1B 2957   5.068   0.540   8.772 -0.0899  0.0546 -0.4408
  185loPI   C2B 2958   4.784   0.785   8.417  0.1139 -0.2045 -0.0500
  185loPI   C3B 2959   4.583   0.845   8.029 -0.0217 -0.0395 -0.1739
  185loPI   C4B 2960   4.145   0.738   7.990 -0.1495  0.0847  0.0044
  186loPI    C1 2961   1.245  17.275  10.293 -0.4906  0.0927 -0.2711
  186loPI    C2 2962   0.984  17.435  10.551 -0.2401  0.1028 -0.0196
  186loPI    C3 2963   1.204  17.119  10.659  0.0212  0.2385 -0.1434
  186loPI   PO4 2964   1.402  17.467  10.167 -0.0712 -0.0076 -0.3001
  186loPI   GL1 2965   1.482  17.717   9.843  0.3456  0.2296  0.2967
  186loPI   GL2 2966   1.363  17.934   9.907 -0.0013 -0.0889 -0.0714
  186loPI   C1A 2967   1.257  17.649   9.479 -0.1083 -0.1110 -0.1316
  186loPI   C2A 2968   1.230  17.361   9.083 -0.1479 -0.0092  0.1333
  186loPI   C3A 2969   1.011  17.364   8.686 -0.1931 -0.0266  0.3438
  186loPI   C4A 2970   0.804  17.519   8.190  0.0243  0.3180 -0.0659
  186loPI   C5A 2971   0.707  17.494   7.762  0.1247 -0.1982 -0.1037
  186loPI   C6A 2972   0.698  17.312   7.307 -0.3224  0.0216 -0.3406
  186loPI   C1B 2973   1.390  18.127   9.480  0.0184 -0.0383  0.2596
  186loPI   C2B 2974   1.327  18.165   9.122  0.2494  0.1310 -0.0769
  186loPI   C3B 2975   1.226  18.156   8.740  0.2644 -0.2785  0.0192
  186loPI   C4B 2976   1.165  18.217   8.311  0.0484 -0.1703  0.2448
  187loPI    C1 2977   8.993   2.153  10.221  0.2763 -0.2180  0.1544
  187loPI    C2 2978   8.734   2.235  10.515  0.0350  0.1639 -0.1539
  187loPI    C3 2979   9.125   2.306  10.567  0.0497 -0.1509  0.2127
  187loPI   PO4 2980   8.693   2.102  10.019 -0.0020  0.0934 -0.1668
  187loPI   GL1 2981   8.718   1.927   9.658 -0.0701 -0.0777  0.0237
  187loPI   GL2 2982   8.337   2.028   9.473  0.0600  0.0827 -0.1118
  187loPI   C1A 2983   8.728   1.780   9.258  0.0283  0.2673  0.0956
  187loPI   C2A 2984   8.815   1.702   8.807  0.2743 -0.1786  0.4055
  187loPI   C3A 2985   8.711   1.686   8.301 -0.0291  0.1361  0.2927
  187loPI   C4A 2986   8.955   1.698   7.939 -0.0746 -0.0644 -0.0054
  187loPI   C5A 2987   9.221   2.065   7.723  0.0314  0.0269 -0.0835
  187loPI   C6A 2988   9.749   1.929   7.620  0.2777  0.4105 -0.0878
  187loPI   C1B 2989   8.270   1.866   9.009 -0.1561 -0.0657 -0.3701
  187loPI   C2B 2990   8.305   1.937   8.592  0.0354  0.0387  0.2027
  187loPI   C3B 2991   8.431   2.110   8.175 -0.1754  0.3534 -0.2112
  187loPI   C4B 2992   8.709   2.179   7.825 -0.0704  0.1566 -0.2695
  188loPI    C1 2993   6.904  18.146  10.059 -0.1594  0.2429  0.0166
  188loPI    C2 2994   7.109  17.926  10.324 -0.1002  0.0451 -0.1898
  188loPI    C3 2995   6.954  18.278  10.433 -0.2656 -0.1342  0.1693
  188loPI   PO4 2996   7.190  18.239   9.852 -0.1733 -0.2644  0.1797
  188loPI   GL1 2997   7.257  18.233   9.432  0.1854  0.0982 -0.0116
  188loPI   GL2 2998   6.997  18.192   9.386  0.0128  0.0617 -0.0311
  188loPI   C1A 2999   7.345  18.003   9.066 -0.0389  0.0867  0.1432
  188loPI   C2A 3000   7.356  18.011   8.532  0.1099  0.2544  0.2536
  188loPI   C3A 3001   7.444  18.282   8.229  0.1331  0.3408  0.2344
  188loPI   C4A 3002   7.277  18.212   7.847  0.1574  0.2597  0.1712
  188loPI   C5A 3003   7.075  18.426   7.665  0.1366  0.0459 -0.2946
  188loPI   C6A 3004   7.051  18.665   7.312 -0.2162 -0.2380 -0.2864
  188loPI   C1B 3005   6.965  18.342   8.962  0.2422  0.1040  0.3817
  188loPI   C2B 3006   6.973  18.333   8.454 -0.2477 -0.0399 -0.0091
  188loPI   C3B 3007   6.847  18.219   8.049 -0.2734 -0.0946  0.0650
  188loPI   C4B 3008   6.604  18.254   7.681 -0.1280 -0.1682 -0.0372
  189loPI    C1 3009   5.455  11.390  10.424  0.3399 -0.1174  0.1046
  189loPI    C2 3010   5.447  11.171  10.758 -0.2519 -0.0124  0.1713
  189loPI    C3 3011   5.310  11.546  10.762 -0.0405  0.0725 -0.1390
  189loPI   PO4 3012   5.667  11.237  10.284 -0.0139 -0.3480  0.0111
  189loPI   GL1 3013   5.898  11.358   9.912 -0.0692 -0.0838 -0.2852
  189loPI   GL2 3014   6.000  11.167   9.836 -0.0534  0.1259  0.2280
  189loPI   C1A 3015   5.883  11.472   9.443  0.1076 -0.0840  0.3516
  189loPI   C2A 3016   5.818  11.558   9.011  0.0478  0.0606  0.0684
  189loPI   C3A 3017   6.242  11.475   8.770 -0.0696 -0.2731  0.2178
  189loPI   C4A 3018   6.374  11.598   8.349 -0.0396  0.1130 -0.0339
  189loPI   C5A 3019   6.443  11.567   7.917 -0.0649 -0.0173 -0.2455
  189loPI   C6A 3020   6.492  11.764   7.499  0.0607  0.0194  0.1261
  189loPI   C1B 3021   6.111  10.972   9.424  0.2095  0.0441 -0.0304
  189loPI   C2B 3022   6.058  11.098   9.053  0.1343  0.0849  0.0351
  189loPI   C3B 3023   5.891  11.109   8.706  0.1784  0.3281 -0.4919
  189loPI   C4B 3024   5.957  11.373   8.271 -0.3135 -0.3746  0.1736
  190loPI    C1 3025   7.265  13.184  10.039  0.1737  0.0633  0.0885
  190loPI    C2 3026   7.222  13.565  10.150 -0.0707  0.0524  0.0383
  190loPI    C3 3027   7.187  13.273  10.421 -0.1417  0.0526  0.0292
  190loPI   PO4 3028   7.119  13.192   9.793  0.0011  0.1172 -0.0898
  190loPI   GL1 3029   7.142  13.360   9.469 -0.1294  0.5310 -0.0831
  190loPI   GL2 3030   7.418  13.435   9.491  0.2435  0.0441 -0.0991
  190loPI   C1A 3031   7.234  13.310   9.018  0.0189 -0.1381 -0.0216
  190loPI   C2A 3032   7.415  13.302   8.734 -0.3413  0.1258 -0.1242
  190loPI   C3A 3033   7.437  13.105   8.355  0.0287 -0.1791  0.2786
  190loPI   C4A 3034   7.335  13.243   7.864 -0.0855 -0.0878  0.1673
  190loPI   C5A 3035   7.720  13.336   7.515  0.0754 -0.2983  0.0266
  190loPI   C6A 3036   7.872  13.712   7.368  0.0649  0.1308 -0.3813
  190loPI   C1B 3037   7.430  13.725   9.176  0.2191  0.0403 -0.0202
  190loPI   C2B 3038   7.430  13.803   8.733 -0.6068  0.2305  0.0736
  190loPI   C3B 3039   7.556  13.681   8.357  0.1069  0.2011  0.0898
  190loPI   C4B 3040   7.741  13.603   7.905  0.3433  0.3245  0.3668
  191loPI    C1 3041  11.365   1.437  10.432 -0.1947 -0.1696 -0.0176
  191loPI    C2 3042  11.575   1.111  10.533 -0.0015 -0.0488 -0.0260
  191loPI    C3 3043  11.315   1.270  10.792 -0.0190 -0.1482  0.0174
  191loPI   PO4 3044  11.215   1.381  10.244  0.1128 -0.2746  0.1767
  191loPI   GL1 3045  11.138   1.372   9.735  0.1710 -0.3991  0.0567
  191loPI   GL2 3046  11.358   1.335   9.643 -0.1186  0.3383  0.1561
  191loPI   C1A 3047  10.986   1.131   9.353 -0.1906  0.2386  0.0954
  191loPI   C2A 3048  10.893   1.007   8.872 -0.0171 -0.1886  0.1724
  191loPI   C3A 3049  10.988   0.759   8.586 -0.1077  0.1978 -0.1271
  191loPI   C4A 3050  10.950   0.508   8.200 -0.0121 -0.0038 -0.1837
  191loPI   C5A 3051  10.977   0.215   7.834  0.0203  0.2974 -0.5486
  191loPI   C6A 3052  10.977  -0.137   7.570  0.3799 -0.6189  0.2369
  191loPI   C1B 3053  11.635   1.180   9.339 -0.0665  0.0765  0.0506
  191loPI   C2B 3054  11.821   1.174   8.941  0.0135 -0.0472  0.1958
  191loPI   C3B 3055  11.893   1.043   8.530  0.1554 -0.2025 -0.0617
  191loPI   C4B 3056  11.477   0.846   8.210 -0.0969 -0.0078  0.0367
  192loPI    C1 3057  14.031   5.032  10.492  0.1034 -0.0956 -0.2814
  192loPI    C2 3058  13.698   4.836  10.594  0.1670  0.0093  0.1488
  192loPI    C3 3059  14.052   4.721  10.742  0.2644  0.1676  0.0418
  192loPI   PO4 3060  13.920   5.224  10.287 -0.1416  0.0859  0.1051
  192loPI   GL1 3061  13.993   5.198   9.875  0.0332  0.3384 -0.1281
  192loPI   GL2 3062  14.037   4.865   9.722 -0.1047 -0.1379  0.2283
  192loPI   C1A 3063  14.073   5.292   9.344  0.4667 -0.0076 -0.3933
  192loPI   C2A 3064  14.123   5.172   8.990  0.3737  0.0535  0.0166
  192loPI   C3A 3065  14.416   5.380   8.782 -0.3219 -0.0437 -0.0560
  192loPI   C4A 3066  14.560   5.244   8.334 -0.4110  0.1910  0.1805
  192loPI   C5A 3067  14.359   4.882   8.086 -0.2035 -0.0441  0.2551
  192loPI   C6A 3068  13.889   4.684   7.999 -0.1628  0.3486  0.2712
  192loPI   C1B 3069  14.119   4.759   9.331 -0.2740  0.0773 -0.1659
  192loPI   C2B 3070  13.953   4.658   8.985  0.0652  0.0303  0.2112
  192loPI   C3B 3071  13.561   4.744   8.705 -0.2271  0.1633 -0.0063
  192loPI   C4B 3072  13.449   5.007   8.277 -0.1974  0.2966  0.0149
  193loPI    C1 3073  16.715  11.443  10.814 -0.0243  0.1532 -0.1379
  193loPI    C2 3074  16.786  11.165  11.093  0.2255  0.0427 -0.3081
  193loPI    C3 3075  16.486  11.425  11.142  0.1580 -0.0854 -0.0206
  193loPI   PO4 3076  16.775  11.328  10.560 -0.2184 -0.0012  0.0741
  193loPI   GL1 3077  16.940  10.993  10.199 -0.0365  0.1749  0.1971
  193loPI   GL2 3078  17.112  11.092   9.926  0.2748  0.0624  0.3293
  193loPI   C1A 3079  16.598  10.918   9.916 -0.0238 -0.1627  0.1618
  193loPI   C2A 3080  16.352  11.008   9.599 -0.0279 -0.1721  0.1247
  193loPI   C3A 3081  16.147  11.111   9.153  0.2635  0.0950 -0.1717
  193loPI   C4A 3082  15.859  11.275   8.931  0.0172 -0.2107 -0.0274
  193loPI   C5A 3083  15.675  11.028   8.545  0.0235  0.1042  0.0908
  193loPI   C6A 3084  15.757  10.836   8.197 -0.0406 -0.0696  0.4517
  193loPI   C1B 3085  17.255  11.106   9.428 -0.1520 -0.1544 -0.3012
  193loPI   C2B 3086  17.230  11.254   9.003 -0.0598 -0.2086  0.2166
  193loPI   C3B 3087  17.377  11.209   8.611  0.2195 -0.2736 -0.1990
  193loPI   C4B 3088  17.599  11.272   8.318  0.0077 -0.0739  0.2760
  194loPI    C1 3089  13.308  18.464  10.313 -0.1091 -0.1164 -0.2278
  194loPI    C2 3090  13.694  18.532  10.392 -0.1484 -0.0437 -0.0928
  194loPI    C3 3091  13.470  18.325  10.651 -0.2668  0.1504 -0.0384
  194loPI   PO4 3092  13.358  18.549  10.015  0.2449 -0.2665 -0.4603
  194loPI   GL1 3093  13.431  18.691   9.626 -0.0031  0.1413 -0.4919
  194loPI   GL2 3094  13.558  18.353   9.594 -0.0966 -0.1702 -0.0544
  194loPI   C1A 3095  13.528  18.867   9.140  0.0877 -0.1004 -0.1330
  194loPI   C2A 3096  13.621  18.759   8.660 -0.0096 -0.0836 -0.0522
  194loPI   C3A 3097  13.869  18.597   8.398  0.0224  0.0964  0.0981
  194loPI   C4A 3098  13.835  18.895   8.124  0.0237  0.0554 -0.0852
  194loPI   C5A 3099  13.924  19.156   7.855  0.1451  0.1366  0.0320
  194loPI   C6A 3100  14.057  19.113   7.478 -0.1585 -0.3861  0.0010
  194loPI   C1B 3101  13.572  18.292   9.220  0.0938 -0.0192  0.1166
  194loPI   C2B 3102  13.577  18.280   8.790 -0.1376 -0.0738  0.2672
  194loPI   C3B 3103  13.578  18.159   8.274 -0.2200 -0.1565 -0.1869
  194loPI   C4B 3104  13.494  17.920   7.921 -0.1172 -0.0223  0.1122
  195loPI    C1 3105  10.915   8.250  10.419  0.0089 -0.2494  0.2768
  195loPI    C2 3106  11.156   7.965  10.562  0.2752 -0.1316  0.0703
  195loPI    C3 3107  11.245   8.350  10.621  0.0480 -0.0875  0.1345
  195loPI   PO4 3108  10.823   8.187  10.193 -0.2332 -0.0259 -0.3606
  195loPI   GL1 3109  10.845   8.148   9.844 -0.0755 -0.1652  0.0366
  195loPI   GL2 3110  10.878   8.551   9.792  0.1826 -0.0137 -0.2439
  195loPI   C1A 3111  10.996   8.013   9.425 -0.1196 -0.5878  0.0333
  195loPI   C2A 3112  10.885   7.643   9.189 -0.1799 -0.1295 -0.1711
  195loPI   C3A 3113  11.120   7.764   8.769 -0.0857  0.1151  0.2655
  195loPI   C4A 3114  11.365   7.705   8.400 -0.0003  0.0608 -0.0320
  195loPI   C5A 3115  11.776   7.638   8.266 -0.3465  0.1534  0.1963
  195loPI   C6A 3116  12.118   7.489   8.282  0.0545 -0.1987  0.0611
  195loPI   C1B 3117  10.633   8.434   9.363  0.1479  0.1065 -0.1003
  195loPI   C2B 3118  10.432   8.465   8.887  0.1724  0.1422 -0.4167
  195loPI   C3B 3119  10.339   8.344   8.500 -0.2150  0.4020  0.1128
  195loPI   C4B 3120   9.897   8.151   8.356 -0.2538 -0.1615  0.4661
  196loPI    C1 3121   9.266  16.875  10.246 -0.1234  0.1173 -0.0060
  196loPI    C2 3122   9.445  16.932  10.600  0.1004  0.0975 -0.1145
  196loPI    C3 3123   9.190  16.627  10.551 -0.0440  0.1870  0.0712
  196loPI   PO4 3124   9.466  16.944  10.088 -0.0915 -0.2640 -0.2003
  196loPI   GL1 3125   9.731  16.783   9.824  0.0530 -0.3805 -0.2518
  196loPI   GL2 3126   9.709  17.012   9.542  0.0235  0.0638  0.1560
  196loPI   C1A 3127   9.866  16.477   9.464  0.0552  0.1593 -0.2590
  196loPI   C2A 3128  10.100  16.253   9.174 -0.0991  0.0138 -0.2441
  196loPI   C3A 3129  10.107  16.101   8.746  0.1612  0.1390 -0.3069
  196loPI   C4A 3130  10.239  15.812   8.475  0.3439 -0.1034  0.0306
  196loPI   C5A 3131  10.072  15.743   8.083 -0.5052 -0.0984 -0.6052
  196loPI   C6A 3132   9.888  15.848   7.696  0.1385  0.2127  0.2665
  196loPI   C1B 3133   9.873  16.877   9.184  0.0283 -0.1915  0.1272
  196loPI   C2B 3134   9.918  16.680   8.835  0.2092  0.2343  0.0899
  196loPI   C3B 3135  10.110  16.605   8.513 -0.0714  0.3197  0.2867
  196loPI   C4B 3136  10.064  16.232   8.196  0.0890  0.0506 -0.2172
  197loPI    C1 3137  13.205   9.215  10.553 -0.1957  0.2842  0.0678
  197loPI    C2 3138  13.484   9.257  10.836 -0.2810 -0.2858  0.2490
  197loPI    C3 3139  13.100   9.328  10.922 -0.2595 -0.0432  0.1527
  197loPI   PO4 3140  13.372   9.309  10.323 -0.1517  0.0068  0.2069
  197loPI   GL1 3141  13.341   9.477   9.938 -0.0705  0.0455  0.1474
  197loPI   GL2 3142  13.186   9.810  10.037  0.1104  0.2863 -0.3789
  197loPI   C1A 3143  13.279   9.555   9.443 -0.0765  0.0353  0.1712
  197loPI   C2A 3144  13.285   9.420   9.107  0.1097  0.2063 -0.0278
  197loPI   C3A 3145  13.165   9.460   8.695 -0.0134  0.3761  0.1878
  197loPI   C4A 3146  13.418   9.441   8.271  0.0465  0.2394 -0.4089
  197loPI   C5A 3147  13.448   9.525   7.837  0.1794 -0.0938 -0.2842
  197loPI   C6A 3148  13.519   9.477   7.383 -0.0154 -0.0671  0.0769
  197loPI   C1B 3149  12.886   9.654   9.720  0.1633 -0.1222 -0.1578
  197loPI   C2B 3150  12.572   9.840   9.433  0.0976  0.0455 -0.0305
  197loPI   C3B 3151  12.187   9.746   9.188 -0.0926 -0.0655 -0.4551
  197loPI   C4B 3152  12.223   9.998   8.785  0.1635  0.0961  0.4540
  198loPI    C1 3153  16.438   0.282  10.911  0.2111 -0.1444  0.3709
  198loPI    C2 3154  16.071   0.192  11.043  0.1164 -0.0994  0.1430
  198loPI    C3 3155  16.319   0.408  11.272 -0.0909  0.0872  0.1945
  198loPI   PO4 3156  16.512   0.089  10.730  0.0786 -0.3835 -0.1038
  198loPI   GL1 3157  16.550   0.126  10.225  0.3582 -0.0676  0.0770
  198loPI   GL2 3158  16.356  -0.124  10.157 -0.0705 -0.2448 -0.1185
  198loPI   C1A 3159  16.420   0.329   9.792 -0.1575  0.0572  0.1260
  198loPI   C2A 3160  16.457   0.482   9.420 -0.0962  0.0110  0.1365
  198loPI   C3A 3161  16.511   0.636   8.978 -0.0153 -0.2975  0.0518
  198loPI   C4A 3162  16.561   0.838   8.626 -0.0259 -0.3107 -0.1907
  198loPI   C5A 3163  16.552   0.875   8.249  0.0370 -0.1664  0.1782
  198loPI   C6A 3164  16.625   1.100   7.814 -0.1081  0.0007 -0.3372
  198loPI   C1B 3165  16.244  -0.123   9.760 -0.2310  0.0392  0.1359
  198loPI   C2B 3166  16.181  -0.123   9.358  0.1900 -0.1885  0.1674
  198loPI   C3B 3167  16.263  -0.222   8.953  0.1487 -0.1410  0.0806
  198loPI   C4B 3168  16.132  -0.259   8.608 -0.2095  0.2491  0.2815
  199loPI    C1 3169   7.121  14.646  10.618 -0.1926  0.0089  0.4030
  199loPI    C2 3170   7.055  15.038  10.570 -0.0213 -0.0473 -0.4543
  199loPI    C3 3171   7.361  14.912  10.796  0.0618  0.3161 -0.3584
  199loPI   PO4 3172   7.202  14.522  10.395  0.0479 -0.1215 -0.2483
  199loPI   GL1 3173   7.145  14.550   9.886  0.1740  0.4161 -0.0991
  199loPI   GL2 3174   7.363  14.330   9.810 -0.0923  0.0870  0.1968
  199loPI   C1A 3175   6.854  14.437   9.469 -0.0274  0.3353 -0.2325
  199loPI   C2A 3176   6.816  14.365   8.990 -0.1375 -0.1145 -0.2210
  199loPI   C3A 3177   6.839  14.314   8.567  0.2217  0.1636  0.1974
  199loPI   C4A 3178   6.880  14.094   8.223 -0.2851 -0.2466 -0.2751
  199loPI   C5A 3179   6.816  13.874   7.801 -0.0503  0.1621  0.3130
  199loPI   C6A 3180   6.878  13.677   7.485  0.0448  0.0814  0.2708
  199loPI   C1B 3181   7.296  14.300   9.401  0.2397 -0.0886 -0.1771
  199loPI   C2B 3182   7.424  14.213   9.059  0.0802  0.1043 -0.1841
  199loPI   C3B 3183   7.317  14.280   8.639  0.1339  0.1834  0.2700
  199loPI   C4B 3184   7.393  14.237   8.243  0.0195 -0.0348  0.0045
  200loPI    C1 3185  12.249   0.903  10.190  0.3251  0.2133 -0.1475
  200loPI    C2 3186  12.085   1.214  10.380  0.0158 -0.0415  0.0123
  200loPI    C3 3187  12.470   1.125  10.438  0.0373  0.1504  0.1729
  200loPI   PO4 3188  12.124   0.893   9.992 -0.1242  0.1513  0.1225
  200loPI   GL1 3189  12.027   1.062   9.630  0.0157  0.1696 -0.2001
  200loPI   GL2 3190  11.861   1.396   9.744  0.3045  0.0118 -0.0976
  200loPI   C1A 3191  12.155   1.198   9.322 -0.3012  0.2047  0.4533
  200loPI   C2A 3192  12.293   1.133   8.871  0.2077  0.1010 -0.0482
  200loPI   C3A 3193  12.503   1.143   8.457 -0.2084 -0.2367 -0.0650
  200loPI   C4A 3194  12.199   1.381   8.193  0.1264  0.0365  0.0540
  200loPI   C5A 3195  12.276   1.567   7.811  0.0809  0.0591 -0.0695
  200loPI   C6A 3196  12.264   1.644   7.422 -0.0631 -0.0255 -0.1353
  200loPI   C1B 3197  11.920   1.610   9.403  0.0647 -0.1551  0.2124
  200loPI   C2B 3198  12.224   1.682   9.118  0.1434  0.1674 -0.0095
  200loPI   C3B 3199  12.210   1.577   8.685 -0.1223  0.0672 -0.1388
  200loPI   C4B 3200  12.017   1.818   8.346 -0.0534 -0.0678  0.1505
  201loPI    C1 3201  12.618   9.358  10.732  0.2066  0.1426 -0.2605
  201loPI    C2 3202  12.575   9.743  10.629 -0.1339  0.1863  0.0244
  201loPI    C3 3203  12.347   9.586  10.918 -0.0911 -0.2667 -0.1786
  201loPI   PO4 3204  12.607   9.180  10.551  0.0860 -0.2737  0.0677
  201loPI   GL1 3205  12.464   9.165  10.175  0.1438 -0.1815 -0.0021
  201loPI   GL2 3206  12.224   9.175  10.185  0.4493 -0.0417  0.1146
  201loPI   C1A 3207  12.660   9.233   9.767 -0.0691  0.1061 -0.1006
  201loPI   C2A 3208  12.877   9.186   9.420 -0.0611  0.1382  0.0494
  201loPI   C3A 3209  12.823   9.517   9.155 -0.0746  0.1582  0.1587
  201loPI   C4A 3210  12.713   9.813   8.825 -0.1593  0.1233 -0.1241
  201loPI   C5A 3211  12.543  10.057   8.468  0.1813 -0.3061  0.0427
  201loPI   C6A 3212  12.604  10.431   8.108  0.1242  0.0668 -0.0060
  201loPI   C1B 3213  12.185   9.012   9.831  0.0903 -0.1076  0.1604
  201loPI   C2B 3214  12.016   9.029   9.421  0.3048 -0.3967  0.0958
  201loPI   C3B 3215  12.014   9.264   9.056  0.2211 -0.3297 -0.1282
  201loPI   C4B 3216  11.857   9.602   8.821  0.0246 -0.3361 -0.1441
  202loPI    C1 3217   2.652  15.613  10.586  0.0528 -0.2278  0.0282
  202loPI    C2 3218   2.286  15.630  10.746 -0.0466 -0.0061 -0.2160
  202loPI    C3 3219   2.607  15.608  10.983 -0.1999  0.1380  0.0093
  202loPI   PO4 3220   2.644  15.530  10.385 -0.1202  0.0499 -0.0153
  202loPI   GL1 3221   2.745  15.393   9.941  0.0967 -0.2777  0.2401
  202loPI   GL2 3222   2.961  15.607   9.754  0.1005  0.0078 -0.0880
  202loPI   C1A 3223   2.543  15.398   9.415 -0.1275  0.0495 -0.1602
  202loPI   C2A 3224   2.232  15.494   9.211 -0.0849 -0.2114  0.2172
  202loPI   C3A 3225   2.020  15.476   8.798  0.0935  0.2560 -0.0569
  202loPI   C4A 3226   1.990  15.562   8.377 -0.1125  0.2422 -0.1874
  202loPI   C5A 3227   1.951  15.482   7.911 -0.2271  0.2050 -0.0125
  202loPI   C6A 3228   2.245  15.532   7.505  0.0124  0.1630 -0.1608
  202loPI   C1B 3229   3.016  15.845   9.361  0.0841 -0.0391  0.1214
  202loPI   C2B 3230   2.979  15.720   8.905  0.2596 -0.0882  0.1118
  202loPI   C3B 3231   2.933  15.462   8.525  0.2289 -0.1164 -0.0190
  202loPI   C4B 3232   2.833  15.210   8.201 -0.2136 -0.1513  0.2617
  203loPI    C1 3233   9.170   3.028  10.139  0.1558 -0.1756  0.0075
  203loPI    C2 3234   9.042   3.060  10.517 -0.0960 -0.0365 -0.0874
  203loPI    C3 3235   9.429   2.989  10.442  0.0380  0.3703  0.1883
  203loPI   PO4 3236   9.140   3.210   9.981  0.2868 -0.2105 -0.0669
  203loPI   GL1 3237   8.913   3.179   9.618 -0.1318  0.1684  0.2155
  203loPI   GL2 3238   9.322   3.087   9.589  0.1594  0.1618  0.2159
  203loPI   C1A 3239   8.930   3.092   9.217 -0.0327  0.0213 -0.3930
  203loPI   C2A 3240   9.019   3.156   8.783 -0.0989 -0.0533  0.0873
  203loPI   C3A 3241   8.914   3.006   8.373  0.1376 -0.1840  0.0097
  203loPI   C4A 3242   8.921   3.091   7.971 -0.0056 -0.0764  0.5457
  203loPI   C5A 3243   9.189   3.354   7.680  0.1171 -0.0494  0.4710
  203loPI   C6A 3244   9.674   3.327   7.590 -0.1116 -0.2817  0.3357
  203loPI   C1B 3245   9.380   3.082   9.147 -0.2551  0.2078  0.1908
  203loPI   C2B 3246   9.488   2.996   8.620 -0.0119  0.0222  0.0980
  203loPI   C3B 3247   9.424   2.990   8.180  0.0507 -0.0734 -0.1421
  203loPI   C4B 3248   9.399   2.898   7.776 -0.0023  0.4983 -0.2483
  204loPI    C1 3249   7.641   9.226  10.818  0.2952  0.1265  0.0079
  204loPI    C2 3250   7.940   9.059  10.611  0.0750 -0.2555 -0.0109
  204loPI    C3 3251   7.765   8.856  10.908  0.0792  0.1101  0.2478
  204loPI   PO4 3252   7.567   9.469  10.557 -0.1035  0.1272  0.0666
  204loPI   GL1 3253   7.685   9.582  10.076  0.2510 -0.0159  0.0471
  204loPI   GL2 3254   7.741   9.206  10.126  0.0009  0.4015  0.0332
  204loPI   C1A 3255   7.925   9.606   9.694 -0.3220  0.1735 -0.1663
  204loPI   C2A 3256   7.785   9.817   9.303  0.2786 -0.0712 -0.2110
  204loPI   C3A 3257   7.820   9.643   8.859 -0.1769 -0.3413 -0.0461
  204loPI   C4A 3258   7.969   9.644   8.518 -0.1369 -0.1782  0.1633
  204loPI   C5A 3259   8.220   9.658   8.245  0.2813  0.0485  0.0168
  204loPI   C6A 3260   8.431   9.743   7.879 -0.4409 -0.0209  0.1116
  204loPI   C1B 3261   7.342   9.210   9.929 -0.1773 -0.1160  0.1927
  204loPI   C2B 3262   7.025   9.162   9.661 -0.0749 -0.1468  0.1490
  204loPI   C3B 3263   6.910   9.223   9.225 -0.0423  0.0081  0.0060
  204loPI   C4B 3264   6.765   9.228   8.872 -0.0506  0.0846  0.0872
  205loPI    C1 3265  15.532  16.258  10.549  0.0478  0.1334  0.1366
  205loPI    C2 3266  15.827  16.011  10.657 -0.0919 -0.0631  0.0753
  205loPI    C3 3267  15.645  16.237  10.932 -0.0312 -0.1028  0.1487
  205loPI   PO4 3268  15.392  16.151  10.357 -0.0916 -0.0316  0.1515
  205loPI   GL1 3269  15.351  16.220   9.809 -0.1939 -0.0683 -0.0516
  205loPI   GL2 3270  15.507  15.945   9.895  0.0630 -0.0478 -0.0237
  205loPI   C1A 3271  15.197  15.866   9.554  0.1027  0.0265 -0.0313
  205loPI   C2A 3272  15.109  15.553   9.180  0.1595 -0.0775 -0.0540
  205loPI   C3A 3273  15.103  15.501   8.652 -0.1118 -0.0524 -0.2439
  205loPI   C4A 3274  15.306  15.699   8.452 -0.0275 -0.1057 -0.4556
  205loPI   C5A 3275  15.460  15.694   8.129  0.1740  0.6183 -0.2604
  205loPI   C6A 3276  15.192  15.863   7.817 -0.2186  0.3932  0.5744
  205loPI   C1B 3277  15.712  16.172   9.476  0.3376 -0.1331  0.1885
  205loPI   C2B 3278  15.825  16.126   9.066 -0.0863  0.4897  0.2202
  205loPI   C3B 3279  15.579  16.129   8.665 -0.0792 -0.0962  0.4525
  205loPI   C4B 3280  15.665  16.101   8.284  0.1085  0.2027 -0.0160
  206loPI    C1 3281  14.495  16.123  10.348  0.0346 -0.0079  0.1193
  206loPI    C2 3282  14.873  16.102  10.478  0.1963  0.0685 -0.3203
  206loPI    C3 3283  14.637  15.779  10.496  0.0918  0.1696  0.4863
  206loPI   PO4 3284  14.540  16.259  10.079 -0.0534 -0.0214 -0.0506
  206loPI   GL1 3285  14.751  16.453   9.745 -0.1830  0.2395 -0.1943
  206loPI   GL2 3286  14.950  16.568   9.572 -0.2587 -0.0509  0.0026
  206loPI   C1A 3287  14.438  16.544   9.493  0.2904  0.0519  0.2368
  206loPI   C2A 3288  14.162  16.549   9.170  0.1840 -0.1513 -0.1377
  206loPI   C3A 3289  14.215  16.569   8.692 -0.0841  0.1870  0.1213
  206loPI   C4A 3290  14.545  16.418   8.371  0.0206 -0.1470  0.3942
  206loPI   C5A 3291  14.865  16.223   8.075  0.2530  0.1215 -0.3314
  206loPI   C6A 3292  15.119  16.304   7.701  0.0362  0.1716 -0.1224
  206loPI   C1B 3293  15.084  16.481   9.276  0.0819  0.1056  0.0515
  206loPI   C2B 3294  15.139  16.538   8.855 -0.1261 -0.0377  0.1101
  206loPI   C3B 3295  14.988  16.615   8.444  0.1844  0.0756  0.0439
  206loPI   C4B 3296  15.047  16.851   8.119 -0.2381  0.1581  0.1330
  207loPI    C1 3297   5.536   7.366  10.520  0.0444  0.0736  0.2353
  207loPI    C2 3298   5.192   7.342  10.721  0.1153 -0.0302  0.3455
  207loPI    C3 3299   5.511   7.135  10.845  0.1637 -0.0848  0.1337
  207loPI   PO4 3300   5.518   7.257  10.229 -0.1199 -0.0410 -0.0070
  207loPI   GL1 3301   5.392   7.246   9.885 -0.2591  0.1111 -0.0383
  207loPI   GL2 3302   5.227   7.395   9.783  0.1917  0.0561  0.1109
  207loPI   C1A 3303   5.575   7.165   9.432  0.0619 -0.2648 -0.1211
  207loPI   C2A 3304   5.704   7.173   9.024 -0.1014  0.1546 -0.2706
  207loPI   C3A 3305   5.468   7.183   8.609  0.1849 -0.1067  0.2258
  207loPI   C4A 3306   5.664   7.284   8.165  0.1579  0.0375 -0.2618
  207loPI   C5A 3307   5.559   7.536   7.736 -0.0987  0.1805 -0.2681
  207loPI   C6A 3308   5.343   7.400   7.366  0.2391  0.0152  0.0264
  207loPI   C1B 3309   5.252   7.501   9.277 -0.0911  0.1752  0.0780
  207loPI   C2B 3310   5.200   7.735   8.891  0.2317  0.1118  0.0344
  207loPI   C3B 3311   5.106   7.972   8.552 -0.1392 -0.0921  0.3261
  207loPI   C4B 3312   4.861   8.385   8.655 -0.0255 -0.1341  0.1996
  208loPI    C1 3313   1.761  15.319  10.218 -0.0227  0.1896  0.4692
  208loPI    C2 3314   1.502  15.343   9.915  0.4228 -0.1217  0.0493
  208loPI    C3 3315   1.409  15.502  10.270 -0.2998 -0.1525 -0.1103
  208loPI   PO4 3316   1.806  15.076  10.156 -0.2294  0.0098  0.1788
  208loPI   GL1 3317   1.599  14.859   9.812 -0.0227 -0.2075  0.2305
  208loPI   GL2 3318   1.976  14.785   9.777 -0.0820 -0.0693 -0.3797
  208loPI   C1A 3319   1.556  15.111   9.437  0.1479 -0.0071  0.0871
  208loPI   C2A 3320   1.575  15.033   9.032 -0.1634  0.0586 -0.0764
  208loPI   C3A 3321   1.469  15.184   8.671 -0.0292 -0.5136 -0.0444
  208loPI   C4A 3322   1.397  15.180   8.275 -0.2280  0.1085  0.2955
  208loPI   C5A 3323   1.386  15.295   7.795  0.5077 -0.1435  0.0413
  208loPI   C6A 3324   1.232  15.726   7.775 -0.1213 -0.1071 -0.0600
  208loPI   C1B 3325   1.929  14.721   9.357  0.0648 -0.2585  0.1475
  208loPI   C2B 3326   2.103  14.520   8.971 -0.1567 -0.0965  0.2011
  208loPI   C3B 3327   2.032  14.292   8.564  0.0067  0.1154  0.0608
  208loPI   C4B 3328   1.870  14.165   8.062  0.0666 -0.0079 -0.0736
  209loPI    C1 3329   0.974   7.519  11.015 -0.2998  0.0812  0.1917
  209loPI    C2 3330   1.274   7.777  10.960 -0.3000  0.0238 -0.0923
  209loPI    C3 3331   0.974   7.869  11.207 -0.0059  0.0430  0.2655
  209loPI   PO4 3332   0.873   7.445  10.614  0.0135  0.1734  0.1602
  209loPI   GL1 3333   0.839   7.622  10.151 -0.0302  0.0482 -0.2588
  209loPI   GL2 3334   0.690   7.896  10.072  0.0620 -0.0391  0.1637
  209loPI   C1A 3335   1.043   7.586   9.677 -0.0579  0.0662 -0.2638
  209loPI   C2A 3336   1.014   7.496   9.199 -0.2341  0.1827 -0.0324
  209loPI   C3A 3337   0.884   7.412   8.813  0.0884 -0.0180  0.0306
  209loPI   C4A 3338   1.145   7.185   8.491 -0.2692  0.0484  0.4134
  209loPI   C5A 3339   1.388   7.271   8.118 -0.3193  0.1167 -0.4965
  209loPI   C6A 3340   1.901   7.313   7.912  0.1623 -0.2341 -0.0982
  209loPI   C1B 3341   0.599   7.861   9.614 -0.3129 -0.0538 -0.1101
  209loPI   C2B 3342   0.662   7.866   9.175 -0.1099  0.2789 -0.3474
  209loPI   C3B 3343   0.619   7.840   8.748  0.2162 -0.0105 -0.1134
  209loPI   C4B 3344   0.401   7.950   8.370 -0.1867 -0.1446 -0.0752
  210loPI    C1 3345  11.338   6.392  10.614 -0.1657 -0.1514 -0.0394
  210loPI    C2 3346  11.665   6.605  10.705 -0.3657 -0.0068  0.3696
  210loPI    C3 3347  11.664   6.208  10.755 -0.2073 -0.0264  0.2270
  210loPI   PO4 3348  11.235   6.552  10.496  0.0119 -0.0894 -0.4371
  210loPI   GL1 3349  11.483   6.703  10.145  0.1197  0.1463  0.1629
  210loPI   GL2 3350  11.115   6.891  10.137 -0.1988 -0.3696  0.1349
  210loPI   C1A 3351  11.532   6.650   9.687  0.1903  0.1283 -0.0940
  210loPI   C2A 3352  11.660   6.479   9.328 -0.1658 -0.0921 -0.0987
  210loPI   C3A 3353  11.783   6.451   9.037  0.2353 -0.1237  0.2311
  210loPI   C4A 3354  11.786   6.545   8.521 -0.0121 -0.1316 -0.1829
  210loPI   C5A 3355  11.748   6.801   8.186  0.0703  0.2386 -0.0753
  210loPI   C6A 3356  12.059   7.089   7.996  0.0366  0.2578 -0.2394
  210loPI   C1B 3357  10.982   6.707   9.765 -0.0159  0.0368 -0.0601
  210loPI   C2B 3358  11.095   6.715   9.318 -0.1373  0.2295  0.0345
  210loPI   C3B 3359  10.931   6.762   8.875  0.1274 -0.1294  0.3348
  210loPI   C4B 3360  10.779   6.482   8.534  0.1406  0.1601  0.1199
  211loPI    C1 3361  14.706   4.607  10.259  0.0241  0.4254  0.0673
  211loPI    C2 3362  14.792   4.482  10.629 -0.0255 -0.0288 -0.0690
  211loPI    C3 3363  14.417   4.458  10.492 -0.0072  0.1370 -0.1509
  211loPI   PO4 3364  14.730   4.934  10.206  0.1608 -0.0462  0.1443
  211loPI   GL1 3365  14.690   4.954   9.855  0.0660 -0.0074  0.2276
  211loPI   GL2 3366  14.493   5.088   9.603 -0.1751 -0.0613  0.0504
  211loPI   C1A 3367  15.016   4.904   9.520  0.0607 -0.2996 -0.0603
  211loPI   C2A 3368  15.415   4.916   9.308 -0.1648 -0.0593  0.1943
  211loPI   C3A 3369  15.417   4.840   8.861 -0.1811  0.2642  0.3064
  211loPI   C4A 3370  15.420   4.809   8.492 -0.0466  0.0556 -0.1889
  211loPI   C5A 3371  15.620   5.070   8.321 -0.1573 -0.1214  0.0970
  211loPI   C6A 3372  15.809   5.008   7.978  0.0603  0.3395  0.0149
  211loPI   C1B 3373  14.580   5.059   9.167 -0.2527  0.1606 -0.2990
  211loPI   C2B 3374  14.433   4.813   8.782  0.2611  0.1047  0.2713
  211loPI   C3B 3375  14.596   4.531   8.620 -0.0931 -0.2609  0.0059
  211loPI   C4B 3376  14.794   4.569   8.223  0.0323  0.2866  0.0164
  212loPI    C1 3377  15.734   1.235   9.941 -0.1290  0.1510 -0.0618
  212loPI    C2 3378  15.496   1.032  10.190  0.0231 -0.0997 -0.1168
  212loPI    C3 3379  15.405   1.055   9.801 -0.0781  0.0750 -0.0841
  212loPI   PO4 3380  15.967   1.055  10.061 -0.0275 -0.2244 -0.0579
  212loPI   GL1 3381  16.229   1.013   9.707  0.0256 -0.0752  0.2332
  212loPI   GL2 3382  16.181   1.295   9.525  0.2339  0.0104  0.4806
  212loPI   C1A 3383  16.007   0.802   9.337  0.1211 -0.1470  0.2741
  212loPI   C2A 3384  16.023   0.843   8.873  0.0797 -0.1168 -0.2182
  212loPI   C3A 3385  16.073   0.999   8.475 -0.2040  0.1863 -0.0483
  212loPI   C4A 3386  15.798   1.139   8.188  0.1816 -0.2151  0.3143
  212loPI   C5A 3387  15.631   1.273   7.818 -0.1468 -0.1614  0.4247
  212loPI   C6A 3388  15.721   1.344   7.339  0.0114 -0.2255  0.0484
  212loPI   C1B 3389  16.282   1.217   9.094 -0.2466 -0.2406  0.0458
  212loPI   C2B 3390  16.369   1.373   8.616 -0.2850 -0.0857 -0.0389
  212loPI   C3B 3391  16.267   1.294   8.169 -0.1024  0.0470  0.1393
  212loPI   C4B 3392  16.111   1.329   7.725 -0.2222  0.2738 -0.0351
  213loPI    C1 3393   9.354   6.003  10.376  0.0251  0.3242  0.1463
  213loPI    C2 3394   9.643   5.984  10.100 -0.1036  0.0570  0.0270
  213loPI    C3 3395   9.673   5.770  10.437 -0.2445 -0.1121 -0.0665
  213loPI   PO4 3396   9.112   6.062  10.259  0.1234 -0.2169  0.0551
  213loPI   GL1 3397   9.204   6.015   9.822 -0.4555  0.1049 -0.1016
  213loPI   GL2 3398   8.994   5.912   9.797 -0.0598  0.1477  0.0228
  213loPI   C1A 3399   9.587   6.108   9.596  0.1920 -0.0570 -0.0087
  213loPI   C2A 3400   9.716   6.160   9.226 -0.0194 -0.2070  0.1908
  213loPI   C3A 3401   9.609   6.552   8.962  0.3302 -0.0039  0.0261
  213loPI   C4A 3402   9.412   6.719   8.697  0.2269 -0.0711 -0.0209
  213loPI   C5A 3403   9.016   6.528   8.533 -0.1447  0.1736 -0.0531
  213loPI   C6A 3404   8.653   6.287   8.792 -0.1301 -0.2239  0.2172
  213loPI   C1B 3405   9.100   5.994   9.322 -0.2442 -0.0795 -0.3039
  213loPI   C2B 3406   8.981   5.871   8.870  0.0614  0.0178  0.1234
  213loPI   C3B 3407   8.959   5.984   8.474 -0.2150 -0.0151  0.0779
  213loPI   C4B 3408   8.707   6.219   8.241 -0.1155 -0.0137 -0.0889
  214loPI    C1 3409  13.914   2.198  10.465  0.1659 -0.0519  0.1207
  214loPI    C2 3410  13.773   1.824  10.445 -0.0809  0.0487 -0.0801
  214loPI    C3 3411  13.956   1.952  10.777 -0.2695 -0.1542  0.1050
  214loPI   PO4 3412  13.928   2.184  10.178 -0.0023  0.6798  0.1223
  214loPI   GL1 3413  14.033   2.189   9.745  0.1304 -0.2027 -0.0310
  214loPI   GL2 3414  14.278   2.471   9.874 -0.2127 -0.1226 -0.0301
  214loPI   C1A 3415  13.814   2.101   9.392 -0.1398  0.0982 -0.3449
  214loPI   C2A 3416  13.921   2.149   8.970 -0.0264  0.0310 -0.2698
  214loPI   C3A 3417  13.957   2.239   8.590 -0.1801  0.1025 -0.3508
  214loPI   C4A 3418  14.040   2.253   8.163 -0.1798  0.2210  0.0882
  214loPI   C5A 3419  14.086   2.424   7.846 -0.1703 -0.0315 -0.2934
  214loPI   C6A 3420  13.895   2.162   7.524  0.0084  0.2213 -0.2889
  214loPI   C1B 3421  14.272   2.377   9.361 -0.1704  0.1582 -0.1562
  214loPI   C2B 3422  14.353   2.477   8.943 -0.1945 -0.0180 -0.1125
  214loPI   C3B 3423  14.358   2.566   8.493  0.1913  0.0162 -0.0083
  214loPI   C4B 3424  14.559   2.371   8.095 -0.0432  0.2076 -0.1465
  215loPI    C1 3425   1.158  13.128  10.565 -0.2681 -0.0004  0.0210
  215loPI    C2 3426   1.372  13.016  10.884 -0.0499  0.1776 -0.0602
  215loPI    C3 3427   0.994  13.137  10.930 -0.1745 -0.2454  0.0707
  215loPI   PO4 3428   1.175  12.946  10.326 -0.2286 -0.1651 -0.1335
  215loPI   GL1 3429   1.275  13.025   9.793 -0.0687 -0.2455 -0.0779
  215loPI   GL2 3430   0.990  12.950   9.872  0.1012  0.1135 -0.2645
  215loPI   C1A 3431   1.144  12.984   9.276 -0.0509 -0.1787 -0.0544
  215loPI   C2A 3432   1.218  12.899   8.913  0.3595 -0.0130  0.0242
  215loPI   C3A 3433   1.336  12.967   8.475  0.0225  0.0359  0.0932
  215loPI   C4A 3434   1.442  12.987   7.975 -0.2980  0.0176  0.2574
  215loPI   C5A 3435   1.452  13.270   7.721 -0.0378  0.2300 -0.1502
  215loPI   C6A 3436   1.765  13.576   7.480  0.3395  0.1768 -0.0949
  215loPI   C1B 3437   0.673  12.808   9.523 -0.3756 -0.0055 -0.3672
  215loPI   C2B 3438   0.532  12.878   9.106  0.1462 -0.2156 -0.2423
  215loPI   C3B 3439   0.657  12.941   8.709 -0.1709 -0.1929  0.2201
  215loPI   C4B 3440   0.733  12.907   8.231  0.0490  0.1950 -0.4200
  216loPI    C1 3441   5.929   3.336  10.377  0.0637  0.2178  0.1830
  216loPI    C2 3442   5.805   2.975  10.497 -0.2022  0.1918 -0.1539
  216loPI    C3 3443   5.941   3.239  10.765  0.2576 -0.2514  0.0672
  216loPI   PO4 3444   5.762   3.425  10.178  0.0728 -0.0357  0.2377
  216loPI   GL1 3445   5.693   3.418   9.795 -0.2972 -0.0352 -0.0387
  216loPI   GL2 3446   5.905   3.698   9.783  0.0406 -0.2920 -0.2776
  216loPI   C1A 3447   5.516   3.282   9.326  0.2285 -0.1510  0.0070
  216loPI   C2A 3448   5.684   3.349   8.975 -0.0325  0.1000  0.0071
  216loPI   C3A 3449   5.677   3.446   8.544  0.1255 -0.0488  0.1053
  216loPI   C4A 3450   5.371   3.504   8.341  0.2843 -0.2603 -0.2827
  216loPI   C5A 3451   5.184   3.725   7.979 -0.0425 -0.2352 -0.0794
  216loPI   C6A 3452   5.320   3.961   7.636  0.1838  0.1125  0.0870
  216loPI   C1B 3453   5.859   3.623   9.354  0.1542 -0.2864  0.1899
  216loPI   C2B 3454   5.521   3.751   9.164  0.3374  0.2544 -0.0383
  216loPI   C3B 3455   5.353   3.777   8.801  0.0302 -0.2880  0.2926
  216loPI   C4B 3456   5.135   3.979   8.418  0.0081  0.0188  0.0201
  217loPI    C1 3457   4.110   8.436  10.496  0.1290  0.1972 -0.0319
  217loPI    C2 3458   4.448   8.434  10.710  0.0483  0.2152  0.0970
  217loPI    C3 3459   4.169   8.712  10.780 -0.1088  0.0399  0.1750
  217loPI   PO4 3460   4.152   8.478  10.220  0.3116  0.1395  0.1191
  217loPI   GL1 3461   3.868   8.461   9.962 -0.0703 -0.1710  0.1577
  217loPI   GL2 3462   3.704   8.196   9.865 -0.0627  0.1637  0.0353
  217loPI   C1A 3463   3.946   8.746   9.605 -0.0484  0.0868 -0.0536
  217loPI   C2A 3464   4.001   9.052   9.284 -0.0583 -0.4513 -0.1046
  217loPI   C3A 3465   4.112   9.158   8.841  0.0909 -0.2527 -0.0878
  217loPI   C4A 3466   4.137   9.056   8.446  0.1825 -0.1744  0.2626
  217loPI   C5A 3467   3.810   9.116   8.144 -0.0857 -0.0670  0.0641
  217loPI   C6A 3468   3.903   9.300   7.688  0.1078  0.1568 -0.1726
  217loPI   C1B 3469   3.657   8.258   9.440  0.0748 -0.0844  0.0227
  217loPI   C2B 3470   3.741   8.623   9.177 -0.1279  0.0174 -0.1017
  217loPI   C3B 3471   3.828   8.823   8.838 -0.1357  0.0573  0.1064
  217loPI   C4B 3472   3.614   8.927   8.575  0.3931 -0.2043  0.0685
  218loPI    C1 3473   9.963   3.133  10.480  0.0492 -0.2155  0.0611
  218loPI    C2 3474   9.732   3.431  10.615  0.2171 -0.0135 -0.0909
  218loPI    C3 3475   9.945   3.211  10.872 -0.2926 -0.3325  0.0715
  218loPI   PO4 3476  10.021   3.274  10.160 -0.0545 -0.2655 -0.1667
  218loPI   GL1 3477  10.029   3.628   9.891 -0.1015 -0.1128  0.1393
  218loPI   GL2 3478   9.852   3.443   9.732 -0.2430  0.1350 -0.0213
  218loPI   C1A 3479  10.053   3.763   9.508 -0.1486  0.0814 -0.1073
  218loPI   C2A 3480  10.040   3.766   9.080  0.1891  0.0004  0.1975
  218loPI   C3A 3481  10.020   3.696   8.644 -0.1636  0.0862 -0.1100
  218loPI   C4A 3482   9.935   3.844   8.189  0.0880 -0.0032 -0.0999
  218loPI   C5A 3483   9.803   4.050   7.776 -0.0287 -0.0772 -0.1752
  218loPI   C6A 3484   9.393   4.268   7.734 -0.0477  0.3371 -0.1004
  218loPI   C1B 3485   9.733   3.464   9.272 -0.0735 -0.2391 -0.3904
  218loPI   C2B 3486   9.641   3.439   8.849  0.2017 -0.0397  0.0765
  218loPI   C3B 3487   9.392   3.527   8.550  0.2552 -0.1432  0.2550
  218loPI   C4B 3488   9.116   3.504   8.209  0.1101  0.1335 -0.0910
  219loPI    C1 3489   5.371  14.745   9.861  0.3143  0.2914  0.1724
  219loPI    C2 3490   5.304  14.601  10.228 -0.0492  0.0514  0.0183
  219loPI    C3 3491   5.580  14.431   9.993  0.0078  0.0465  0.0889
  219loPI   PO4 3492   5.118  14.775   9.786  0.3626 -0.1557  0.1282
  219loPI   GL1 3493   5.022  14.931   9.435 -0.1820  0.1937 -0.0869
  219loPI   GL2 3494   4.859  15.178   9.465  0.2597  0.0589  0.0216
  219loPI   C1A 3495   4.919  14.797   9.103 -0.4172 -0.3058 -0.2301
  219loPI   C2A 3496   4.691  14.638   8.774  0.0784 -0.2146 -0.3000
  219loPI   C3A 3497   4.451  14.817   8.388  0.1510  0.1369  0.1052
  219loPI   C4A 3498   4.136  14.820   8.060  0.3804 -0.2369  0.2041
  219loPI   C5A 3499   4.128  14.347   7.876  0.4100 -0.2775 -0.0897
  219loPI   C6A 3500   3.954  13.928   7.681  0.3609 -0.0384 -0.0577
  219loPI   C1B 3501   5.309  15.291   9.226 -0.1650  0.1167  0.0571
  219loPI   C2B 3502   5.462  15.180   8.836  0.0128 -0.3121  0.2849
  219loPI   C3B 3503   5.769  14.900   8.680  0.1366  0.3236  0.0922
  219loPI   C4B 3504   6.028  14.899   8.296  0.2090  0.1258  0.1398
  220loPI    C1 3505   1.548  13.762  10.073  0.1744  0.1678  0.0150
  220loPI    C2 3506   1.251  14.029  10.100  0.0433  0.0199  0.0502
  220loPI    C3 3507   1.436  13.901  10.431 -0.2512 -0.3285  0.0864
  220loPI   PO4 3508   1.652  13.830   9.874  0.2299 -0.0656  0.5229
  220loPI   GL1 3509   1.531  13.874   9.518  0.0587  0.0573 -0.0483
  220loPI   GL2 3510   1.621  14.246   9.593  0.3952 -0.3361 -0.0243
  220loPI   C1A 3511   1.507  13.860   9.183 -0.2343 -0.0025 -0.0366
  220loPI   C2A 3512   1.117  13.797   8.807  0.1754 -0.0282 -0.1124
  220loPI   C3A 3513   0.973  13.834   8.420 -0.0796 -0.0024  0.2568
  220loPI   C4A 3514   1.070  13.945   7.951 -0.2094  0.2345 -0.1249
  220loPI   C5A 3515   1.441  14.204   7.599  0.2202 -0.0361 -0.0347
  220loPI   C6A 3516   1.788  14.492   7.508  0.1533  0.1600 -0.1555
  220loPI   C1B 3517   1.556  14.352   9.076 -0.2313 -0.1402 -0.0493
  220loPI   C2B 3518   1.672  14.590   8.750  0.2687 -0.0001  0.1157
  220loPI   C3B 3519   1.669  14.630   8.275 -0.2967 -0.3819  0.2266
  220loPI   C4B 3520   1.593  14.821   7.908 -0.1937 -0.3406 -0.2597
  221loPI    C1 3521  13.683   0.736  10.126  0.1849  0.1344  0.0296
  221loPI    C2 3522  13.480   0.992  10.356 -0.0708 -0.0118 -0.0302
  221loPI    C3 3523  13.665   0.678  10.521  0.1775  0.1651  0.0338
  221loPI   PO4 3524  13.781   0.904   9.922 -0.1362 -0.2663 -0.0133
  221loPI   GL1 3525  14.022   0.890   9.606  0.0888  0.1717  0.0775
  221loPI   GL2 3526  14.248   1.234   9.826  0.0883  0.3249 -0.0075
  221loPI   C1A 3527  14.117   0.794   9.150 -0.0997  0.2943 -0.0874
  221loPI   C2A 3528  14.422   0.959   8.911  0.0415  0.3003 -0.2086
  221loPI   C3A 3529  14.788   0.906   8.620  0.0875  0.2303 -0.1517
  221loPI   C4A 3530  14.951   0.812   8.172  0.0085  0.2683  0.0128
  221loPI   C5A 3531  15.366   0.873   7.965  0.0735 -0.2699 -0.0556
  221loPI   C6A 3532  15.692   0.741   7.990 -0.4733  0.2940 -0.1885
  221loPI   C1B 3533  14.187   1.619   9.649 -0.0379 -0.3429 -0.0445
  221loPI   C2B 3534  14.452   1.900   9.440 -0.0168  0.1191 -0.3933
  221loPI   C3B 3535  14.439   1.984   9.012 -0.1436 -0.3458  0.1130
  221loPI   C4B 3536  14.472   2.059   8.472  0.1573  0.0009 -0.2598
  222loPI    C1 3537  16.534   6.783  10.459  0.1356  0.0922 -0.2151
  222loPI    C2 3538  16.804   6.967  10.691  0.0538 -0.0105 -0.0366
  222loPI    C3 3539  16.559   7.182  10.460  0.0373  0.1001  0.0829
  222loPI   PO4 3540  16.638   6.591  10.374 -0.2291 -0.1008  0.0239
  222loPI   GL1 3541  16.667   6.205  10.017  0.0579 -0.2697 -0.1420
  222loPI   GL2 3542  16.370   6.395  10.004 -0.1658 -0.0108  0.2650
  222loPI   C1A 3543  16.838   6.067   9.761 -0.0393 -0.0274  0.1758
  222loPI   C2A 3544  16.932   6.138   9.344 -0.3262  0.1848  0.1967
  222loPI   C3A 3545  16.784   6.377   9.053  0.2342  0.1521 -0.1815
  222loPI   C4A 3546  16.695   6.634   8.735  0.0021 -0.3976 -0.0757
  222loPI   C5A 3547  16.594   6.498   8.353 -0.2684  0.2793 -0.0522
  222loPI   C6A 3548  16.563   6.031   8.211 -0.0720  0.1498 -0.1232
  222loPI   C1B 3549  16.548   6.530   9.578  0.2246 -0.0700  0.0784
  222loPI   C2B 3550  16.271   6.591   9.153  0.0795 -0.3412  0.2311
  222loPI   C3B 3551  16.222   6.560   8.708  0.2954  0.3377 -0.0507
  222loPI   C4B 3552  16.017   6.349   8.401  0.0392  0.0914 -0.1045
  223loPI    C1 3553   0.043  16.676  10.662 -0.1585 -0.1799 -0.0592
  223loPI    C2 3554   0.057  16.305  10.811  0.2037 -0.1363  0.0240
  223loPI    C3 3555   0.186  16.614  11.030  0.0611  0.0192 -0.1085
  223loPI   PO4 3556  -0.159  16.609  10.443  0.1211  0.0607 -0.0544
  223loPI   GL1 3557  -0.092  16.522   9.981 -0.0058  0.2844 -0.6123
  223loPI   GL2 3558   0.205  16.516   9.854 -0.1934  0.2662 -0.1984
  223loPI   C1A 3559  -0.104  16.671   9.510  0.2087 -0.2126  0.2288
  223loPI   C2A 3560  -0.495  16.554   9.261 -0.0977  0.1554 -0.0303
  223loPI   C3A 3561  -0.943  16.688   9.216 -0.2208  0.0514  0.1174
  223loPI   C4A 3562  -1.134  16.751   8.833 -0.0369 -0.2205 -0.1006
  223loPI   C5A 3563  -1.163  16.925   8.438  0.0095  0.4385  0.1903
  223loPI   C6A 3564  -1.098  16.927   8.011 -0.4070  0.1419 -0.3225
  223loPI   C1B 3565   0.339  16.401   9.404  0.4802 -0.3193  0.1283
  223loPI   C2B 3566   0.388  16.559   8.997  0.3893 -0.3037  0.0776
  223loPI   C3B 3567   0.212  16.775   8.748  0.4355 -0.0240  0.2188
  223loPI   C4B 3568   0.259  17.039   8.434 -0.1983  0.0796 -0.0929
  224loPI    C1 3569  18.610  15.188  10.512 -0.0303  0.1014 -0.0687
  224loPI    C2 3570  18.587  15.413  10.842  0.2065  0.0246  0.0020
  224loPI    C3 3571  18.940  15.360  10.660  0.1226 -0.1497 -0.1120
  224loPI   PO4 3572  18.463  15.298  10.342  0.0851 -0.0138  0.1139
  224loPI   GL1 3573  18.188  15.008  10.103 -0.1196 -0.0833 -0.0945
  224loPI   GL2 3574  18.491  14.888  10.091  0.1577 -0.0559 -0.0215
  224loPI   C1A 3575  18.171  14.851   9.691 -0.0335 -0.0749 -0.0038
  224loPI   C2A 3576  17.970  14.724   9.338 -0.0788 -0.2146  0.2171
  224loPI   C3A 3577  17.885  14.561   8.994 -0.2552 -0.0182  0.0047
  224loPI   C4A 3578  17.813  14.611   8.529 -0.0761  0.0176  0.2305
  224loPI   C5A 3579  17.796  14.721   8.096  0.2368 -0.3068  0.0529
  224loPI   C6A 3580  17.984  15.017   7.744  0.0611  0.1726  0.2365
  224loPI   C1B 3581  18.752  14.959   9.793 -0.0504  0.1056  0.1614
  224loPI   C2B 3582  18.572  14.896   9.391  0.1634 -0.0290  0.0042
  224loPI   C3B 3583  18.453  15.041   8.989 -0.2089  0.0807  0.1893
  224loPI   C4B 3584  18.345  15.200   8.528  0.1773  0.0047  0.1046
  225loPI    C1 3585  15.371   2.453  10.257  0.0504  0.0022  0.1391
  225loPI    C2 3586  14.996   2.351  10.353 -0.0770  0.1907 -0.1468
  225loPI    C3 3587  15.255   2.071  10.234 -0.1252  0.0596  0.0527
  225loPI   PO4 3588  15.326   2.702  10.231  0.1613 -0.2098  0.1873
  225loPI   GL1 3589  15.391   2.963   9.929  0.1116  0.1150 -0.4800
  225loPI   GL2 3590  15.582   3.126   9.763 -0.2065  0.0605 -0.1884
  225loPI   C1A 3591  15.591   2.629   9.630 -0.2217  0.0746 -0.2724
  225loPI   C2A 3592  15.804   2.536   9.277  0.1731  0.1829  0.0773
  225loPI   C3A 3593  15.746   2.550   8.832 -0.0563 -0.2226 -0.1433
  225loPI   C4A 3594  15.649   2.505   8.401 -0.0084  0.0092  0.0623
  225loPI   C5A 3595  15.977   2.379   8.081  0.0429 -0.1009 -0.0600
  225loPI   C6A 3596  15.860   2.171   7.708  0.1408  0.2894  0.0865
  225loPI   C1B 3597  15.592   3.013   9.303 -0.3352  0.2211 -0.0106
  225loPI   C2B 3598  15.836   3.087   8.821  0.1113  0.2829  0.3470
  225loPI   C3B 3599  16.145   3.208   8.588  0.1158 -0.2093 -0.2947
  225loPI   C4B 3600  16.394   3.064   8.349 -0.0798 -0.0229  0.0345
  226loPI    C1 3601   4.399   5.859  10.441 -0.0336  0.0215 -0.0313
  226loPI    C2 3602   4.565   6.203  10.560 -0.1963  0.1732 -0.2347
  226loPI    C3 3603   4.790   5.874  10.523 -0.0382  0.2581 -0.0462
  226loPI   PO4 3604   4.261   5.938  10.114  0.1340  0.2562  0.0239
  226loPI   GL1 3605   4.395   5.874   9.681 -0.1380  0.2085  0.2320
  226loPI   GL2 3606   4.081   5.954   9.619 -0.2304  0.1894 -0.1470
  226loPI   C1A 3607   4.412   5.593   9.241 -0.0454 -0.3175 -0.1458
  226loPI   C2A 3608   4.355   5.571   8.830 -0.1291 -0.1044  0.2881
  226loPI   C3A 3609   4.511   5.669   8.461  0.2421  0.1643  0.2838
  226loPI   C4A 3610   4.620   5.875   8.154 -0.0574 -0.2311  0.1694
  226loPI   C5A 3611   4.825   6.022   7.942 -0.0390  0.3850 -0.2524
  226loPI   C6A 3612   5.258   6.118   7.879  0.1760 -0.2884 -0.1550
  226loPI   C1B 3613   3.998   5.974   9.167  0.0483  0.0210 -0.1048
  226loPI   C2B 3614   3.805   5.927   8.741  0.3291 -0.2681  0.0704
  226loPI   C3B 3615   3.803   5.963   8.266 -0.0930 -0.1197 -0.4075
  226loPI   C4B 3616   3.614   5.953   7.874  0.3103 -0.0299 -0.1221
  227loPI    C1 3617  16.903   2.696  10.398  0.3915 -0.1151  0.1786
  227loPI    C2 3618  16.831   3.088  10.434 -0.0327 -0.1716 -0.0023
  227loPI    C3 3619  16.720   2.837  10.725  0.1350 -0.1722  0.0620
  227loPI   PO4 3620  16.926   2.669  10.183  0.0206 -0.2013 -0.0088
  227loPI   GL1 3621  17.225   2.916   9.963  0.1430  0.2149 -0.0551
  227loPI   GL2 3622  17.471   3.031   9.780  0.1700 -0.0917 -0.1479
  227loPI   C1A 3623  17.227   2.715   9.549  0.0756  0.2006 -0.4785
  227loPI   C2A 3624  17.332   2.651   9.122  0.0914 -0.4784 -0.2829
  227loPI   C3A 3625  17.474   2.877   8.788  0.3119  0.1060  0.1502
  227loPI   C4A 3626  17.330   2.991   8.403 -0.0395  0.2331  0.0077
  227loPI   C5A 3627  17.155   3.385   8.195 -0.1889 -0.0685  0.1320
  227loPI   C6A 3628  16.692   3.380   7.923 -0.1611 -0.2056  0.0815
  227loPI   C1B 3629  17.552   3.075   9.277 -0.0692  0.1111 -0.3266
  227loPI   C2B 3630  17.785   3.295   8.914 -0.0037  0.0784  0.0602
  227loPI   C3B 3631  18.096   3.480   8.683  0.1945  0.0720  0.1526
  227loPI   C4B 3632  18.230   3.481   8.268  0.1414  0.4083  0.0448
  228loPI    C1 3633   0.728  10.958  10.298  0.1626  0.0614 -0.1202
  228loPI    C2 3634   1.037  10.815  10.089  0.2210 -0.0980  0.0725
  228loPI    C3 3635   1.101  11.023  10.425  0.1291  0.1985 -0.0901
  228loPI   PO4 3636   0.612  11.118  10.165 -0.0634 -0.0663  0.1020
  228loPI   GL1 3637   0.569  11.189   9.792  0.1495  0.0764 -0.0004
  228loPI   GL2 3638   0.427  11.279   9.652 -0.1306  0.1592 -0.0314
  228loPI   C1A 3639   0.709  10.966   9.387 -0.2784 -0.1761  0.0990
  228loPI   C2A 3640   0.725  10.777   9.057 -0.0349  0.0526  0.0540
  228loPI   C3A 3641   0.577  10.589   8.729 -0.1821 -0.0485  0.1213
  228loPI   C4A 3642   0.528  10.568   8.269  0.0379  0.0767  0.4415
  228loPI   C5A 3643   0.378  10.526   7.840 -0.2087  0.2502  0.2670
  228loPI   C6A 3644   0.495  10.444   7.473 -0.0908  0.1938  0.0039
  228loPI   C1B 3645   0.268  11.112   9.256  0.1500  0.0177 -0.1717
  228loPI   C2B 3646   0.222  10.979   8.893 -0.1276 -0.2014 -0.0261
  228loPI   C3B 3647   0.210  11.069   8.442  0.0983  0.0224  0.0163
  228loPI   C4B 3648   0.102  10.850   8.059 -0.1274  0.1768 -0.0921
  229loPI    C1 3649  15.545   6.602  10.420 -0.0536  0.1579  0.0630
  229loPI    C2 3650  15.396   6.656  10.787  0.1460 -0.0915  0.1829
  229loPI    C3 3651  15.756   6.488  10.740  0.0052 -0.3129 -0.1364
  229loPI   PO4 3652  15.583   6.789  10.232 -0.1786  0.1165 -0.2094
  229loPI   GL1 3653  15.835   6.977  10.080 -0.3498 -0.2814  0.0926
  229loPI   GL2 3654  15.840   7.249   9.887 -0.2369 -0.0082  0.0389
  229loPI   C1A 3655  15.738   6.842   9.615 -0.0480 -0.1433  0.1108
  229loPI   C2A 3656  15.829   6.723   9.186 -0.1982  0.2570  0.1026
  229loPI   C3A 3657  15.781   6.764   8.711  0.0266 -0.2107  0.1313
  229loPI   C4A 3658  15.600   6.696   8.291  0.1975 -0.1568 -0.1997
  229loPI   C5A 3659  15.636   7.075   8.012  0.0376 -0.0343 -0.0396
  229loPI   C6A 3660  15.301   7.229   7.707  0.1356 -0.1006 -0.0312
  229loPI   C1B 3661  15.940   7.514   9.600  0.1124 -0.1331 -0.0184
  229loPI   C2B 3662  15.901   7.589   9.239  0.0902 -0.2733  0.1192
  229loPI   C3B 3663  15.944   7.836   8.854  0.2870  0.1118 -0.0726
  229loPI   C4B 3664  15.875   7.950   8.576  0.3206 -0.1757 -0.0815
  230loPI    C1 3665  14.589   7.143  10.503 -0.1401  0.0745 -0.2251
  230loPI    C2 3666  14.662   7.204  10.892  0.0607 -0.0528 -0.2411
  230loPI    C3 3667  14.466   7.481  10.679 -0.1816 -0.0477 -0.0169
  230loPI   PO4 3668  14.669   6.902  10.403 -0.0376  0.0113 -0.0349
  230loPI   GL1 3669  14.706   6.806  10.022  0.0405 -0.2379 -0.2090
  230loPI   GL2 3670  14.367   6.972   9.972  0.1894 -0.1013 -0.0065
  230loPI   C1A 3671  14.513   6.689   9.568 -0.1326 -0.2909 -0.3210
  230loPI   C2A 3672  14.390   6.583   9.089 -0.0890 -0.2078  0.5693
  230loPI   C3A 3673  14.243   6.349   8.705 -0.3814  0.0131  0.0552
  230loPI   C4A 3674  14.239   6.343   8.252  0.1940  0.2734  0.3036
  230loPI   C5A 3675  14.375   5.903   8.210  0.3257  0.0848  0.0105
  230loPI   C6A 3676  14.435   5.503   7.953  0.3205 -0.1572  0.0947
  230loPI   C1B 3677  14.035   6.930   9.682 -0.4008 -0.2224  0.1248
  230loPI   C2B 3678  13.996   7.416   9.540 -0.1080  0.0294  0.0295
  230loPI   C3B 3679  13.908   7.573   9.164 -0.1886 -0.2482  0.1058
  230loPI   C4B 3680  14.106   7.747   8.877  0.1428 -0.2306 -0.0033
  231loPI    C1 3681  10.242   6.521  10.592 -0.1552 -0.1346 -0.0016
  231loPI    C2 3682  10.088   6.852  10.755  0.1730 -0.1246  0.3005
  231loPI    C3 3683   9.984   6.492  10.896  0.0063 -0.1419  0.1367
  231loPI   PO4 3684  10.286   6.590  10.228 -0.1191  0.0510  0.0627
  231loPI   GL1 3685  10.455   6.553   9.883  0.0438 -0.4041  0.2173
  231loPI   GL2 3686  10.250   6.350   9.684 -0.0297 -0.1883 -0.2710
  231loPI   C1A 3687  10.786   6.224   9.716 -0.4588 -0.0148 -0.2797
  231loPI   C2A 3688  10.864   5.886   9.424  0.0414 -0.2505 -0.1421
  231loPI   C3A 3689  10.908   5.670   9.091 -0.1665 -0.3107  0.0949
  231loPI   C4A 3690  10.774   5.270   8.825 -0.4719  0.3040 -0.3804
  231loPI   C5A 3691  11.064   5.367   8.450 -0.1305 -0.1688 -0.0699
  231loPI   C6A 3692  11.407   5.069   8.362  0.1300 -0.0546  0.0064
  231loPI   C1B 3693  10.313   6.063   9.284  0.0765  0.0834 -0.3631
  231loPI   C2B 3694  10.435   5.956   8.905 -0.0007 -0.2483 -0.0554
  231loPI   C3B 3695  10.221   5.765   8.571 -0.0494  0.0953  0.0397
  231loPI   C4B 3696  10.025   5.896   8.223 -0.0228  0.3637  0.0289
  232loPI    C1 3697   4.835  14.686  10.257 -0.0972 -0.0105  0.0825
  232loPI    C2 3698   4.563  14.521  10.499 -0.3361  0.0204 -0.1599
  232loPI    C3 3699   4.677  14.900  10.555 -0.0325 -0.1159  0.1938
  232loPI   PO4 3700   4.705  14.611   9.936  0.0478  0.1646  0.2877
  232loPI   GL1 3701   4.745  14.556   9.514 -0.0331 -0.1588  0.0381
  232loPI   GL2 3702   5.083  14.460   9.370 -0.0462  0.2772  0.1122
  232loPI   C1A 3703   4.684  14.297   9.157  0.2008  0.0157 -0.1910
  232loPI   C2A 3704   4.453  14.167   8.811  0.0142 -0.1536 -0.1397
  232loPI   C3A 3705   4.496  14.339   8.378 -0.1142  0.2714 -0.1889
  232loPI   C4A 3706   4.608  14.438   7.957 -0.2358  0.1815  0.1053
  232loPI   C5A 3707   4.642  14.707   7.715 -0.0346 -0.0366 -0.2170
  232loPI   C6A 3708   4.937  14.965   7.404 -0.0098  0.1074  0.1047
  232loPI   C1B 3709   5.088  14.167   8.965 -0.1438 -0.3134 -0.0874
  232loPI   C2B 3710   5.012  14.007   8.595  0.1766 -0.2665 -0.0284
  232loPI   C3B 3711   4.892  14.090   8.170  0.1066  0.0549  0.1283
  232loPI   C4B 3712   5.083  14.526   7.929  0.1180  0.1191  0.1661
  233loPI    C1 3713   0.671   4.568  10.508 -0.1807 -0.0770  0.1431
  233loPI    C2 3714   1.022   4.385  10.561 -0.0736  0.1644  0.2883
  233loPI    C3 3715   0.737   4.354  10.840 -0.1023  0.1157  0.2538
  233loPI   PO4 3716   0.767   4.758  10.407 -0.0615  0.0954 -0.0588
  233loPI   GL1 3717   0.751   4.747  10.029 -0.0060  0.0457 -0.5298
  233loPI   GL2 3718   0.488   4.568  10.017  0.0975 -0.0222 -0.1946
  233loPI   C1A 3719   0.861   4.664   9.649 -0.1936 -0.0589  0.0980
  233loPI   C2A 3720   0.971   4.636   9.265 -0.2998  0.0252 -0.1095
  233loPI   C3A 3721   0.931   4.622   8.826 -0.2171  0.1244 -0.0986
  233loPI   C4A 3722   0.932   4.661   8.366 -0.0594 -0.2732  0.0971
  233loPI   C5A 3723   0.593   4.604   8.018  0.0335 -0.1137  0.0918
  233loPI   C6A 3724   0.260   4.606   8.052 -0.1279 -0.0871 -0.5134
  233loPI   C1B 3725   0.401   4.653   9.548 -0.0950 -0.1554  0.2809
  233loPI   C2B 3726   0.430   4.661   9.193 -0.2202 -0.3030 -0.1773
  233loPI   C3B 3727   0.483   4.370   8.985  0.1062 -0.1272  0.0166
  233loPI   C4B 3728   0.564   4.408   8.481  0.3575 -0.0478  0.1302
  234loPI    C1 3729  14.471   1.904   9.993  0.1122 -0.3931 -0.1183
  234loPI    C2 3730  14.360   1.920  10.377 -0.1810  0.4345 -0.2187
  234loPI    C3 3731  14.149   1.701  10.117 -0.0832  0.0093  0.0498
  234loPI   PO4 3732  14.667   2.127  10.042  0.6177 -0.1268 -0.0804
  234loPI   GL1 3733  14.920   2.277   9.819  0.0009  0.5966  0.0122
  234loPI   GL2 3734  15.138   2.474   9.810 -0.0852  0.1139  0.0142
  234loPI   C1A 3735  14.853   2.278   9.341 -0.0239 -0.1586 -0.4292
  234loPI   C2A 3736  14.979   2.329   8.926 -0.1347 -0.1787 -0.0279
  234loPI   C3A 3737  15.300   2.261   8.718 -0.1315 -0.3630  0.4102
  234loPI   C4A 3738  15.218   2.269   8.372  0.2745  0.2293 -0.2066
  234loPI   C5A 3739  14.959   2.057   8.052 -0.2952  0.0884 -0.1521
  234loPI   C6A 3740  14.989   1.863   7.588  0.0389  0.2167  0.3568
  234loPI   C1B 3741  15.301   2.189   9.551 -0.0414  0.2517  0.1122
  234loPI   C2B 3742  15.412   1.808   9.307 -0.1176  0.2204 -0.0853
  234loPI   C3B 3743  15.484   1.616   8.809 -0.0924  0.0188  0.0665
  234loPI   C4B 3744  15.503   1.707   8.474  0.1986 -0.0299  0.1399
  235loPI    C1 3745  17.632  11.544  10.688 -0.0355  0.1606 -0.0260
  235loPI    C2 3746  17.423  11.880  10.628 -0.0489  0.1443 -0.0715
  235loPI    C3 3747  17.265  11.582  10.843 -0.1020  0.1029 -0.1672
  235loPI   PO4 3748  17.806  11.485  10.512  0.2094  0.0463 -0.0759
  235loPI   GL1 3749  17.612  11.390  10.194 -0.0450 -0.3672  0.1809
  235loPI   GL2 3750  17.690  11.157   9.839  0.1542 -0.1669 -0.1118
  235loPI   C1A 3751  17.333  11.499   9.804 -0.0810 -0.0730 -0.1715
  235loPI   C2A 3752  17.161  11.661   9.497  0.0651 -0.2370 -0.1925
  235loPI   C3A 3753  17.177  11.837   9.085  0.1238  0.0083  0.1627
  235loPI   C4A 3754  17.427  11.789   8.695 -0.0322 -0.2247 -0.1178
  235loPI   C5A 3755  17.133  12.016   8.442  0.2519  0.3205 -0.0467
  235loPI   C6A 3756  16.787  12.260   8.554 -0.1137 -0.1859  0.2380
  235loPI   C1B 3757  17.706  11.380   9.413  0.2169 -0.0141  0.1531
  235loPI   C2B 3758  17.718  11.328   9.083  0.2276 -0.0471  0.3296
  235loPI   C3B 3759  17.897  11.164   8.710 -0.0618 -0.3140 -0.0826
  235loPI   C4B 3760  18.067  11.265   8.292  0.1407  0.3556  0.1242
  236loPI    C1 3761   2.616  14.037  10.152  0.0802  0.0385 -0.0912
  236loPI    C2 3762   2.849  13.818  10.393  0.0686 -0.0501 -0.1600
  236loPI    C3 3763   2.451  13.789  10.419  0.0547  0.3540  0.1937
  236loPI   PO4 3764   2.738  14.023   9.853  0.3208 -0.1664  0.3277
  236loPI   GL1 3765   2.962  13.908   9.504 -0.0296 -0.1336  0.3312
  236loPI   GL2 3766   3.142  13.624   9.370  0.2231 -0.2082  0.1547
  236loPI   C1A 3767   3.151  14.132   9.161  0.1565 -0.0675  0.2745
  236loPI   C2A 3768   3.363  14.116   8.818 -0.1637 -0.2280  0.1929
  236loPI   C3A 3769   3.430  14.042   8.366  0.0361 -0.3510  0.1827
  236loPI   C4A 3770   3.446  13.861   7.982 -0.1118 -0.1010  0.0557
  236loPI   C5A 3771   3.497  13.815   7.573  0.2364 -0.0140  0.0818
  236loPI   C6A 3772   3.715  13.782   7.117 -0.1317  0.4449 -0.2049
  236loPI   C1B 3773   2.933  13.567   9.051 -0.1163  0.5439  0.3468
  236loPI   C2B 3774   2.621  13.491   8.741 -0.0174 -0.2269  0.0650
  236loPI   C3B 3775   2.467  13.670   8.479 -0.4557 -0.0371 -0.1854
  236loPI   C4B 3776   2.049  13.773   8.313 -0.0555 -0.1088  0.0321
  237loPI    C1 3777  14.460   9.964  10.593  0.0342 -0.0599 -0.1953
  237loPI    C2 3778  14.629   9.603  10.561  0.2729  0.0257  0.0573
  237loPI    C3 3779  14.454   9.712  10.904 -0.2954 -0.0558 -0.1940
  237loPI   PO4 3780  14.555  10.157  10.430  0.1933 -0.1422  0.1008
  237loPI   GL1 3781  14.917   9.983  10.216 -0.1945 -0.2217  0.0884
  237loPI   GL2 3782  14.887   9.696  10.135  0.2388 -0.0153  0.0067
  237loPI   C1A 3783  15.025  10.356   9.952  0.0520 -0.0823  0.0696
  237loPI   C2A 3784  14.945  10.295   9.566 -0.1460  0.1690 -0.2752
  237loPI   C3A 3785  15.132  10.209   9.375  0.2173  0.0676  0.0512
  237loPI   C4A 3786  15.216  10.098   9.018  0.2338  0.0645 -0.4817
  237loPI   C5A 3787  15.247  10.173   8.690 -0.1490  0.0982 -0.3516
  237loPI   C6A 3788  15.025  10.213   8.279 -0.0770 -0.2118 -0.3212
  237loPI   C1B 3789  14.798   9.763   9.766 -0.1061  0.1569  0.0644
  237loPI   C2B 3790  14.693   9.883   9.458  0.0935  0.2271 -0.1593
  237loPI   C3B 3791  14.753   9.792   9.026  0.1047  0.1091 -0.1235
  237loPI   C4B 3792  14.834   9.875   8.649 -0.1374 -0.1358  0.3674
  238loPI    C1 3793   3.037  15.196  10.291  0.1877  0.1501 -0.1562
  238loPI    C2 3794   3.170  15.480  10.539 -0.0020  0.1899 -0.0985
  238loPI    C3 3795   2.936  15.187  10.678  0.1970  0.0012 -0.1567
  238loPI   PO4 3796   3.251  15.336  10.061 -0.1942  0.0264 -0.0802
  238loPI   GL1 3797   3.411  15.354   9.548  0.1098 -0.1333  0.0192
  238loPI   GL2 3798   3.356  15.089   9.629  0.2537  0.0228  0.2704
  238loPI   C1A 3799   2.999  15.301   9.275 -0.2420  0.0985  0.3324
  238loPI   C2A 3800   2.674  15.227   8.932  0.1029 -0.0363 -0.2178
  238loPI   C3A 3801   2.385  15.210   8.546 -0.3259  0.0891  0.1347
  238loPI   C4A 3802   2.368  15.215   8.062 -0.1369 -0.2402  0.1697
  238loPI   C5A 3803   2.568  14.882   7.778  0.1385 -0.2743  0.1049
  238loPI   C6A 3804   2.394  14.711   7.442  0.5264  0.1278 -0.3103
  238loPI   C1B 3805   3.543  14.934   9.341  0.1919  0.2542  0.0423
  238loPI   C2B 3806   3.872  14.963   9.023  0.2421  0.0309 -0.2745
  238loPI   C3B 3807   3.991  15.084   8.573  0.0725  0.2091 -0.1844
  238loPI   C4B 3808   4.136  15.174   8.362  0.0881  0.0926  0.2643
  239loPI    C1 3809   2.240   6.041  10.498 -0.0059  0.1243 -0.1788
  239loPI    C2 3810   2.069   6.306  10.745  0.0253 -0.0415  0.0242
  239loPI    C3 3811   2.468   6.279  10.724  0.0225 -0.0504 -0.0204
  239loPI   PO4 3812   2.021   6.087  10.299 -0.0546  0.0271  0.2235
  239loPI   GL1 3813   2.022   6.231   9.925 -0.3140 -0.1323 -0.0661
  239loPI   GL2 3814   1.735   6.353   9.887 -0.1970  0.1830  0.0549
  239loPI   C1A 3815   2.195   6.409   9.532  0.4251 -0.0889 -0.2871
  239loPI   C2A 3816   2.281   6.198   9.228  0.0605  0.3706  0.0261
  239loPI   C3A 3817   2.193   6.071   8.772 -0.0557 -0.1919  0.1936
  239loPI   C4A 3818   2.233   6.110   8.259 -0.2718  0.3278  0.1219
  239loPI   C5A 3819   1.924   5.965   7.968  0.2258 -0.1478  0.2249
  239loPI   C6A 3820   1.455   6.008   7.903  0.0640 -0.0771 -0.0273
  239loPI   C1B 3821   1.687   6.331   9.470 -0.2001 -0.1600 -0.2043
  239loPI   C2B 3822   1.773   6.283   8.995  0.0760 -0.1879 -0.2186
  239loPI   C3B 3823   1.790   6.079   8.535 -0.0078 -0.0131  0.1671
  239loPI   C4B 3824   1.661   6.374   8.188  0.2621 -0.1826 -0.1284
  240loPI    C1 3825  13.983  15.571  10.427 -0.2388 -0.0623  0.1076
  240loPI    C2 3826  14.016  15.936  10.588  0.1866 -0.0679  0.0445
  240loPI    C3 3827  14.187  15.622  10.767 -0.4090 -0.2902  0.2461
  240loPI   PO4 3828  14.061  15.577  10.148 -0.1726  0.0487  0.3287
  240loPI   GL1 3829  13.832  15.718   9.742 -0.1059  0.2938  0.1128
  240loPI   GL2 3830  13.673  15.448   9.755 -0.2321  0.1250  0.3195
  240loPI   C1A 3831  13.774  15.749   9.319  0.1540  0.0238 -0.2067
  240loPI   C2A 3832  13.971  15.791   8.852  0.3666  0.2870 -0.3743
  240loPI   C3A 3833  14.131  15.547   8.475 -0.4667  0.0083 -0.0732
  240loPI   C4A 3834  14.093  15.429   7.990 -0.1303 -0.0751  0.0281
  240loPI   C5A 3835  14.083  15.269   7.599 -0.0983 -0.0422 -0.0168
  240loPI   C6A 3836  14.457  15.052   7.555 -0.0031  0.3659 -0.2495
  240loPI   C1B 3837  13.776  15.242   9.351  0.0541  0.1409  0.0501
  240loPI   C2B 3838  13.911  15.211   8.786 -0.2361 -0.0780 -0.0717
  240loPI   C3B 3839  14.019  15.099   8.335 -0.0770  0.2213  0.1050
  240loPI   C4B 3840  14.419  14.976   8.046  0.0535 -0.3343  0.4185
  241loPI    C1 3841   0.091   5.563  10.760 -0.0696  0.0496  0.2245
  241loPI    C2 3842   0.371   5.706  11.007  0.3978 -0.0036 -0.2574
  241loPI    C3 3843   0.216   5.342  11.069  0.1912  0.1553  0.1969
  241loPI   PO4 3844  -0.009   5.719  10.554 -0.2128  0.1605  0.0308
  241loPI   GL1 3845   0.113   5.441  10.118 -0.0590 -0.2259  0.0250
  241loPI   GL2 3846  -0.161   5.260  10.061  0.1818 -0.0287  0.3357
  241loPI   C1A 3847   0.121   5.459   9.642  0.0862  0.1696  0.0208
  241loPI   C2A 3848   0.075   5.482   9.240 -0.1134 -0.3527 -0.2002
  241loPI   C3A 3849  -0.217   5.400   8.993 -0.3309 -0.0918  0.4430
  241loPI   C4A 3850  -0.574   5.405   8.696  0.2186  0.1386  0.0291
  241loPI   C5A 3851  -0.904   5.278   8.561 -0.2682 -0.0047  0.2175
  241loPI   C6A 3852  -1.252   5.287   8.365  0.0354 -0.3531  0.1672
  241loPI   C1B 3853  -0.508   5.251   9.829  0.2250 -0.2835 -0.1117
  241loPI   C2B 3854  -0.543   5.295   9.458  0.0934  0.2600  0.0643
  241loPI   C3B 3855  -0.730   5.216   9.095  0.3341 -0.1786 -0.3039
  241loPI   C4B 3856  -1.155   5.114   8.996 -0.0889 -0.1357 -0.0775
  242loPI    C1 3857  13.782  13.273  10.723  0.1732 -0.2075 -0.0648
  242loPI    C2 3858  13.573  12.933  10.750  0.0070 -0.0905  0.1649
  242loPI    C3 3859  13.425  13.271  10.903  0.2556  0.0475  0.1073
  242loPI   PO4 3860  13.809  13.266  10.335  0.1787  0.2339  0.0416
  242loPI   GL1 3861  14.188  13.232  10.038  0.1449  0.0500  0.1101
  242loPI   GL2 3862  14.139  13.467   9.979 -0.0800  0.1527 -0.2193
  242loPI   C1A 3863  14.218  12.907   9.719 -0.1130 -0.3452 -0.0119
  242loPI   C2A 3864  14.467  12.609   9.536  0.0692 -0.1814 -0.0864
  242loPI   C3A 3865  14.434  12.550   9.108  0.0156  0.3644  0.1099
  242loPI   C4A 3866  14.368  12.396   8.666  0.0156  0.1612 -0.0621
  242loPI   C5A 3867  14.069  12.359   8.381  0.0273 -0.1132 -0.3854
  242loPI   C6A 3868  13.923  12.148   8.101 -0.5321  0.3215 -0.4838
  242loPI   C1B 3869  14.106  13.453   9.573 -0.0853  0.1429  0.3121
  242loPI   C2B 3870  14.005  13.408   9.251 -0.4977 -0.0176 -0.3025
  242loPI   C3B 3871  13.905  13.332   8.833 -0.4201 -0.3057  0.2305
  242loPI   C4B 3872  13.912  13.096   8.499  0.0547  0.2344 -0.0642
  243loPI    C1 3873  11.316  12.830  10.438  0.0327 -0.2242 -0.0783
  243loPI    C2 3874  11.689  12.743  10.553  0.0870 -0.0667 -0.1323
  243loPI    C3 3875  11.443  12.935  10.803  0.1484  0.1201 -0.2139
  243loPI   PO4 3876  11.385  12.873  10.169  0.4217 -0.0110  0.2831
  243loPI   GL1 3877  11.240  12.850   9.754 -0.1016 -0.2874  0.1487
  243loPI   GL2 3878  11.037  13.174   9.615 -0.3763  0.0521  0.1088
  243loPI   C1A 3879  11.521  12.692   9.418  0.1966  0.0775  0.2356
  243loPI   C2A 3880  11.534  12.900   8.906 -0.2577 -0.1780  0.2291
  243loPI   C3A 3881  11.632  12.979   8.442 -0.1491 -0.3771 -0.0064
  243loPI   C4A 3882  11.978  13.043   8.150 -0.3093 -0.1834  0.2066
  243loPI   C5A 3883  12.396  12.978   7.928 -0.0065  0.1463  0.2589
  243loPI   C6A 3884  12.669  13.207   7.780 -0.0774 -0.0436  0.3036
  243loPI   C1B 3885  11.111  13.028   9.179 -0.3734  0.2501  0.0041
  243loPI   C2B 3886  11.082  12.888   8.738  0.2925 -0.0331 -0.0976
  243loPI   C3B 3887  11.111  13.046   8.364  0.1498 -0.0295  0.2599
  243loPI   C4B 3888  11.379  13.302   8.128  0.2344  0.0014  0.0346
  244loPI    C1 3889  12.396   5.809  10.436 -0.0278 -0.1876  0.1097
  244loPI    C2 3890  12.023   5.948  10.472 -0.0816 -0.2784 -0.0815
  244loPI    C3 3891  12.215   5.804  10.792 -0.1930 -0.1886  0.0267
  244loPI   PO4 3892  12.413   5.624  10.288  0.0239 -0.0165  0.0065
  244loPI   GL1 3893  12.313   5.589   9.885 -0.2398 -0.2821 -0.2140
  244loPI   GL2 3894  12.585   5.661   9.653 -0.0542  0.0439  0.3114
  244loPI   C1A 3895  12.125   5.959   9.606 -0.1920 -0.0347  0.0860
  244loPI   C2A 3896  11.986   6.099   9.278  0.1402 -0.1203 -0.3099
  244loPI   C3A 3897  12.142   6.175   8.805  0.2084 -0.3107  0.1007
  244loPI   C4A 3898  12.176   6.234   8.458  0.1876  0.0456  0.0725
  244loPI   C5A 3899  12.114   6.441   8.058 -0.0289  0.2598 -0.0467
  244loPI   C6A 3900  11.849   6.691   7.681  0.0091  0.0356 -0.2011
  244loPI   C1B 3901  12.347   5.606   9.234  0.2863 -0.2517 -0.0374
  244loPI   C2B 3902  12.305   5.366   8.753 -0.2286 -0.2737 -0.2135
  244loPI   C3B 3903  12.041   5.052   8.562  0.1151  0.1456 -0.1158
  244loPI   C4B 3904  11.829   4.831   8.191 -0.2070  0.1167 -0.1385
  245loPI    C1 3905   0.754  13.741  10.174 -0.0917 -0.0782 -0.0515
  245loPI    C2 3906   1.079  13.544  10.300 -0.1561 -0.1289  0.0369
  245loPI    C3 3907   0.756  13.568  10.535 -0.0828  0.2417  0.1054
  245loPI   PO4 3908   0.751  13.705   9.934  0.2094 -0.1513 -0.0559
  245loPI   GL1 3909   0.789  13.770   9.547  0.0297  0.2224 -0.2402
  245loPI   GL2 3910   1.052  13.712   9.357 -0.0916 -0.2015 -0.1875
  245loPI   C1A 3911   0.557  13.998   9.278  0.0014 -0.0939 -0.0317
  245loPI   C2A 3912   0.630  13.923   8.868  0.3358 -0.0454 -0.1475
  245loPI   C3A 3913   0.472  13.830   8.481  0.0323  0.1492 -0.0886
  245loPI   C4A 3914   0.398  13.905   7.997  0.0496  0.0898 -0.2031
  245loPI   C5A 3915   0.463  13.879   7.554  0.2252  0.3701  0.1783
  245loPI   C6A 3916   0.781  13.679   7.202 -0.1168  0.1875  0.3535
  245loPI   C1B 3917   1.066  14.150   9.190  0.1177 -0.0936 -0.1669
  245loPI   C2B 3918   1.096  14.289   8.762  0.1767  0.2721 -0.0414
  245loPI   C3B 3919   1.294  14.322   8.399 -0.1336  0.3293  0.0442
  245loPI   C4B 3920   1.158  14.433   7.985  0.2169 -0.0203 -0.0513
  246loPI    C1 3921   2.450   1.539  10.605 -0.1080 -0.2740  0.0170
  246loPI    C2 3922   2.800   1.677  10.741 -0.2038 -0.0337  0.0252
  246loPI    C3 3923   2.581   1.430  10.967  0.0403 -0.3275 -0.0517
  246loPI   PO4 3924   2.467   1.641  10.397 -0.2941  0.1202 -0.2062
  246loPI   GL1 3925   2.206   1.709  10.019  0.2832  0.0183 -0.1732
  246loPI   GL2 3926   2.196   1.471   9.809 -0.0522  0.0327 -0.1941
  246loPI   C1A 3927   2.087   1.946   9.707  0.2222 -0.2324 -0.2116
  246loPI   C2A 3928   1.688   2.026   9.361  0.2187  0.1182  0.0099
  246loPI   C3A 3929   1.776   1.944   8.918  0.1624 -0.0574  0.0268
  246loPI   C4A 3930   1.575   1.856   8.480 -0.1775 -0.0190  0.0049
  246loPI   C5A 3931   1.330   2.235   8.281 -0.0313  0.2262  0.2016
  246loPI   C6A 3932   1.230   2.289   7.882 -0.0986  0.0052 -0.0323
  246loPI   C1B 3933   2.156   1.291   9.459  0.0403  0.0580 -0.2722
  246loPI   C2B 3934   2.244   1.158   8.984  0.0966  0.0640 -0.1566
  246loPI   C3B 3935   2.249   1.173   8.601 -0.2257  0.1006  0.0608
  246loPI   C4B 3936   2.123   1.101   8.257 -0.1891  0.1981  0.2785
  247loPI    C1 3937  15.290   1.658  10.508 -0.2002  0.4187 -0.0027
  247loPI    C2 3938  15.529   1.481  10.775  0.1324  0.2485 -0.4026
  247loPI    C3 3939  15.136   1.506  10.844  0.1929  0.0814  0.0323
  247loPI   PO4 3940  15.369   1.541  10.213  0.0938  0.0595 -0.2758
  247loPI   GL1 3941  15.437   1.603   9.767  0.1080  0.2427  0.4353
  247loPI   GL2 3942  15.135   1.774   9.857 -0.0632 -0.1791  0.3664
  247loPI   C1A 3943  15.683   1.401   9.425  0.0443 -0.1347 -0.0283
  247loPI   C2A 3944  15.848   1.547   9.125 -0.4758  0.2843 -0.1223
  247loPI   C3A 3945  15.923   1.505   8.666  0.0127 -0.3808 -0.2013
  247loPI   C4A 3946  16.014   1.771   8.274  0.2472 -0.0949  0.1017
  247loPI   C5A 3947  16.150   1.834   7.911  0.1283 -0.0950  0.1753
  247loPI   C6A 3948  16.371   2.140   7.734  0.3759  0.2479  0.0283
  247loPI   C1B 3949  14.944   1.843   9.501  0.2655 -0.3229  0.0358
  247loPI   C2B 3950  14.958   1.783   9.020  0.0057  0.1929 -0.1565
  247loPI   C3B 3951  15.024   1.844   8.598  0.0222 -0.3845 -0.1249
  247loPI   C4B 3952  14.734   1.715   8.272 -0.1146 -0.2202 -0.2260
  248loPI    C1 3953  10.220   9.027  10.479 -0.0286 -0.1635  0.1031
  248loPI    C2 3954  10.534   9.026  10.727 -0.0998  0.0656  0.1959
  248loPI    C3 3955  10.240   9.294  10.776 -0.2929 -0.1236  0.0874
  248loPI   PO4 3956  10.234   8.844  10.246 -0.3956 -0.0928 -0.0588
  248loPI   GL1 3957  10.036   8.608   9.797  0.0040  0.0520  0.0450
  248loPI   GL2 3958   9.799   8.612   9.848  0.0421  0.1799  0.1758
  248loPI   C1A 3959  10.130   8.488   9.318  0.1191  0.0777 -0.2765
  248loPI   C2A 3960   9.942   8.554   8.937 -0.1050 -0.2342  0.2091
  248loPI   C3A 3961   9.903   8.581   8.545  0.1158 -0.1091 -0.0387
  248loPI   C4A 3962   9.994   8.804   8.192  0.2027 -0.0268 -0.0302
  248loPI   C5A 3963  10.280   8.998   7.863 -0.1769  0.1783 -0.1617
  248loPI   C6A 3964  10.677   9.053   7.915  0.1665 -0.0164 -0.0260
  248loPI   C1B 3965   9.760   8.947   9.552  0.2319 -0.1447  0.1141
  248loPI   C2B 3966   9.692   9.054   9.026  0.0065 -0.0663  0.1379
  248loPI   C3B 3967   9.930   9.101   8.564 -0.2837  0.2813  0.0322
  248loPI   C4B 3968  10.142   9.272   8.203 -0.0290  0.0074  0.0924
  249loPI    C1 3969  12.686   0.085  10.510 -0.0806  0.2544 -0.0396
  249loPI    C2 3970  12.746   0.278  10.856 -0.1416 -0.1775  0.2190
  249loPI    C3 3971  12.377   0.250  10.704 -0.1169 -0.0001  0.1235
  249loPI   PO4 3972  12.745   0.158  10.283  0.0016 -0.0782 -0.3475
  249loPI   GL1 3973  12.913   0.133   9.704 -0.1895  0.0415  0.0041
  249loPI   GL2 3974  12.913  -0.231   9.656 -0.1656  0.0845  0.0222
  249loPI   C1A 3975  12.996  -0.010   9.235 -0.1213 -0.1594 -0.1142
  249loPI   C2A 3976  13.183  -0.073   8.918  0.1311  0.0717  0.0324
  249loPI   C3A 3977  12.929  -0.167   8.522  0.2739 -0.1229  0.0584
  249loPI   C4A 3978  12.537  -0.180   8.163 -0.2318  0.3114  0.0655
  249loPI   C5A 3979  12.276  -0.041   7.728  0.1086  0.0097 -0.2227
  249loPI   C6A 3980  11.903   0.173   7.654 -0.0194 -0.1029  0.1566
  249loPI   C1B 3981  12.985  -0.559   9.347 -0.2240  0.0700  0.2562
  249loPI   C2B 3982  13.113  -0.541   8.996 -0.2471  0.2676 -0.0596
  249loPI   C3B 3983  13.135  -0.571   8.586  0.0142  0.1954 -0.1528
  249loPI   C4B 3984  13.223  -0.821   8.368 -0.1312  0.2045 -0.0887
  250loPI    C1 3985  17.083   0.320  10.796  0.0397 -0.0984  0.0650
  250loPI    C2 3986  16.962  -0.020  10.968 -0.1070 -0.0075  0.1433
  250loPI    C3 3987  17.281   0.174  11.112 -0.1254 -0.0228  0.2050
  250loPI   PO4 3988  16.983   0.290  10.551 -0.1753  0.0467 -0.2051
  250loPI   GL1 3989  17.061   0.283  10.194  0.1308 -0.1871  0.1086
  250loPI   GL2 3990  17.431   0.189  10.030 -0.1826  0.0061  0.1278
  250loPI   C1A 3991  16.919   0.055   9.876  0.0656 -0.2135 -0.0572
  250loPI   C2A 3992  16.660   0.037   9.483  0.2846  0.1273 -0.0679
  250loPI   C3A 3993  16.617   0.149   9.100  0.0960 -0.2821 -0.0579
  250loPI   C4A 3994  16.646   0.012   8.664 -0.0857 -0.1239  0.1592
  250loPI   C5A 3995  16.385   0.057   8.284  0.0379  0.1307 -0.1838
  250loPI   C6A 3996  16.143  -0.204   7.994 -0.2052  0.0238  0.0673
  250loPI   C1B 3997  17.435   0.094   9.626  0.2695  0.1227  0.4616
  250loPI   C2B 3998  17.147   0.112   9.250 -0.1777  0.3176 -0.2594
  250loPI   C3B 3999  16.986   0.325   8.869  0.1229  0.0848  0.2977
  250loPI   C4B 4000  16.806   0.398   8.450 -0.2865 -0.6156 -0.2527
  251loPI    C1 4001  18.506   3.559  10.823 -0.1452 -0.1013 -0.3670
  251loPI    C2 4002  18.316   3.902  10.906 -0.0475 -0.1875  0.2665
  251loPI    C3 4003  18.118   3.555  10.918 -0.0938 -0.1813 -0.1553
  251loPI   PO4 4004  18.561   3.607  10.512 -0.1151  0.2262  0.1282
  251loPI   GL1 4005  18.560   3.505  10.173 -0.0465  0.4290  0.2652
  251loPI   GL2 4006  18.312   3.464  10.046 -0.0480 -0.0592  0.1962
  251loPI   C1A 4007  18.833   3.411   9.878  0.2836  0.3625  0.3174
  251loPI   C2A 4008  19.048   3.297   9.479 -0.3942  0.1923  0.0985
  251loPI   C3A 4009  19.456   3.210   9.219 -0.1361  0.1478  0.2114
  251loPI   C4A 4010  19.515   3.089   8.883 -0.1954  0.1197  0.1555
  251loPI   C5A 4011  19.441   2.999   8.525  0.2167  0.1567 -0.0914
  251loPI   C6A 4012  19.133   2.841   8.287 -0.0967 -0.1709 -0.3497
  251loPI   C1B 4013  18.393   3.427   9.642  0.0641  0.1444 -0.2271
  251loPI   C2B 4014  18.491   3.311   9.280  0.2549 -0.1707  0.0576
  251loPI   C3B 4015  18.412   3.243   8.951  0.1873 -0.1043  0.2618
  251loPI   C4B 4016  18.382   3.074   8.576 -0.1389 -0.2850 -0.0101
  252loPI    C1 4017  15.095  15.704  10.708  0.1205  0.0677  0.0856
  252loPI    C2 4018  15.469  15.707  10.849  0.1402  0.2471  0.0325
  252loPI    C3 4019  15.232  16.024  10.904  0.0300  0.1755 -0.0251
  252loPI   PO4 4020  15.147  15.637  10.481  0.0335  0.2161 -0.2443
  252loPI   GL1 4021  15.181  15.457  10.067 -0.2337  0.2593  0.1426
  252loPI   GL2 4022  14.924  15.453   9.957 -0.1039  0.0366  0.2491
  252loPI   C1A 4023  15.328  15.332   9.714 -0.2002 -0.0424  0.2933
  252loPI   C2A 4024  15.380  15.167   9.337 -0.1527 -0.0658 -0.0330
  252loPI   C3A 4025  15.377  15.182   8.914  0.0727  0.1628  0.1513
  252loPI   C4A 4026  15.265  15.013   8.546  0.3504 -0.0182  0.1480
  252loPI   C5A 4027  15.477  15.150   8.219 -0.0788 -0.0759  0.3435
  252loPI   C6A 4028  15.818  15.321   8.006 -0.3125 -0.1231 -0.1173
  252loPI   C1B 4029  14.853  15.289   9.574 -0.1603 -0.2367  0.0517
  252loPI   C2B 4030  14.795  15.121   9.201  0.0198 -0.0238  0.0304
  252loPI   C3B 4031  14.874  14.943   8.794 -0.0252 -0.1941 -0.1814
  252loPI   C4B 4032  14.775  14.885   8.421  0.1162  0.5340 -0.0182
  253loPI    C1 4033   4.419   8.890  10.408  0.1680  0.1658  0.1802
  253loPI    C2 4034   4.286   8.968  10.039  0.2464 -0.0879  0.0959
  253loPI    C3 4035   4.056   9.051  10.356 -0.0697 -0.4131 -0.0410
  253loPI   PO4 4036   4.650   8.668  10.315 -0.0866 -0.0532 -0.3553
  253loPI   GL1 4037   4.992   8.724   9.882 -0.0800 -0.1505  0.1527
  253loPI   GL2 4038   4.756   8.939   9.900 -0.2044  0.2616  0.0937
  253loPI   C1A 4039   5.051   8.906   9.522 -0.1302 -0.3183 -0.0699
  253loPI   C2A 4040   5.057   9.021   9.086 -0.0443 -0.3770 -0.1665
  253loPI   C3A 4041   5.094   8.933   8.598  0.0689 -0.0126  0.1620
  253loPI   C4A 4042   4.897   8.673   8.263 -0.1017  0.0166  0.5539
  253loPI   C5A 4043   5.045   8.359   8.048 -0.0285 -0.0610 -0.2605
  253loPI   C6A 4044   5.077   8.369   7.583 -0.1337  0.1198  0.0711
  253loPI   C1B 4045   4.500   8.912   9.485  0.0827 -0.0703 -0.1852
  253loPI   C2B 4046   4.526   9.025   9.133 -0.0986  0.1435 -0.0824
  253loPI   C3B 4047   4.597   8.974   8.743 -0.0014 -0.1027 -0.0028
  253loPI   C4B 4048   4.646   9.082   8.347 -0.0326 -0.1153  0.0590
  254loPI    C1 4049   8.306   8.407  10.460 -0.3388  0.2357  0.1065
  254loPI    C2 4050   8.315   8.726  10.701 -0.0639  0.0559  0.3402
  254loPI    C3 4051   8.443   8.371  10.834  0.0709 -0.0529 -0.0637
  254loPI   PO4 4052   8.189   8.470  10.254  0.0167 -0.1765 -0.1303
  254loPI   GL1 4053   7.798   8.488   9.939 -0.2130  0.0945  0.1676
  254loPI   GL2 4054   7.966   8.719   9.866  0.2958 -0.3647 -0.1549
  254loPI   C1A 4055   8.011   8.277   9.645  0.2255  0.2436 -0.0103
  254loPI   C2A 4056   8.268   8.368   9.312 -0.3319  0.0693  0.3296
  254loPI   C3A 4057   8.457   8.211   8.912 -0.0715  0.0457 -0.1708
  254loPI   C4A 4058   8.677   8.431   8.584  0.1776  0.0166 -0.2425
  254loPI   C5A 4059   8.972   8.423   8.289 -0.0329  0.3367 -0.0528
  254loPI   C6A 4060   8.942   8.409   7.908  0.4569  0.0980 -0.1418
  254loPI   C1B 4061   7.786   8.639   9.383 -0.1513  0.0113  0.2057
  254loPI   C2B 4062   7.778   8.555   8.980 -0.0228  0.2557 -0.2276
  254loPI   C3B 4063   7.701   8.325   8.661 -0.1452  0.2515 -0.2808
  254loPI   C4B 4064   7.693   8.366   8.266  0.2274 -0.2054  0.1479
  255loPI    C1 4065  17.033   1.691  10.427  0.1163  0.1856 -0.0378
  255loPI    C2 4066  17.027   1.295  10.372 -0.3710  0.1765  0.0373
  255loPI    C3 4067  17.159   1.447  10.717 -0.3135  0.0721  0.0614
  255loPI   PO4 4068  16.771   1.886  10.420  0.0434 -0.1535  0.1916
  255loPI   GL1 4069  16.658   1.947   9.963 -0.0214 -0.0251  0.2571
  255loPI   GL2 4070  16.828   2.220   9.926  0.2444 -0.0901 -0.2062
  255loPI   C1A 4071  16.862   1.816   9.609 -0.3091  0.0664 -0.0932
  255loPI   C2A 4072  16.930   1.747   9.115  0.1048 -0.2710 -0.0149
  255loPI   C3A 4073  16.860   1.702   8.643 -0.0509  0.2192  0.2085
  255loPI   C4A 4074  16.572   1.701   8.226 -0.0181  0.0233 -0.0447
  255loPI   C5A 4075  16.600   1.634   7.800  0.0216  0.0265 -0.0148
  255loPI   C6A 4076  16.580   1.400   7.422 -0.2079 -0.0236 -0.1209
  255loPI   C1B 4077  16.780   2.273   9.536 -0.1175  0.3982 -0.1504
  255loPI   C2B 4078  16.882   2.211   9.107 -0.2013  0.0721 -0.0003
  255loPI   C3B 4079  16.768   2.221   8.691 -0.1544  0.0265  0.1290
  255loPI   C4B 4080  17.004   2.008   8.179 -0.1007 -0.4555 -0.2089
  256loPI    C1 4081  13.855  16.650  10.186  0.1532 -0.1183  0.0227
  256loPI    C2 4082  14.237  16.753  10.129  0.1623 -0.1939 -0.0555
  256loPI    C3 4083  14.140  16.505  10.426  0.1456  0.0052  0.1074
  256loPI   PO4 4084  13.741  16.714  10.054 -0.3958 -0.1094  0.0006
  256loPI   GL1 4085  13.464  16.884   9.735  0.0070  0.1028 -0.2400
  256loPI   GL2 4086  13.614  16.991   9.480  0.0529  0.1814  0.0393
  256loPI   C1A 4087  13.293  16.512   9.347  0.1103  0.3696  0.0967
  256loPI   C2A 4088  13.353  16.336   8.883  0.1783  0.1388  0.0351
  256loPI   C3A 4089  13.419  16.274   8.451 -0.2785  0.1994 -0.0612
  256loPI   C4A 4090  13.556  16.291   8.077 -0.0702 -0.3350 -0.2737
  256loPI   C5A 4091  13.807  16.132   7.734 -0.1147 -0.2952 -0.0348
  256loPI   C6A 4092  14.128  15.864   7.644  0.0368  0.1267 -0.0247
  256loPI   C1B 4093  13.725  16.748   9.273  0.1198 -0.1726 -0.1162
  256loPI   C2B 4094  13.735  16.710   8.869  0.1894  0.0109  0.4584
  256loPI   C3B 4095  13.840  16.660   8.377  0.0859  0.1053  0.0998
  256loPI   C4B 4096  14.068  16.412   8.133 -0.1441  0.0634  0.0344
  257loPI    C1 4097   0.147   6.372  10.630 -0.0507 -0.2496 -0.2453
  257loPI    C2 4098   0.461   6.163  10.763 -0.0613 -0.0915  0.0373
  257loPI    C3 4099   0.097   6.098  10.917 -0.0235  0.2999  0.3052
  257loPI   PO4 4100   0.065   6.332  10.405 -0.0559  0.1315  0.2060
  257loPI   GL1 4101   0.221   6.429   9.953 -0.5054  0.0541  0.0753
  257loPI   GL2 4102  -0.125   6.651  10.071  0.0431 -0.0661  0.0644
  257loPI   C1A 4103   0.123   6.283   9.593 -0.1447  0.3304 -0.1071
  257loPI   C2A 4104   0.072   6.423   9.108  0.1410  0.4408 -0.2187
  257loPI   C3A 4105   0.040   6.664   8.800  0.0899 -0.5751  0.0522
  257loPI   C4A 4106  -0.223   6.860   8.521 -0.1475 -0.6421  0.3551
  257loPI   C5A 4107  -0.647   6.845   8.288 -0.1559 -0.4035 -0.4263
  257loPI   C6A 4108  -0.683   6.758   7.869  0.0739 -0.1239  0.0979
  257loPI   C1B 4109  -0.111   6.688   9.674  0.2410 -0.3661 -0.0707
  257loPI   C2B 4110  -0.172   6.880   9.225 -0.3660 -0.2761  0.0878
  257loPI   C3B 4111  -0.427   7.078   8.889 -0.2567 -0.1838  0.0088
  257loPI   C4B 4112  -0.677   7.209   8.587  0.1847 -0.3621  0.2172
  258loPI    C1 4113  10.966  12.051  10.189 -0.0699  0.0984  0.2070
  258loPI    C2 4114  11.157  12.198  10.508 -0.1076  0.0791  0.2384
  258loPI    C3 4115  10.981  11.840  10.528 -0.0078  0.0253  0.1590
  258loPI   PO4 4116  10.790  12.228  10.078 -0.1994 -0.0863  0.0478
  258loPI   GL1 4117  10.819  12.474   9.776  0.1530 -0.1247 -0.0730
  258loPI   GL2 4118  10.764  12.703   9.586 -0.1210  0.2365 -0.3208
  258loPI   C1A 4119  11.103  12.414   9.435 -0.0458  0.0821  0.1738
  258loPI   C2A 4120  11.150  12.448   8.952 -0.4618  0.3347  0.0122
  258loPI   C3A 4121  10.876  12.211   8.624 -0.1221 -0.0534 -0.1768
  258loPI   C4A 4122  10.795  12.428   8.219 -0.1039  0.1951  0.0495
  258loPI   C5A 4123  10.939  12.728   7.962 -0.1670 -0.0632 -0.0193
  258loPI   C6A 4124  11.428  12.810   7.907 -0.0035  0.0411 -0.0975
  258loPI   C1B 4125  10.735  12.708   9.074 -0.2534 -0.2300  0.0735
  258loPI   C2B 4126  10.584  12.793   8.614  0.1069  0.2182  0.0760
  258loPI   C3B 4127  10.515  12.806   8.247  0.1573  0.1153  0.4509
  258loPI   C4B 4128  10.373  12.886   7.833  0.2248 -0.1323 -0.0187
  259loPI    C1 4129   4.372   7.572  10.169  0.0964 -0.0137 -0.2175
  259loPI    C2 4130   4.455   7.308   9.880  0.0163 -0.1529 -0.1150
  259loPI    C3 4131   4.297   7.183  10.225 -0.2785  0.0619 -0.1683
  259loPI   PO4 4132   4.204   7.725  10.166 -0.0295  0.3059 -0.1371
  259loPI   GL1 4133   4.164   7.930   9.787 -0.0883 -0.0929  0.1162
  259loPI   GL2 4134   4.270   7.697   9.626 -0.0745  0.1630 -0.0414
  259loPI   C1A 4135   4.148   8.274   9.500  0.3414 -0.0437  0.3413
  259loPI   C2A 4136   4.225   8.576   9.190  0.0182 -0.1725  0.2026
  259loPI   C3A 4137   4.295   8.644   8.710 -0.2427 -0.0932 -0.4410
  259loPI   C4A 4138   4.381   8.607   8.297 -0.3297 -0.2399 -0.0177
  259loPI   C5A 4139   4.293   8.443   7.947 -0.1183  0.0834 -0.0944
  259loPI   C6A 4140   3.989   8.208   7.701 -0.1352  0.0379 -0.1150
  259loPI   C1B 4141   4.198   7.678   9.191 -0.0118  0.0664  0.0305
  259loPI   C2B 4142   4.111   7.741   8.709  0.0007 -0.1258 -0.0910
  259loPI   C3B 4143   3.941   7.713   8.323  0.1616  0.0381  0.0791
  259loPI   C4B 4144   3.957   7.790   7.931  0.0232  0.0014 -0.1317
  260loPI    C1 4145   4.496   0.657  10.071 -0.0842 -0.0081 -0.1404
  260loPI    C2 4146   4.252   0.962   9.987  0.0791  0.1995  0.1216
  260loPI    C3 4147   4.246   0.796  10.350  0.3003  0.1823  0.1189
  260loPI   PO4 4148   4.476   0.481   9.885  0.1713 -0.5020 -0.2182
  260loPI   GL1 4149   4.423   0.297   9.608 -0.1654  0.2567 -0.2498
  260loPI   GL2 4150   4.108   0.221   9.564 -0.0187  0.1754 -0.2302
  260loPI   C1A 4151   4.362   0.514   9.168 -0.0636 -0.0143  0.0668
  260loPI   C2A 4152   4.380   0.697   8.777 -0.0204  0.0144  0.1189
  260loPI   C3A 4153   4.275   0.926   8.421  0.0511 -0.2224 -0.0973
  260loPI   C4A 4154   4.037   1.151   8.130  0.1549  0.1067  0.2827
  260loPI   C5A 4155   4.082   1.098   7.635  0.0084  0.0735  0.0692
  260loPI   C6A 4156   4.249   1.187   7.298  0.1564 -0.1401  0.2030
  260loPI   C1B 4157   3.979   0.162   9.142 -0.0581 -0.1512  0.0774
  260loPI   C2B 4158   3.980   0.381   8.742 -0.0223 -0.1085  0.0935
  260loPI   C3B 4159   3.867   0.589   8.376  0.0930  0.0889 -0.0393
  260loPI   C4B 4160   3.721   0.507   7.995 -0.1331 -0.0330  0.1526
  261loPI    C1 4161   6.810   0.349  10.081 -0.1461  0.0791  0.1275
  261loPI    C2 4162   6.724  -0.020  10.209  0.3508 -0.0450  0.1228
  261loPI    C3 4163   6.558   0.297  10.387  0.0890 -0.2603  0.2700
  261loPI   PO4 4164   6.757   0.369   9.785 -0.2620  0.2287  0.0057
  261loPI   GL1 4165   6.584   0.351   9.460  0.1061  0.1899 -0.1213
  261loPI   GL2 4166   6.242   0.413   9.456 -0.1772 -0.1982  0.2000
  261loPI   C1A 4167   6.563   0.211   9.150 -0.0684  0.2082  0.4263
  261loPI   C2A 4168   6.578  -0.042   8.804 -0.1129 -0.1554 -0.0910
  261loPI   C3A 4169   6.653   0.056   8.352 -0.3265 -0.1952 -0.1261
  261loPI   C4A 4170   6.740   0.146   7.901  0.3811  0.0773  0.1783
  261loPI   C5A 4171   7.045   0.331   7.604  0.3481 -0.1134 -0.1023
  261loPI   C6A 4172   7.353   0.556   7.461 -0.3583 -0.1844  0.2978
  261loPI   C1B 4173   6.291   0.636   9.045  0.0775  0.0701  0.2759
  261loPI   C2B 4174   6.478   0.907   8.772  0.0075 -0.0256 -0.2032
  261loPI   C3B 4175   6.376   1.271   8.433 -0.1324  0.2886 -0.2729
  261loPI   C4B 4176   6.334   1.646   8.184 -0.1103 -0.2818  0.0927
  262loPI    C1 4177  11.863  10.041  10.179 -0.2293 -0.0113  0.0940
  262loPI    C2 4178  11.575  10.266  10.016 -0.1353  0.2603  0.2943
  262loPI    C3 4179  11.885  10.440  10.199  0.2099 -0.0255 -0.0021
  262loPI   PO4 4180  11.656   9.759  10.130 -0.0524 -0.1543 -0.0230
  262loPI   GL1 4181  11.774   9.413   9.864 -0.1180  0.1284  0.2636
  262loPI   GL2 4182  11.393   9.446   9.818 -0.0956  0.0775  0.0245
  262loPI   C1A 4183  12.185   9.496   9.654  0.1574  0.0779  0.2583
  262loPI   C2A 4184  12.401   9.346   9.324 -0.0990  0.2466  0.1033
  262loPI   C3A 4185  12.449   9.379   8.893  0.4136  0.1647  0.2074
  262loPI   C4A 4186  12.245   9.625   8.486 -0.0115  0.4592 -0.1195
  262loPI   C5A 4187  12.032   9.830   8.143 -0.2026 -0.0530 -0.2603
  262loPI   C6A 4188  11.941   9.884   7.643  0.1736 -0.1353  0.0417
  262loPI   C1B 4189  11.085   9.302   9.568 -0.1072  0.0562 -0.0520
  262loPI   C2B 4190  10.893   8.885   9.457  0.1915 -0.2837  0.0754
  262loPI   C3B 4191  10.855   8.788   9.090  0.1984  0.2304  0.1220
  262loPI   C4B 4192  10.843   8.701   8.672  0.0578  0.1397 -0.0044
  263loPI    C1 4193  15.269  13.413  10.558  0.1326 -0.3047  0.0911
  263loPI    C2 4194  15.274  13.185  10.887  0.1029 -0.0185  0.2939
  263loPI    C3 4195  15.247  13.583  10.920 -0.1687 -0.0022 -0.0634
  263loPI   PO4 4196  15.057  13.294  10.384 -0.0407  0.3709 -0.0667
  263loPI   GL1 4197  15.021  13.285   9.902  0.0418 -0.3058  0.1924
  263loPI   GL2 4198  15.040  13.592   9.886 -0.2698 -0.0564 -0.0791
  263loPI   C1A 4199  15.119  13.221   9.527 -0.1566 -0.1765 -0.0393
  263loPI   C2A 4200  15.025  13.301   9.105 -0.0233  0.0173  0.2918
  263loPI   C3A 4201  15.043  13.225   8.639 -0.4190 -0.1160 -0.1140
  263loPI   C4A 4202  15.251  13.439   8.374  0.3675  0.0357 -0.1216
  263loPI   C5A 4203  15.293  13.279   7.967  0.0130  0.0218 -0.4595
  263loPI   C6A 4204  15.106  13.018   7.747  0.1056 -0.1305  0.0043
  263loPI   C1B 4205  14.927  13.722   9.495 -0.1088  0.1229  0.0201
  263loPI   C2B 4206  14.848  13.781   9.099 -0.0060 -0.2108 -0.0763
  263loPI   C3B 4207  14.745  13.734   8.725 -0.0949  0.3179 -0.5611
  263loPI   C4B 4208  14.540  13.875   8.328  0.1583 -0.0380 -0.1698
  264loPI    C1 4209  12.076  18.365  10.084  0.1046  0.0578  0.0882
  264loPI    C2 4210  12.175  18.647  10.349 -0.1517 -0.1095  0.3676
  264loPI    C3 4211  12.396  18.315  10.319 -0.0144 -0.0074  0.2382
  264loPI   PO4 4212  11.946  18.469   9.837 -0.0903 -0.0361 -0.0819
  264loPI   GL1 4213  12.097  18.534   9.411  0.1115 -0.1778 -0.1599
  264loPI   GL2 4214  12.413  18.500   9.412  0.0452 -0.0759  0.0005
  264loPI   C1A 4215  12.174  18.506   8.925 -0.2326 -0.1054  0.1426
  264loPI   C2A 4216  12.323  18.788   8.547 -0.2222  0.0535  0.0271
  264loPI   C3A 4217  12.276  18.979   8.132 -0.0441 -0.2748  0.1217
  264loPI   C4A 4218  12.377  19.167   7.715  0.0673  0.1951  0.0429
  264loPI   C5A 4219  12.680  19.143   7.374  0.0674  0.4930 -0.0768
  264loPI   C6A 4220  13.048  19.178   7.323  0.1090  0.1746  0.0181
  264loPI   C1B 4221  12.631  18.434   9.071 -0.0861 -0.0245 -0.0736
  264loPI   C2B 4222  12.445  18.316   8.608 -0.0138  0.0188  0.0451
  264loPI   C3B 4223  12.089  18.325   8.471  0.0688 -0.3858  0.1258
  264loPI   C4B 4224  11.871  18.671   8.208 -0.0842  0.0894  0.1434
  265loPI    C1 4225   7.960   2.783  10.147  0.1757 -0.0725  0.1217
  265loPI    C2 4226   8.165   3.017  10.398 -0.0975  0.2302  0.0682
  265loPI    C3 4227   7.765   3.010  10.412 -0.1018 -0.0251 -0.1181
  265loPI   PO4 4228   8.121   2.842   9.908 -0.0862 -0.5392  0.1303
  265loPI   GL1 4229   8.277   2.694   9.532 -0.0136 -0.0277 -0.0628
  265loPI   GL2 4230   8.506   2.964   9.436  0.1249 -0.1696  0.0394
  265loPI   C1A 4231   8.215   2.537   9.117  0.3544 -0.0136  0.1310
  265loPI   C2A 4232   8.190   2.407   8.629  0.0172 -0.1141 -0.4525
  265loPI   C3A 4233   8.223   2.540   8.236  0.1332 -0.0407 -0.1660
  265loPI   C4A 4234   8.126   2.587   7.839 -0.2166  0.1639 -0.1610
  265loPI   C5A 4235   8.282   2.572   7.497  0.1525  0.1643 -0.2186
  265loPI   C6A 4236   8.700   2.442   7.243  0.0504 -0.1460  0.2303
  265loPI   C1B 4237   8.537   2.897   9.005 -0.3224  0.2916 -0.3122
  265loPI   C2B 4238   8.666   2.663   8.656 -0.0901  0.1167 -0.0090
  265loPI   C3B 4239   8.683   2.589   8.162 -0.1318  0.0882 -0.3120
  265loPI   C4B 4240   8.691   2.687   7.779  0.3266 -0.1192 -0.0310
  266loPI    C1 4241  17.851   6.547  10.488 -0.1814 -0.0710  0.0470
  266loPI    C2 4242  17.653   6.855  10.649 -0.1298  0.0833 -0.1801
  266loPI    C3 4243  17.947   6.678  10.854 -0.1128  0.2302 -0.0756
  266loPI   PO4 4244  17.621   6.388  10.373 -0.0865  0.1192  0.0626
  266loPI   GL1 4245  17.538   6.111   9.968  0.0841 -0.2020  0.0322
  266loPI   GL2 4246  17.773   6.291   9.816 -0.2738 -0.1304 -0.0121
  266loPI   C1A 4247  17.818   5.815   9.754  0.1275  0.0412  0.0080
  266loPI   C2A 4248  18.068   5.756   9.363  0.1686  0.2793  0.0147
  266loPI   C3A 4249  18.358   5.862   8.849  0.2313  0.0344 -0.2440
  266loPI   C4A 4250  18.577   5.968   8.504  0.1751 -0.1453  0.1960
  266loPI   C5A 4251  18.337   6.332   8.246 -0.0892  0.0447  0.1449
  266loPI   C6A 4252  18.103   6.277   7.958 -0.3039 -0.0009 -0.3371
  266loPI   C1B 4253  17.744   6.163   9.427  0.3488 -0.4644 -0.2153
  266loPI   C2B 4254  17.860   6.042   9.003 -0.0451  0.0407  0.1173
  266loPI   C3B 4255  18.002   6.039   8.516 -0.0437 -0.1456 -0.0798
  266loPI   C4B 4256  18.252   5.812   8.187 -0.1048 -0.3494 -0.4453
  267loPI    C1 4257   4.713   6.779  10.358 -0.0616 -0.1695 -0.0807
  267loPI    C2 4258   5.045   6.879  10.556  0.0785 -0.2496 -0.2718
  267loPI    C3 4259   4.697   7.055  10.646  0.2082 -0.0260 -0.2004
  267loPI   PO4 4260   4.645   6.844  10.159 -0.1180  0.1034  0.0549
  267loPI   GL1 4261   4.774   6.801   9.844  0.1195  0.2454  0.1936
  267loPI   GL2 4262   4.928   7.009   9.726  0.1209  0.3037 -0.1350
  267loPI   C1A 4263   4.664   6.707   9.342  0.0743  0.2060 -0.1196
  267loPI   C2A 4264   4.571   6.839   8.928 -0.1091 -0.2449 -0.1531
  267loPI   C3A 4265   4.540   6.599   8.636 -0.3221 -0.1583 -0.0522
  267loPI   C4A 4266   4.442   6.763   8.259 -0.0271  0.2312 -0.1906
  267loPI   C5A 4267   3.931   6.808   8.074 -0.5029 -0.2079 -0.0572
  267loPI   C6A 4268   3.420   6.822   7.904  0.0412 -0.0809 -0.2767
  267loPI   C1B 4269   5.106   7.003   9.351 -0.3539  0.0078 -0.0281
  267loPI   C2B 4270   4.896   7.189   9.038 -0.2770  0.2497 -0.1392
  267loPI   C3B 4271   4.916   7.326   8.627  0.1737  0.3630  0.0423
  267loPI   C4B 4272   4.763   7.273   8.157  0.0983 -0.1928 -0.0075
  268loPI    C1 4273  11.588  13.319  10.525  0.0776  0.1107  0.0935
  268loPI    C2 4274  11.882  13.178  10.757 -0.1087 -0.1024  0.2034
  268loPI    C3 4275  11.760  13.557  10.797 -0.1048 -0.1228  0.4194
  268loPI   PO4 4276  11.681  13.279  10.235  0.1141 -0.0281  0.0911
  268loPI   GL1 4277  11.906  13.335   9.891 -0.1815  0.1036 -0.0914
  268loPI   GL2 4278  11.697  13.084   9.800  0.3124 -0.3071 -0.1598
  268loPI   C1A 4279  12.162  13.443   9.479 -0.0554  0.2879 -0.2468
  268loPI   C2A 4280  12.586  13.305   9.119 -0.0256 -0.0388  0.1423
  268loPI   C3A 4281  12.584  13.208   8.678  0.1137 -0.2105  0.1365
  268loPI   C4A 4282  12.431  13.308   8.324 -0.0931 -0.2268  0.2406
  268loPI   C5A 4283  12.354  13.552   7.981  0.2852 -0.2367 -0.0229
  268loPI   C6A 4284  12.243  13.931   7.722  0.2924 -0.0794 -0.0246
  268loPI   C1B 4285  11.547  13.180   9.432 -0.1112  0.1430 -0.1437
  268loPI   C2B 4286  11.310  13.534   9.273  0.0628 -0.0340 -0.0816
  268loPI   C3B 4287  11.286  13.939   8.949  0.0094  0.1371  0.1562
  268loPI   C4B 4288  11.423  14.230   8.569 -0.1369 -0.3144 -0.0197
  269loPI    C1 4289   8.698  11.711  10.246 -0.0439 -0.0749 -0.0909
  269loPI    C2 4290   8.633  11.433  10.527 -0.1477 -0.1870 -0.2241
  269loPI    C3 4291   8.892  11.731  10.595 -0.2826 -0.1289  0.0473
  269loPI   PO4 4292   8.688  11.500   9.922 -0.0511  0.3971  0.1120
  269loPI   GL1 4293   8.856  11.451   9.617 -0.0161 -0.0802 -0.0226
  269loPI   GL2 4294   9.157  11.560   9.618 -0.0494  0.0120 -0.0833
  269loPI   C1A 4295   8.829  11.194   9.233 -0.0123  0.1122  0.1993
  269loPI   C2A 4296   8.603  11.031   8.772  0.1739  0.0773  0.2396
  269loPI   C3A 4297   8.744  10.791   8.416 -0.1038  0.0383 -0.0909
  269loPI   C4A 4298   8.554  10.643   8.050  0.1043 -0.0001  0.0840
  269loPI   C5A 4299   8.489  10.815   7.689  0.1413 -0.1547  0.0465
  269loPI   C6A 4300   8.451  11.262   7.570 -0.1212  0.2375  0.0465
  269loPI   C1B 4301   9.335  11.353   9.228  0.1959  0.2430  0.0667
  269loPI   C2B 4302   9.528  11.397   8.792  0.0574 -0.2947 -0.0950
  269loPI   C3B 4303   9.315  11.455   8.359 -0.0496 -0.3502 -0.1188
  269loPI   C4B 4304   9.568  11.573   7.962  0.2181 -0.2416  0.0059
  270loPI    C1 4305   6.020   3.874  10.330  0.1275  0.0012 -0.0104
  270loPI    C2 4306   6.256   4.046  10.604  0.0336 -0.1011  0.1360
  270loPI    C3 4307   6.231   3.647  10.583  0.0093 -0.0933  0.0042
  270loPI   PO4 4308   6.177   3.940  10.107 -0.0238 -0.1636  0.1725
  270loPI   GL1 4309   6.390   3.976   9.806  0.0607 -0.1779  0.1380
  270loPI   GL2 4310   6.625   4.098   9.764 -0.1516 -0.0873  0.2141
  270loPI   C1A 4311   6.193   4.000   9.430  0.2131 -0.0553 -0.0733
  270loPI   C2A 4312   5.936   3.969   8.983  0.3272 -0.0573  0.1842
  270loPI   C3A 4313   5.812   4.140   8.453 -0.0547 -0.0251  0.0347
  270loPI   C4A 4314   5.576   3.915   8.242 -0.1945 -0.0597 -0.3184
  270loPI   C5A 4315   5.688   3.616   7.920 -0.3040  0.1283 -0.2706
  270loPI   C6A 4316   5.890   3.470   7.612  0.0698 -0.0030  0.0484
  270loPI   C1B 4317   7.016   4.372   9.504 -0.3796 -0.1101  0.1038
  270loPI   C2B 4318   6.999   4.580   9.095 -0.3362 -0.5805 -0.1587
  270loPI   C3B 4319   6.979   4.708   8.691  0.0771  0.3404  0.1403
  270loPI   C4B 4320   6.849   4.892   8.335  0.1081 -0.0894 -0.0155
  271loPI    C1 4321  17.162   4.932  11.087 -0.0905  0.0095  0.2902
  271loPI    C2 4322  17.397   4.649  11.242 -0.0905 -0.0266  0.2247
  271loPI    C3 4323  17.549   5.008  11.151 -0.0049 -0.1271 -0.0414
  271loPI   PO4 4324  17.093   4.796  10.818 -0.0685 -0.1629  0.2331
  271loPI   GL1 4325  17.264   4.896  10.401 -0.2357  0.4692 -0.0679
  271loPI   GL2 4326  16.935   4.806  10.225  0.0536  0.0531 -0.0613
  271loPI   C1A 4327  17.602   4.807  10.011  0.0896 -0.3720 -0.1466
  271loPI   C2A 4328  17.877   4.884   9.709  0.1820  0.4339  0.3931
  271loPI   C3A 4329  18.057   4.754   9.394 -0.2880  0.0272  0.0147
  271loPI   C4A 4330  18.128   4.403   9.066 -0.3177  0.2187  0.0581
  271loPI   C5A 4331  18.197   4.379   8.589  0.1594  0.0814  0.1577
  271loPI   C6A 4332  17.769   4.354   8.361 -0.1124  0.0367 -0.0410
  271loPI   C1B 4333  17.078   4.762   9.814  0.0110  0.1310  0.1541
  271loPI   C2B 4334  16.913   4.700   9.341  0.0288 -0.1075 -0.1881
  271loPI   C3B 4335  16.885   4.561   8.991 -0.1551 -0.1389 -0.1848
  271loPI   C4B 4336  16.551   4.585   8.781 -0.2727 -0.0275  0.2402
  272loPI    C1 4337  15.133  11.864  10.594 -0.0693 -0.1355 -0.0820
  272loPI    C2 4338  15.005  11.556  10.814 -0.1554 -0.0381  0.0054
  272loPI    C3 4339  15.040  11.918  10.979  0.2288 -0.0604 -0.0182
  272loPI   PO4 4340  15.342  11.750  10.381  0.1004  0.1761  0.1760
  272loPI   GL1 4341  15.243  11.536  10.019 -0.1027 -0.0278  0.0484
  272loPI   GL2 4342  15.308  11.756   9.766 -0.2432  0.2915  0.2911
  272loPI   C1A 4343  15.108  11.255   9.640  0.0760  0.1969  0.0435
  272loPI   C2A 4344  14.959  11.163   9.195  0.0471  0.1549  0.0707
  272loPI   C3A 4345  14.833  11.090   8.867 -0.3863 -0.0170 -0.1112
  272loPI   C4A 4346  14.809  11.158   8.408 -0.1421 -0.2843  0.0783
  272loPI   C5A 4347  14.902  11.497   8.085  0.3263  0.2106  0.1693
  272loPI   C6A 4348  15.254  11.619   7.841  0.4756  0.1567  0.3899
  272loPI   C1B 4349  15.372  11.613   9.338  0.0694  0.0296 -0.1671
  272loPI   C2B 4350  15.659  11.724   9.032 -0.0852 -0.0924  0.3839
  272loPI   C3B 4351  15.775  11.632   8.596  0.1076 -0.1194 -0.0258
  272loPI   C4B 4352  16.035  11.379   8.402 -0.1122  0.1048 -0.0191
  273loPI    C1 4353   2.728  11.261  10.276  0.0185  0.3480  0.1340
  273loPI    C2 4354   2.760  11.107  10.644 -0.0847  0.1515  0.0625
  273loPI    C3 4355   2.402  11.216  10.503 -0.0849 -0.0288 -0.0803
  273loPI   PO4 4356   2.889  11.092  10.110 -0.1048  0.0788  0.0599
  273loPI   GL1 4357   2.821  11.087   9.646 -0.2989  0.1319  0.1081
  273loPI   GL2 4358   2.571  11.116   9.443  0.1567 -0.0499 -0.1252
  273loPI   C1A 4359   3.009  10.770   9.411  0.2010  0.1844 -0.0304
  273loPI   C2A 4360   3.210  10.603   9.001  0.3573  0.0536 -0.0209
  273loPI   C3A 4361   3.077  10.451   8.627 -0.0446  0.2121  0.3149
  273loPI   C4A 4362   3.185  10.635   8.219  0.2337  0.2336  0.1356
  273loPI   C5A 4363   2.867  10.890   7.998  0.0329  0.0735  0.1777
  273loPI   C6A 4364   2.832  11.283   7.829 -0.2571  0.0358 -0.1815
  273loPI   C1B 4365   2.535  10.759   9.164  0.0831 -0.1859  0.1447
  273loPI   C2B 4366   2.643  10.595   8.780  0.0696 -0.1305 -0.1821
  273loPI   C3B 4367   2.665  10.652   8.461  0.1418  0.1141 -0.1137
  273loPI   C4B 4368   2.722  10.399   8.181  0.2600  0.0517 -0.1513
  274loPI    C1 4369   6.145  12.749  10.052  0.1347  0.2090 -0.3193
  274loPI    C2 4370   6.303  12.382  10.043  0.2607  0.2543 -0.0530
  274loPI    C3 4371   6.111  12.508  10.370  0.0299  0.3495 -0.2228
  274loPI   PO4 4372   6.376  12.993  10.083  0.1226  0.1200 -0.0766
  274loPI   GL1 4373   6.379  13.405   9.793  0.0403 -0.0147  0.2655
  274loPI   GL2 4374   6.655  13.152   9.643 -0.0594  0.1394 -0.1117
  274loPI   C1A 4375   6.158  13.167   9.475 -0.3572  0.5573 -0.2894
  274loPI   C2A 4376   6.132  12.948   9.155 -0.1371  0.0276  0.1457
  274loPI   C3A 4377   6.289  13.042   8.740  0.0148 -0.0902 -0.0640
  274loPI   C4A 4378   6.324  13.022   8.355  0.0525 -0.0542  0.0102
  274loPI   C5A 4379   6.347  13.166   7.959 -0.1878  0.0302 -0.1356
  274loPI   C6A 4380   5.935  13.276   7.689 -0.1136  0.0050 -0.0161
  274loPI   C1B 4381   6.588  13.178   9.193  0.1599 -0.0989 -0.0120
  274loPI   C2B 4382   6.728  13.228   8.799 -0.0857 -0.0043  0.0023
  274loPI   C3B 4383   6.833  13.152   8.334 -0.2373  0.0029 -0.1846
  274loPI   C4B 4384   6.797  12.888   8.019  0.1299 -0.0594 -0.2087
  275loPI    C1 4385  13.986   0.287  10.382  0.1441  0.0718  0.1257
  275loPI    C2 4386  14.121   0.009  10.636  0.1062  0.0488  0.1208
  275loPI    C3 4387  14.026   0.374  10.771  0.0220  0.0158  0.1513
  275loPI   PO4 4388  14.137   0.310  10.154 -0.0531 -0.1339 -0.0305
  275loPI   GL1 4389  14.093   0.418   9.762 -0.1990 -0.1238  0.4132
  275loPI   GL2 4390  14.433   0.491   9.636 -0.1984  0.0479  0.0056
  275loPI   C1A 4391  13.953   0.199   9.379  0.1042  0.2270  0.0632
  275loPI   C2A 4392  14.053   0.257   8.888  0.0515 -0.3151  0.2911
  275loPI   C3A 4393  14.128   0.438   8.511  0.0127 -0.0115 -0.1439
  275loPI   C4A 4394  14.301   0.181   8.179 -0.2848  0.0845 -0.2854
  275loPI   C5A 4395  14.114   0.006   7.742  0.0572 -0.3455  0.1275
  275loPI   C6A 4396  13.724   0.050   7.692 -0.0461 -0.1414  0.1186
  275loPI   C1B 4397  14.511   0.506   9.292  0.3588  0.2393 -0.2166
  275loPI   C2B 4398  14.502   0.482   8.867  0.1746  0.1630  0.0414
  275loPI   C3B 4399  14.592   0.473   8.476  0.1155 -0.1794 -0.2018
  275loPI   C4B 4400  14.750   0.369   8.096 -0.2249 -0.1173 -0.1353
  276loPI    C1 4401   3.233  11.409   9.869 -0.0434 -0.1400  0.2309
  276loPI    C2 4402   3.116  11.662  10.156  0.1259  0.2283 -0.0168
  276loPI    C3 4403   3.310  11.326  10.252 -0.0276  0.2306  0.3119
  276loPI   PO4 4404   3.130  11.580   9.648 -0.2157  0.0470 -0.0857
  276loPI   GL1 4405   3.270  11.438   9.311 -0.1430 -0.1416 -0.1284
  276loPI   GL2 4406   3.431  11.172   9.426 -0.1260  0.1270  0.0463
  276loPI   C1A 4407   2.962  11.166   9.142  0.0394  0.0424  0.1842
  276loPI   C2A 4408   2.641  11.090   8.866  0.2256  0.0130 -0.2861
  276loPI   C3A 4409   2.466  11.140   8.415 -0.0222  0.2011  0.3311
  276loPI   C4A 4410   2.404  11.025   7.962  0.3755 -0.0407  0.1156
  276loPI   C5A 4411   2.516  10.869   7.627  0.0481 -0.1771 -0.1898
  276loPI   C6A 4412   2.364  10.443   7.514  0.5056 -0.1083 -0.0782
  276loPI   C1B 4413   3.413  11.047   8.908  0.2966  0.1717 -0.1687
  276loPI   C2B 4414   3.080  10.933   8.592  0.1080 -0.1221  0.1715
  276loPI   C3B 4415   3.182  11.179   8.211  0.0633 -0.1339 -0.1701
  276loPI   C4B 4416   3.307  11.127   7.895 -0.1779  0.1524  0.1052
  277loPI    C1 4417   0.346  10.638  10.246  0.2488  0.1868  0.1752
  277loPI    C2 4418   0.122  10.670  10.577  0.0293  0.2414  0.0239
  277loPI    C3 4419   0.399  10.383  10.549 -0.3072 -0.0938  0.0503
  277loPI   PO4 4420   0.140  10.674  10.066 -0.1259  0.0041 -0.1747
  277loPI   GL1 4421   0.078  10.899   9.716 -0.3683  0.1145 -0.1447
  277loPI   GL2 4422  -0.087  11.063   9.700 -0.3293  0.1173 -0.0500
  277loPI   C1A 4423   0.282  10.656   9.417  0.2503  0.3264 -0.1603
  277loPI   C2A 4424   0.360  10.376   9.107 -0.2340  0.1997 -0.0131
  277loPI   C3A 4425   0.369  10.194   8.588  0.2695  0.1449 -0.1335
  277loPI   C4A 4426   0.506  10.090   8.276 -0.4165  0.0896 -0.0448
  277loPI   C5A 4427   0.917   9.991   8.046 -0.1767  0.0327 -0.1276
  277loPI   C6A 4428   1.163   9.921   7.778  0.2812  0.4247  0.1552
  277loPI   C1B 4429  -0.195  10.995   9.329  0.0560  0.0108  0.0299
  277loPI   C2B 4430  -0.221  11.081   8.881 -0.1031  0.1785  0.2231
  277loPI   C3B 4431  -0.290  11.100   8.594 -0.0365 -0.1978  0.1651
  277loPI   C4B 4432  -0.154  11.355   8.295 -0.1984 -0.0300 -0.0792
  278loPI    C1 4433   3.786   5.148  10.150  0.3956  0.0039 -0.0886
  278loPI    C2 4434   3.848   4.793  10.324 -0.1770 -0.0544  0.0166
  278loPI    C3 4435   3.811   5.121  10.548  0.0048  0.0197 -0.0595
  278loPI   PO4 4436   3.963   5.130   9.998 -0.1650 -0.0414 -0.2462
  278loPI   GL1 4437   4.001   5.466   9.688 -0.3773 -0.2728 -0.1511
  278loPI   GL2 4438   4.303   5.303   9.580 -0.1682  0.2799  0.0471
  278loPI   C1A 4439   3.906   5.519   9.258 -0.0930 -0.1956  0.4121
  278loPI   C2A 4440   3.877   5.461   8.850 -0.0547 -0.0372  0.1728
  278loPI   C3A 4441   3.962   5.552   8.449  0.2726  0.2627  0.1922
  278loPI   C4A 4442   3.997   5.606   7.989  0.2000  0.2302  0.1260
  278loPI   C5A 4443   4.104   6.010   7.767  0.0750 -0.4279 -0.1768
  278loPI   C6A 4444   3.918   6.387   7.871 -0.5722 -0.1367 -0.0904
  278loPI   C1B 4445   4.214   5.147   9.116  0.0193  0.1218 -0.1799
  278loPI   C2B 4446   4.060   5.017   8.690 -0.3143  0.1680  0.0054
  278loPI   C3B 4447   3.973   4.999   8.337 -0.0031 -0.5335 -0.0578
  278loPI   C4B 4448   4.143   5.024   7.986 -0.1621  0.0018  0.3103
  279loPI    C1 4449  13.940   2.722  10.503  0.1810  0.2663  0.0849
  279loPI    C2 4450  13.647   2.773  10.770 -0.0827 -0.1586 -0.1122
  279loPI    C3 4451  14.001   2.628  10.887 -0.0474  0.0708  0.0752
  279loPI   PO4 4452  13.837   2.828  10.269 -0.2807 -0.0487  0.1065
  279loPI   GL1 4453  13.755   2.606   9.855 -0.0411 -0.1653  0.2031
  279loPI   GL2 4454  13.585   2.422   9.760 -0.0175 -0.2580  0.3118
  279loPI   C1A 4455  13.858   2.670   9.437  0.3013  0.1873 -0.2290
  279loPI   C2A 4456  13.863   2.633   8.971 -0.0939 -0.3236 -0.1305
  279loPI   C3A 4457  13.817   2.697   8.586  0.1509  0.0739 -0.0569
  279loPI   C4A 4458  14.075   2.839   8.167  0.0204  0.0578 -0.0892
  279loPI   C5A 4459  14.518   2.789   7.968  0.0963 -0.3457  0.1806
  279loPI   C6A 4460  14.521   2.736   7.533 -0.5092 -0.0760  0.1876
  279loPI   C1B 4461  13.472   2.457   9.241 -0.1132 -0.0388  0.1101
  279loPI   C2B 4462  13.391   2.266   8.804 -0.1365 -0.0979 -0.1300
  279loPI   C3B 4463  13.459   2.211   8.382  0.1094  0.1287  0.2850
  279loPI   C4B 4464  13.439   2.104   7.962 -0.3757 -0.1377 -0.1523
  280loPI    C1 4465  11.806   0.657  10.320 -0.1671 -0.0243  0.0468
  280loPI    C2 4466  11.555   0.409  10.508 -0.0609 -0.1565  0.0153
  280loPI    C3 4467  11.950   0.367  10.554 -0.0398 -0.0600 -0.0745
  280loPI   PO4 4468  11.678   0.608  10.048 -0.0508  0.4066  0.5243
  280loPI   GL1 4469  11.603   0.745   9.631 -0.0977  0.0900  0.1083
  280loPI   GL2 4470  11.349   0.820   9.483 -0.1963  0.0408 -0.2047
  280loPI   C1A 4471  11.824   0.709   9.217  0.1511  0.2198 -0.0769
  280loPI   C2A 4472  12.105   0.638   8.855 -0.0954  0.2301  0.0420
  280loPI   C3A 4473  12.336   0.639   8.446 -0.2800  0.2942 -0.1608
  280loPI   C4A 4474  12.721   0.695   8.200  0.2700 -0.0056  0.0417
  280loPI   C5A 4475  13.170   0.630   8.194  0.3049  0.1187 -0.0128
  280loPI   C6A 4476  13.409   0.466   7.898  0.0162 -0.1213  0.0156
  280loPI   C1B 4477  11.343   0.812   9.072  0.0926  0.2324  0.2979
  280loPI   C2B 4478  11.545   0.704   8.667  0.0305 -0.0229  0.2995
  280loPI   C3B 4479  11.842   0.486   8.365 -0.2466  0.0316 -0.1867
  280loPI   C4B 4480  12.067   0.718   8.061 -0.1133  0.2650  0.2599
  281loPI    C1 4481  17.455  17.241  10.516  0.0528  0.0327 -0.1268
  281loPI    C2 4482  17.485  16.846  10.576 -0.0127  0.0195 -0.1780
  281loPI    C3 4483  17.275  17.072  10.831  0.1293  0.0406 -0.0783
  281loPI   PO4 4484  17.433  17.269  10.327  0.0125 -0.0834 -0.1364
  281loPI   GL1 4485  17.566  17.454   9.941  0.0247  0.0336 -0.0706
  281loPI   GL2 4486  17.570  17.183   9.838 -0.2293  0.0890  0.1757
  281loPI   C1A 4487  17.741  17.722   9.587 -0.1765 -0.0683  0.3094
  281loPI   C2A 4488  17.649  17.635   9.082  0.0920 -0.1394  0.2150
  281loPI   C3A 4489  17.564  17.779   8.692 -0.2797  0.2742  0.0480
  281loPI   C4A 4490  17.496  18.049   8.398  0.0585  0.2364  0.1064
  281loPI   C5A 4491  17.856  18.059   8.037  0.2709  0.1375  0.0372
  281loPI   C6A 4492  18.299  18.160   7.920 -0.1043  0.0192 -0.1070
  281loPI   C1B 4493  17.458  16.874   9.555 -0.3327  0.0409  0.1976
  281loPI   C2B 4494  17.172  16.912   9.209  0.3207  0.3857  0.2002
  281loPI   C3B 4495  17.123  16.969   8.847 -0.1426  0.1307  0.2339
  281loPI   C4B 4496  17.051  17.145   8.523 -0.0502  0.2604 -0.2772
  282loPI    C1 4497  17.775   5.552  10.749  0.0460  0.0876 -0.1519
  282loPI    C2 4498  17.906   5.311  11.040 -0.0636  0.0778 -0.1102
  282loPI    C3 4499  17.861   5.702  11.109  0.3000  0.1457 -0.2346
  282loPI   PO4 4500  17.907   5.499  10.575 -0.0437 -0.1809  0.1412
  282loPI   GL1 4501  17.948   5.570  10.151  0.0554  0.0527 -0.0784
  282loPI   GL2 4502  18.274   5.717  10.248 -0.0987 -0.1182  0.0499
  282loPI   C1A 4503  17.713   5.376   9.939 -0.0028  0.0013 -0.1291
  282loPI   C2A 4504  17.674   5.426   9.466 -0.2904  0.1909  0.5035
  282loPI   C3A 4505  17.658   5.611   9.005  0.1330 -0.1565 -0.1006
  282loPI   C4A 4506  17.546   5.810   8.642  0.0251  0.2486  0.1355
  282loPI   C5A 4507  17.591   6.066   8.174  0.0124 -0.1536 -0.1908
  282loPI   C6A 4508  17.776   6.455   8.300 -0.1936 -0.0466  0.0904
  282loPI   C1B 4509  18.307   5.716   9.869  0.0075  0.0326  0.0382
  282loPI   C2B 4510  18.557   5.842   9.498  0.1733 -0.2224 -0.1660
  282loPI   C3B 4511  18.780   5.966   9.100  0.2710 -0.0765  0.1994
  282loPI   C4B 4512  19.054   6.080   8.873 -0.0280 -0.0838 -0.1045
  283loPI    C1 4513  13.790  14.735  10.532  0.2733  0.1049  0.0378
  283loPI    C2 4514  14.160  14.778  10.677  0.1788  0.2066  0.2542
  283loPI    C3 4515  13.993  15.073  10.464  0.3786 -0.0064 -0.2120
  283loPI   PO4 4516  13.777  14.464  10.396 -0.0399 -0.1397  0.1126
  283loPI   GL1 4517  13.574  14.146  10.106  0.1670 -0.2186  0.1754
  283loPI   GL2 4518  13.775  13.828  10.139 -0.0831 -0.1512  0.0607
  283loPI   C1A 4519  13.666  14.101   9.618 -0.2618  0.0425  0.3272
  283loPI   C2A 4520  13.603  14.293   9.122 -0.2811 -0.1541 -0.1342
  283loPI   C3A 4521  13.804  14.183   8.692 -0.1517  0.2033  0.0836
  283loPI   C4A 4522  13.662  14.180   8.326 -0.2093  0.0547 -0.0803
  283loPI   C5A 4523  13.455  13.895   8.002  0.0420 -0.2095  0.1935
  283loPI   C6A 4524  13.236  13.700   7.776 -0.0315  0.0325  0.2674
  283loPI   C1B 4525  13.642  13.586   9.728  0.0260 -0.2931  0.0543
  283loPI   C2B 4526  13.512  13.453   9.254  0.1319 -0.1263 -0.0054
  283loPI   C3B 4527  13.439  13.220   8.943  0.0261  0.0226 -0.0493
  283loPI   C4B 4528  13.363  12.945   8.611  0.0220  0.1412 -0.0210
  284loPI    C1 4529   4.976   3.267  10.297  0.3381  0.2933  0.1860
  284loPI    C2 4530   5.021   3.004  10.595 -0.0093 -0.0649 -0.0686
  284loPI    C3 4531   4.857   3.361  10.667  0.1184 -0.0597  0.2095
  284loPI   PO4 4532   4.958   3.027  10.078  0.1036  0.0027  0.0186
  284loPI   GL1 4533   4.749   2.749   9.706 -0.0038 -0.0085  0.2146
  284loPI   GL2 4534   4.486   2.857   9.526 -0.4406 -0.0300  0.1576
  284loPI   C1A 4535   4.883   2.547   9.206  0.1154  0.1966  0.0681
  284loPI   C2A 4536   4.996   2.585   8.816  0.3364  0.0237 -0.3599
  284loPI   C3A 4537   4.981   2.886   8.454 -0.1042 -0.0674  0.1507
  284loPI   C4A 4538   5.318   3.039   8.072 -0.3072 -0.4044  0.1805
  284loPI   C5A 4539   5.440   3.162   7.685  0.1226  0.1422  0.0027
  284loPI   C6A 4540   5.360   3.533   7.391 -0.0287 -0.0475  0.0797
  284loPI   C1B 4541   4.576   2.911   9.061 -0.0812  0.0380 -0.1454
  284loPI   C2B 4542   4.824   3.146   8.827 -0.2498  0.3230  0.1042
  284loPI   C3B 4543   5.241   3.232   8.814  0.0695 -0.1203 -0.1653
  284loPI   C4B 4544   5.516   2.970   8.531 -0.1262 -0.2077  0.2320
  285loPI    C1 4545   7.538  12.929  10.373  0.0064  0.0226  0.1573
  285loPI    C2 4546   7.778  12.767  10.649  0.0673  0.0398  0.1147
  285loPI    C3 4547   7.557  13.088  10.740  0.0850  0.0436  0.1444
  285loPI   PO4 4548   7.617  12.804  10.143  0.0223  0.1794 -0.0436
  285loPI   GL1 4549   7.487  12.804   9.629  0.4726 -0.3601  0.0275
  285loPI   GL2 4550   7.755  12.712   9.601 -0.0437  0.0916 -0.0211
  285loPI   C1A 4551   7.582  13.052   9.242 -0.1165  0.1231  0.2984
  285loPI   C2A 4552   7.789  12.892   8.877  0.0009 -0.0344 -0.1852
  285loPI   C3A 4553   7.881  12.831   8.372 -0.1554 -0.0579  0.0022
  285loPI   C4A 4554   7.818  12.936   7.989 -0.2094 -0.2574 -0.3354
  285loPI   C5A 4555   7.992  12.833   7.698 -0.1743 -0.1626  0.0644
  285loPI   C6A 4556   8.100  12.494   7.515  0.0817  0.2758 -0.2530
  285loPI   C1B 4557   7.654  12.477   9.256  0.0834  0.1893 -0.2670
  285loPI   C2B 4558   7.578  12.390   8.869  0.0687 -0.0729 -0.1057
  285loPI   C3B 4559   7.603  12.457   8.374  0.1211  0.2611  0.0781
  285loPI   C4B 4560   7.788  12.372   7.896  0.0313 -0.0646  0.0338
  286loPI    C1 4561   9.746  14.805  10.290  0.1763 -0.0855 -0.1265
  286loPI    C2 4562   9.762  14.929  10.670  0.1197 -0.2303 -0.0760
  286loPI    C3 4563  10.079  14.748  10.505 -0.0029 -0.5567  0.0396
  286loPI   PO4 4564   9.460  14.727  10.245 -0.0121  0.1316 -0.0808
  286loPI   GL1 4565   9.305  14.524   9.930  0.0970  0.3197  0.1046
  286loPI   GL2 4566   9.708  14.673   9.806 -0.0545  0.1928  0.0092
  286loPI   C1A 4567   9.297  14.836   9.630 -0.1167 -0.3939 -0.1563
  286loPI   C2A 4568   9.364  14.818   9.210  0.0017  0.1205 -0.5199
  286loPI   C3A 4569   9.230  14.900   8.768  0.4243  0.2513 -0.1728
  286loPI   C4A 4570   9.231  14.820   8.351  0.0905 -0.2164  0.0644
  286loPI   C5A 4571   9.303  14.827   7.901 -0.0910  0.1659 -0.2613
  286loPI   C6A 4572   9.528  15.019   7.708 -0.1749 -0.3869  0.0604
  286loPI   C1B 4573   9.581  14.454   9.428 -0.3271  0.0238  0.3163
  286loPI   C2B 4574   9.570  14.344   8.927 -0.2238 -0.1927 -0.2225
  286loPI   C3B 4575   9.558  14.450   8.475 -0.2194  0.1333 -0.0126
  286loPI   C4B 4576   9.632  14.355   8.045  0.0789 -0.0811  0.4500
  287loPI    C1 4577  16.471  12.148  10.676  0.2895  0.0604 -0.0638
  287loPI    C2 4578  16.369  11.778  10.789 -0.0401  0.1437 -0.0780
  287loPI    C3 4579  16.493  12.043  11.061  0.0079  0.0823 -0.0397
  287loPI   PO4 4580  16.298  12.231  10.563  0.0708 -0.0990 -0.1457
  287loPI   GL1 4581  16.184  12.503  10.226  0.0595 -0.0758  0.1142
  287loPI   GL2 4582  16.381  12.648  10.056 -0.0556 -0.1662  0.0164
  287loPI   C1A 4583  16.217  12.264   9.757  0.0107  0.2428 -0.0751
  287loPI   C2A 4584  16.068  12.086   9.240  0.0185 -0.3584  0.0906
  287loPI   C3A 4585  15.946  12.095   8.752  0.1751 -0.3473  0.0324
  287loPI   C4A 4586  15.683  12.049   8.383 -0.1896 -0.2800  0.0474
  287loPI   C5A 4587  15.512  12.157   7.952  0.1154 -0.2193 -0.0400
  287loPI   C6A 4588  15.570  12.190   7.552 -0.1087 -0.1137 -0.2009
  287loPI   C1B 4589  16.565  12.930   9.648 -0.2722  0.1690  0.0330
  287loPI   C2B 4590  16.486  12.888   9.155  0.0316  0.0453 -0.0018
  287loPI   C3B 4591  16.390  12.836   8.757 -0.1226 -0.0462  0.3866
  287loPI   C4B 4592  16.313  12.714   8.370  0.0297  0.1281 -0.1188
  288loPI    C1 4593  10.662   2.047  10.053 -0.0758 -0.0272 -0.0240
  288loPI    C2 4594  10.442   1.812  10.291  0.0495 -0.0208  0.0993
  288loPI    C3 4595  10.744   2.026  10.444  0.1346 -0.0205 -0.0666
  288loPI   PO4 4596  10.510   1.996   9.845  0.0445 -0.1735 -0.1064
  288loPI   GL1 4597  10.558   2.181   9.475  0.0852 -0.0236 -0.0008
  288loPI   GL2 4598  10.871   2.334   9.675 -0.2315  0.1075 -0.0712
  288loPI   C1A 4599  10.595   2.231   9.022 -0.0759 -0.0502 -0.0245
  288loPI   C2A 4600  10.900   2.126   8.616 -0.1209  0.1167  0.2276
  288loPI   C3A 4601  10.859   1.851   8.203 -0.0264 -0.0476 -0.1494
  288loPI   C4A 4602  10.851   1.516   7.983 -0.2960  0.2159 -0.3017
  288loPI   C5A 4603  11.065   1.433   7.612  0.1756 -0.0744  0.2624
  288loPI   C6A 4604  10.995   1.746   7.365  0.0000  0.0902  0.0687
  288loPI   C1B 4605  11.039   2.156   9.231  0.0295  0.0301 -0.0137
  288loPI   C2B 4606  11.269   1.997   8.952 -0.2733  0.0536  0.1043
  288loPI   C3B 4607  11.273   1.825   8.509  0.2318 -0.1235 -0.2341
  288loPI   C4B 4608  11.350   1.595   8.100  0.1631 -0.4159 -0.0182
  289loPI    C1 4609  14.722   6.223  10.600  0.0372 -0.2477 -0.1261
  289loPI    C2 4610  14.424   6.429  10.771  0.2955  0.0571 -0.0332
  289loPI    C3 4611  14.512   6.060  10.899 -0.1301 -0.0932 -0.1575
  289loPI   PO4 4612  14.634   6.278  10.302  0.0359 -0.2256  0.0044
  289loPI   GL1 4613  14.354   6.415   9.958  0.1830  0.2276  0.0083
  289loPI   GL2 4614  14.050   6.554   9.945  0.2826  0.2479  0.0193
  289loPI   C1A 4615  14.515   6.182   9.515  0.0875 -0.1248  0.3668
  289loPI   C2A 4616  14.632   6.124   9.135  0.1990  0.4915  0.2693
  289loPI   C3A 4617  14.637   5.891   8.742 -0.1668  0.1943 -0.2100
  289loPI   C4A 4618  14.868   5.590   8.635  0.0056 -0.0272 -0.1582
  289loPI   C5A 4619  15.260   5.321   8.516 -0.0192 -0.4074  0.1017
  289loPI   C6A 4620  15.376   5.338   8.033 -0.1778  0.3395  0.0696
  289loPI   C1B 4621  14.058   6.465   9.494 -0.0893 -0.3802 -0.2008
  289loPI   C2B 4622  13.854   6.604   9.016  0.2890  0.2150  0.1791
  289loPI   C3B 4623  13.545   6.799   8.679  0.0259 -0.0934  0.0633
  289loPI   C4B 4624  13.458   6.836   8.281  0.1942 -0.2959 -0.0348
  290loPI    C1 4625  18.561  11.239  10.505  0.1740 -0.0829 -0.0499
  290loPI    C2 4626  18.941  11.123  10.553  0.1934 -0.0714 -0.1720
  290loPI    C3 4627  18.705  11.171  10.872  0.3125 -0.0172 -0.0911
  290loPI   PO4 4628  18.477  10.964  10.249 -0.0601  0.2879 -0.0608
  290loPI   GL1 4629  18.330  10.775   9.970 -0.0990 -0.1434 -0.0892
  290loPI   GL2 4630  18.394  10.498   9.841 -0.1768  0.2136  0.1362
  290loPI   C1A 4631  18.104  10.737   9.546  0.2179  0.0183 -0.2520
  290loPI   C2A 4632  18.051  10.862   9.094 -0.1622 -0.1271  0.0652
  290loPI   C3A 4633  18.118  10.730   8.673 -0.3228  0.2741  0.0102
  290loPI   C4A 4634  18.201  10.796   8.280 -0.1345 -0.2032 -0.2204
  290loPI   C5A 4635  18.298  10.789   7.760  0.0197  0.2265 -0.0114
  290loPI   C6A 4636  18.291  10.677   7.272  0.0077  0.2533 -0.3188
  290loPI   C1B 4637  18.501  10.526   9.422 -0.1419 -0.1123 -0.1637
  290loPI   C2B 4638  18.484  10.602   9.000  0.0827 -0.1550 -0.3249
  290loPI   C3B 4639  18.662  10.567   8.535 -0.4517 -0.0203 -0.1830
  290loPI   C4B 4640  18.744  10.397   8.173  0.0484  0.1928 -0.0472
  291loPI    C1 4641  13.784   6.513  10.426 -0.0804  0.0072  0.1039
  291loPI    C2 4642  13.578   6.248  10.643 -0.0798 -0.0250  0.0653
  291loPI    C3 4643  13.819   6.511  10.824 -0.0394 -0.0858  0.1001
  291loPI   PO4 4644  13.675   6.568  10.273 -0.1461 -0.4984 -0.1031
  291loPI   GL1 4645  13.537   6.563   9.885  0.2733  0.0805  0.0310
  291loPI   GL2 4646  13.471   6.835   9.868  0.1072  0.3131  0.0279
  291loPI   C1A 4647  13.598   6.693   9.427  0.0088  0.1845  0.0326
  291loPI   C2A 4648  13.668   7.075   9.178  0.0405 -0.3496 -0.2882
  291loPI   C3A 4649  13.741   7.264   8.746 -0.0574  0.0922  0.1001
  291loPI   C4A 4650  14.174   7.375   8.502 -0.1432  0.0210  0.0540
  291loPI   C5A 4651  14.327   7.587   8.193  0.0376 -0.3634  0.1315
  291loPI   C6A 4652  14.704   7.765   8.073 -0.0564 -0.0820  0.2755
  291loPI   C1B 4653  13.371   7.136   9.561  0.1247  0.2487  0.0227
  291loPI   C2B 4654  13.409   7.447   9.356  0.2470 -0.1517  0.0426
  291loPI   C3B 4655  13.383   7.603   8.996 -0.1217 -0.4683 -0.0913
  291loPI   C4B 4656  13.440   7.773   8.555 -0.2944  0.1370  0.0096
  292loPI    C1 4657  14.464   1.430  10.411 -0.0477 -0.2976 -0.1285
  292loPI    C2 4658  14.414   1.207  10.740 -0.1687 -0.0022  0.0570
  292loPI    C3 4659  14.168   1.514  10.667  0.1060  0.1850 -0.1008
  292loPI   PO4 4660  14.484   1.242  10.234 -0.1263 -0.1313 -0.0539
  292loPI   GL1 4661  14.666   0.952   9.826  0.0360 -0.0705  0.2417
  292loPI   GL2 4662  14.899   0.899   9.663 -0.1955 -0.2057  0.0982
  292loPI   C1A 4663  14.493   1.001   9.407  0.2811  0.0347  0.2437
  292loPI   C2A 4664  14.137   1.326   9.271 -0.0995 -0.3190  0.0639
  292loPI   C3A 4665  14.049   1.704   9.064 -0.0280  0.2485 -0.0973
  292loPI   C4A 4666  14.140   1.762   8.653 -0.0088 -0.6772  0.2383
  292loPI   C5A 4667  14.192   1.758   8.212  0.1084 -0.2268  0.4366
  292loPI   C6A 4668  14.252   1.901   7.795  0.0554 -0.4094 -0.1820
  292loPI   C1B 4669  15.304   0.805   9.426  0.3830  0.3952  0.1678
  292loPI   C2B 4670  15.609   1.007   9.200  0.1646  0.1947  0.1205
  292loPI   C3B 4671  15.603   1.138   8.811  0.2417 -0.1506  0.1051
  292loPI   C4B 4672  15.397   1.189   8.443  0.1700 -0.0421  0.0458
  293loPI    C1 4673  13.637   7.509  10.871  0.0526  0.2085 -0.1834
  293loPI    C2 4674  14.013   7.388  10.935 -0.1194 -0.1176  0.2647
  293loPI    C3 4675  13.914   7.772  10.991  0.1802  0.0080 -0.0320
  293loPI   PO4 4676  13.526   7.371  10.531 -0.0455 -0.2398 -0.1125
  293loPI   GL1 4677  13.779   7.503  10.082  0.1300  0.0956 -0.0503
  293loPI   GL2 4678  13.572   7.363   9.943  0.1998  0.2119 -0.1620
  293loPI   C1A 4679  13.792   7.842   9.764  0.1983 -0.1454 -0.1928
  293loPI   C2A 4680  13.573   7.942   9.408  0.1208 -0.0519 -0.0820
  293loPI   C3A 4681  13.673   8.000   9.012 -0.3174  0.2465  0.0595
  293loPI   C4A 4682  13.740   8.184   8.651 -0.2193 -0.1116 -0.1313
  293loPI   C5A 4683  13.984   8.194   8.321  0.0077  0.2726 -0.0638
  293loPI   C6A 4684  14.299   8.077   8.057  0.0299 -0.2931 -0.2559
  293loPI   C1B 4685  13.301   7.689   9.767 -0.2583 -0.1705  0.0645
  293loPI   C2B 4686  13.075   7.835   9.416 -0.0495  0.1784  0.0070
  293loPI   C3B 4687  13.115   8.048   9.068  0.1256  0.1671  0.2104
  293loPI   C4B 4688  13.199   8.190   8.717  0.1353  0.1359  0.3379
  294loPI    C1 4689   2.163  10.230   9.815  0.3103 -0.0048 -0.0054
  294loPI    C2 4690   2.168  10.094  10.191 -0.2570 -0.0185  0.0053
  294loPI    C3 4691   2.300  10.462  10.111  0.2002 -0.1428  0.1557
  294loPI   PO4 4692   2.188   9.993   9.701  0.0566 -0.1915  0.3716
  294loPI   GL1 4693   2.075   9.903   9.304 -0.0984 -0.0236  0.5744
  294loPI   GL2 4694   1.640   9.858   9.313  0.2645  0.0991  0.1222
  294loPI   C1A 4695   2.032   9.499   9.128 -0.2612  0.1117  0.0888
  294loPI   C2A 4696   2.155   9.217   8.737 -0.0250 -0.1403 -0.0004
  294loPI   C3A 4697   2.120   9.148   8.189  0.1079  0.0303 -0.0449
  294loPI   C4A 4698   2.021   8.898   7.851  0.1042  0.1738  0.2053
  294loPI   C5A 4699   1.818   8.570   7.551 -0.0128 -0.0640 -0.0187
  294loPI   C6A 4700   1.659   8.470   7.202  0.0201 -0.1537  0.0138
  294loPI   C1B 4701   1.755   9.870   8.887 -0.0425  0.0295  0.0533
  294loPI   C2B 4702   2.016  10.056   8.539 -0.1356  0.1127 -0.1033
  294loPI   C3B 4703   2.250  10.196   8.146 -0.0265  0.3210  0.1786
  294loPI   C4B 4704   2.403  10.152   7.865 -0.1529 -0.0729  0.0966
  295loPI    C1 4705  15.767  17.708  10.872 -0.1689  0.1392  0.0795
  295loPI    C2 4706  15.480  17.986  10.884 -0.1965  0.1140  0.0043
  295loPI    C3 4707  15.781  17.998  11.147 -0.3739  0.0236  0.2143
  295loPI   PO4 4708  15.723  17.691  10.530 -0.1104 -0.0664 -0.2728
  295loPI   GL1 4709  15.911  17.978  10.148  0.0385  0.2889  0.6308
  295loPI   GL2 4710  16.095  18.153  10.019  0.3060  0.0492  0.1876
  295loPI   C1A 4711  15.805  17.555   9.931  0.0053 -0.2184  0.3893
  295loPI   C2A 4712  15.782  17.302   9.601  0.3267  0.3446 -0.0409
  295loPI   C3A 4713  15.721  17.143   9.307 -0.0242  0.0613  0.0305
  295loPI   C4A 4714  15.725  17.210   8.858 -0.0925  0.0833 -0.1936
  295loPI   C5A 4715  15.717  17.095   8.496  0.0838 -0.0804 -0.2919
  295loPI   C6A 4716  15.600  17.059   8.090 -0.4369  0.3250 -0.2080
  295loPI   C1B 4717  15.946  18.096   9.620  0.1086  0.0074 -0.1857
  295loPI   C2B 4718  15.784  18.086   9.170 -0.1135 -0.0773 -0.0372
  295loPI   C3B 4719  15.617  18.164   8.653 -0.1041  0.0160 -0.2955
  295loPI   C4B 4720  15.700  18.531   8.401 -0.0349 -0.0154  0.1169
  296loPI    C1 4721   6.923  12.307  10.252 -0.0607 -0.0044 -0.1003
  296loPI    C2 4722   7.022  12.046  10.538 -0.0460  0.1141  0.0035
  296loPI    C3 4723   6.946  12.428  10.632 -0.0998  0.1404 -0.1430
  296loPI   PO4 4724   7.099  12.191  10.004 -0.0231  0.0477  0.0067
  296loPI   GL1 4725   7.007  12.083   9.602  0.0412  0.2972 -0.1031
  296loPI   GL2 4726   7.236  12.262   9.395  0.0783  0.0256  0.3065
  296loPI   C1A 4727   6.971  11.828   9.301 -0.0501 -0.2079  0.1593
  296loPI   C2A 4728   7.032  11.789   8.814  0.0942  0.2333  0.2948
  296loPI   C3A 4729   6.914  11.759   8.322  0.2261 -0.1043 -0.0440
  296loPI   C4A 4730   6.996  11.632   7.938  0.1371  0.1235 -0.1463
  296loPI   C5A 4731   7.181  11.272   7.762 -0.1316 -0.0298 -0.2607
  296loPI   C6A 4732   7.380  11.152   7.332  0.1502  0.0440  0.0350
  296loPI   C1B 4733   7.034  12.271   9.009 -0.0329 -0.2698 -0.2881
  296loPI   C2B 4734   7.119  12.303   8.677  0.0197 -0.0371 -0.2218
  296loPI   C3B 4735   7.195  12.227   8.408  0.1370  0.0126  0.0342
  296loPI   C4B 4736   7.327  12.101   8.079 -0.1986 -0.2653  0.1223
  297loPI    C1 4737   4.165  12.427  10.280 -0.0842  0.1202  0.0730
  297loPI    C2 4738   4.396  12.734  10.391 -0.0268  0.1154 -0.0319
  297loPI    C3 4739   4.105  12.605  10.633  0.0366  0.1650  0.0714
  297loPI   PO4 4740   4.184  12.480  10.025 -0.2031  0.1789  0.1374
  297loPI   GL1 4741   4.203  12.554   9.584  0.1498 -0.0375 -0.2600
  297loPI   GL2 4742   4.240  12.830   9.497  0.0355 -0.2395  0.0393
  297loPI   C1A 4743   4.048  12.446   9.130 -0.1934  0.2853 -0.0737
  297loPI   C2A 4744   3.999  12.274   8.713  0.0684 -0.0355  0.1087
  297loPI   C3A 4745   4.090  12.116   8.378 -0.3291  0.1724 -0.0775
  297loPI   C4A 4746   4.475  12.011   8.121  0.1261  0.1247  0.2039
  297loPI   C5A 4747   4.887  11.933   8.053 -0.0080 -0.1843 -0.0966
  297loPI   C6A 4748   5.232  12.062   7.772 -0.0241 -0.2203 -0.1983
  297loPI   C1B 4749   4.218  13.023   9.151  0.0461 -0.1451  0.0425
  297loPI   C2B 4750   4.291  13.180   8.710  0.2891 -0.2082  0.2021
  297loPI   C3B 4751   4.313  13.287   8.283 -0.4645 -0.0436  0.0953
  297loPI   C4B 4752   4.707  13.352   8.025 -0.2226  0.0341 -0.1143
  298loPI    C1 4753   1.618  12.197  10.284 -0.0435  0.0238 -0.1385
  298loPI    C2 4754   1.359  12.184  10.589  0.0202 -0.0532 -0.0875
  298loPI    C3 4755   1.594  12.504  10.540  0.1092 -0.1001  0.0272
  298loPI   PO4 4756   1.500  12.132  10.085  0.1816  0.0620  0.1451
  298loPI   GL1 4757   1.406  12.329   9.757 -0.2619 -0.1700  0.0897
  298loPI   GL2 4758   1.559  12.161   9.452 -0.0143  0.0503 -0.2564
  298loPI   C1A 4759   1.149  12.556   9.584 -0.0260 -0.1402 -0.1808
  298loPI   C2A 4760   0.925  12.573   9.107  0.0114  0.3004  0.0374
  298loPI   C3A 4761   0.986  12.490   8.630  0.1091 -0.1845  0.1430
  298loPI   C4A 4762   0.968  12.463   8.183 -0.2455  0.0129 -0.0482
  298loPI   C5A 4763   0.697  12.248   7.899 -0.0668 -0.3491  0.1070
  298loPI   C6A 4764   0.988  12.191   7.634  0.2088  0.2322  0.0878
  298loPI   C1B 4765   1.467  12.462   9.184 -0.0524  0.2579  0.2876
  298loPI   C2B 4766   1.445  12.508   8.694  0.0262  0.3226  0.0660
  298loPI   C3B 4767   1.494  12.295   8.237 -0.1259  0.1023  0.0348
  298loPI   C4B 4768   1.401  12.339   7.815  0.2937 -0.0875 -0.1940
  299loPI    C1 4769   0.184  11.621  10.421  0.2309  0.0669  0.0542
  299loPI    C2 4770   0.477  11.859  10.554  0.3101 -0.1218  0.2223
  299loPI    C3 4771   0.562  11.557  10.306  0.2002  0.0638 -0.0459
  299loPI   PO4 4772  -0.009  11.756  10.300  0.0714  0.1583 -0.0066
  299loPI   GL1 4773  -0.154  11.851   9.859 -0.0179  0.2327  0.1362
  299loPI   GL2 4774   0.200  11.710   9.855 -0.0366  0.1655 -0.0192
  299loPI   C1A 4775  -0.159  11.536   9.524  0.0485 -0.2435 -0.1484
  299loPI   C2A 4776   0.010  11.614   9.099 -0.2179 -0.2251  0.0215
  299loPI   C3A 4777   0.183  11.478   8.733  0.3383  0.2118 -0.0074
  299loPI   C4A 4778   0.336  11.564   8.248  0.1783  0.1826  0.2651
  299loPI   C5A 4779   0.328  11.269   7.927 -0.3428  0.1107  0.2452
  299loPI   C6A 4780   0.574  10.947   7.763 -0.3792 -0.3411  0.2747
  299loPI   C1B 4781   0.332  11.815   9.383 -0.1343  0.0855 -0.1041
  299loPI   C2B 4782   0.407  11.864   9.071  0.1964 -0.1395  0.1693
  299loPI   C3B 4783   0.296  11.949   8.616 -0.3022  0.0229 -0.2782
  299loPI   C4B 4784  -0.107  11.840   8.413  0.0813 -0.0308 -0.0423
  300loPI    C1 4785  13.315   1.563  10.347  0.2442 -0.1162 -0.2568
  300loPI    C2 4786  13.487   1.416  10.677  0.1138  0.0151 -0.1287
  300loPI    C3 4787  13.285   1.761  10.693 -0.1682 -0.1398 -0.2744
  300loPI   PO4 4788  13.513   1.494  10.117  0.4853  0.0185 -0.1508
  300loPI   GL1 4789  13.314   1.564   9.622 -0.0523  0.0685 -0.2686
  300loPI   GL2 4790  13.118   1.384   9.557  0.4030  0.0230 -0.1450
  300loPI   C1A 4791  13.666   1.411   9.206  0.3316 -0.2208  0.0175
  300loPI   C2A 4792  13.922   1.209   8.866 -0.0853 -0.0090  0.2042
  300loPI   C3A 4793  14.035   1.029   8.495  0.0892  0.0918  0.2499
  300loPI   C4A 4794  14.239   0.754   8.116 -0.0989  0.0784  0.1462
  300loPI   C5A 4795  14.429   0.515   7.817 -0.2828 -0.3424  0.0798
  300loPI   C6A 4796  14.593   0.199   7.661 -0.0477  0.1643  0.0416
  300loPI   C1B 4797  13.105   1.527   9.192 -0.0908 -0.2130  0.1234
  300loPI   C2B 4798  13.094   1.819   8.794  0.0998  0.0290  0.2032
  300loPI   C3B 4799  13.179   1.768   8.365 -0.1678 -0.1862 -0.1557
  300loPI   C4B 4800  13.172   1.707   7.926  0.1206  0.3020 -0.1279
  301loPI    C1 4801   4.924   1.156   9.916  0.1279  0.0626 -0.0231
  301loPI    C2 4802   4.853   1.075  10.301  0.1729  0.0416 -0.0192
  301loPI    C3 4803   5.059   1.402  10.201  0.1757  0.0382 -0.0245
  301loPI   PO4 4804   4.693   0.990   9.783 -0.0532  0.2144  0.3524
  301loPI   GL1 4805   4.511   0.944   9.401 -0.3751 -0.4202  0.2089
  301loPI   GL2 4806   4.783   0.903   9.092  0.0551 -0.0389  0.2865
  301loPI   C1A 4807   4.168   1.056   9.074 -0.1570  0.5142  0.1345
  301loPI   C2A 4808   3.975   1.259   8.698  0.2362  0.0354 -0.1611
  301loPI   C3A 4809   3.613   1.547   8.452  0.3381  0.3106 -0.1179
  301loPI   C4A 4810   3.619   1.513   8.021  0.0320  0.1521 -0.0296
  301loPI   C5A 4811   3.976   1.686   7.864 -0.0145 -0.1493 -0.0939
  301loPI   C6A 4812   4.192   1.997   7.687 -0.2160 -0.1367 -0.1230
  301loPI   C1B 4813   4.952   1.156   8.800 -0.1549 -0.1578  0.1214
  301loPI   C2B 4814   5.095   1.375   8.431  0.0267  0.1389 -0.0400
  301loPI   C3B 4815   5.013   1.185   8.065  0.0939 -0.0286  0.2465
  301loPI   C4B 4816   5.036   0.818   7.828 -0.1069  0.0537  0.0791
  302loPI    C1 4817  10.231  10.680  10.446  0.0616  0.0993  0.0683
  302loPI    C2 4818  10.312  10.498  10.793  0.1939 -0.1060 -0.0681
  302loPI    C3 4819   9.937  10.607  10.708  0.1435 -0.1492  0.0937
  302loPI   PO4 4820  10.249  10.657  10.237  0.1357 -0.1862  0.0703
  302loPI   GL1 4821  10.116  10.797   9.846 -0.0788  0.1028  0.0734
  302loPI   GL2 4822  10.182  11.181   9.919 -0.0037  0.2061  0.1846
  302loPI   C1A 4823   9.930  10.697   9.441  0.0343  0.0016  0.0247
  302loPI   C2A 4824  10.018  10.765   9.072  0.0729 -0.1209  0.0982
  302loPI   C3A 4825  10.076  10.906   8.682 -0.1107 -0.1899 -0.0908
  302loPI   C4A 4826  10.221  10.785   8.324 -0.4095  0.0111 -0.0206
  302loPI   C5A 4827  10.486  10.610   8.050 -0.1601  0.0517  0.1537
  302loPI   C6A 4828  10.908  10.623   8.006  0.2160  0.0023 -0.1214
  302loPI   C1B 4829  10.140  11.216   9.530  0.2081  0.2019 -0.0021
  302loPI   C2B 4830  10.124  11.216   9.105  0.0049 -0.0605 -0.0394
  302loPI   C3B 4831   9.992  11.516   8.690 -0.0980  0.1896 -0.1489
  302loPI   C4B 4832   9.761  11.632   8.394 -0.0514 -0.0937  0.2433
  303loPI    C1 4833   2.340   3.406  10.581 -0.0231 -0.1463 -0.2905
  303loPI    C2 4834   2.433   3.022  10.639 -0.0317 -0.1085 -0.0123
  303loPI    C3 4835   2.713   3.304  10.680 -0.1168 -0.0510  0.1863
  303loPI   PO4 4836   2.258   3.406  10.396  0.0305  0.0319 -0.0999
  303loPI   GL1 4837   1.923   3.354  10.132  0.2583  0.0563 -0.0572
  303loPI   GL2 4838   1.690   3.358   9.951  0.2569  0.1592 -0.2721
  303loPI   C1A 4839   2.238   3.306   9.736 -0.2098  0.0844  0.1760
  303loPI   C2A 4840   2.158   3.278   9.314  0.0018 -0.2861 -0.1042
  303loPI   C3A 4841   2.035   3.247   8.916  0.4066  0.0715  0.1564
  303loPI   C4A 4842   2.121   3.327   8.523 -0.1144 -0.1906 -0.3104
  303loPI   C5A 4843   2.007   3.398   8.102 -0.1051  0.1999  0.0095
  303loPI   C6A 4844   2.284   3.578   7.704  0.1437  0.2353  0.1791
  303loPI   C1B 4845   1.718   3.513   9.546  0.0967 -0.1871 -0.3930
  303loPI   C2B 4846   1.661   3.537   9.113  0.1405 -0.2454 -0.2467
  303loPI   C3B 4847   1.456   3.680   8.780  0.1979  0.2618 -0.2159
  303loPI   C4B 4848   1.348   3.741   8.336 -0.0820 -0.1588  0.0002
  304loPI    C1 4849   7.838   4.902  10.155  0.2522  0.0135 -0.2181
  304loPI    C2 4850   8.066   4.669  10.387  0.0384  0.0729  0.0583
  304loPI    C3 4851   7.685   4.736  10.485 -0.1207 -0.0751 -0.4300
  304loPI   PO4 4852   8.021   4.967  10.015  0.0405 -0.0671 -0.0172
  304loPI   GL1 4853   8.273   5.089   9.644 -0.2579  0.1825  0.0576
  304loPI   GL2 4854   7.930   5.047   9.515  0.0480 -0.3613 -0.0487
  304loPI   C1A 4855   8.301   4.869   9.231  0.0775 -0.1724  0.0148
  304loPI   C2A 4856   8.456   4.813   8.847 -0.1559  0.6032 -0.0917
  304loPI   C3A 4857   8.529   4.808   8.397  0.5510  0.0895 -0.4440
  304loPI   C4A 4858   8.485   4.748   7.967 -0.0451  0.0180  0.1069
  304loPI   C5A 4859   8.584   4.378   7.723 -0.0368  0.2990  0.1764
  304loPI   C6A 4860   8.466   4.059   7.415 -0.0105  0.0257 -0.2903
  304loPI   C1B 4861   7.878   5.134   9.036 -0.0012  0.0667 -0.0216
  304loPI   C2B 4862   7.819   5.239   8.688  0.0064 -0.2522  0.3907
  304loPI   C3B 4863   7.716   5.206   8.217 -0.2193 -0.3830 -0.1047
  304loPI   C4B 4864   7.508   5.603   8.078 -0.2805  0.3332  0.2067
  305loPI    C1 4865  12.761   1.023  10.006  0.2008  0.1464 -0.0369
  305loPI    C2 4866  12.917   1.369  10.135  0.0013  0.0406  0.5143
  305loPI    C3 4867  13.003   1.027  10.324 -0.0476 -0.1723  0.1617
  305loPI   PO4 4868  12.583   1.072   9.799 -0.0620 -0.1165 -0.1817
  305loPI   GL1 4869  12.570   1.399   9.560  0.1381 -0.0730  0.2013
  305loPI   GL2 4870  12.716   1.535   9.749  0.2349  0.1049  0.0755
  305loPI   C1A 4871  12.656   1.408   9.151  0.3325  0.1207  0.1034
  305loPI   C2A 4872  12.789   1.434   8.745  0.1206  0.0569  0.2168
  305loPI   C3A 4873  13.000   1.279   8.429  0.0355  0.1198 -0.0481
  305loPI   C4A 4874  13.110   1.133   8.105  0.3083 -0.0687  0.1083
  305loPI   C5A 4875  13.410   1.342   7.711 -0.1235  0.2079  0.2183
  305loPI   C6A 4876  13.553   1.290   7.282 -0.2493  0.1568  0.0940
  305loPI   C1B 4877  12.793   1.857   9.324 -0.0781 -0.1771 -0.3149
  305loPI   C2B 4878  12.608   1.991   8.909  0.3146  0.5420 -0.1077
  305loPI   C3B 4879  12.592   1.925   8.472 -0.3852  0.1202  0.3061
  305loPI   C4B 4880  12.684   1.554   8.212 -0.0046  0.1692 -0.1996
  306loPI    C1 4881  18.688  17.417  10.352  0.1625  0.0131  0.1671
  306loPI    C2 4882  18.464  17.133  10.522  0.0988 -0.0280  0.0165
  306loPI    C3 4883  18.758  17.307  10.730  0.0147 -0.0688  0.1715
  306loPI   PO4 4884  18.551  17.399  10.088 -0.3939  0.0454 -0.0003
  306loPI   GL1 4885  18.434  17.734   9.889  0.0151  0.0265 -0.0153
  306loPI   GL2 4886  18.698  17.715   9.705  0.2572 -0.0328 -0.1792
  306loPI   C1A 4887  18.269  17.745   9.383 -0.0835  0.0165  0.1032
  306loPI   C2A 4888  18.214  17.648   8.989  0.0597 -0.2030 -0.1989
  306loPI   C3A 4889  18.040  17.581   8.696 -0.0322 -0.0942 -0.0185
  306loPI   C4A 4890  17.936  17.583   8.267  0.0343 -0.2107 -0.1327
  306loPI   C5A 4891  17.859  17.317   7.843 -0.2468  0.1671 -0.2269
  306loPI   C6A 4892  17.465  17.229   7.554  0.0306  0.0150 -0.2749
  306loPI   C1B 4893  18.733  17.554   9.307  0.1567  0.2883  0.2061
  306loPI   C2B 4894  18.667  17.517   8.939 -0.2119 -0.1038  0.1312
  306loPI   C3B 4895  18.594  17.698   8.581 -0.1543 -0.1323 -0.1935
  306loPI   C4B 4896  18.324  17.894   8.370  0.3922  0.0310 -0.3326
  307loPI    C1 4897  18.206   9.801  10.064  0.3526  0.2465  0.0914
  307loPI    C2 4898  17.819   9.854  10.150  0.2434 -0.1507 -0.1286
  307loPI    C3 4899  18.036  10.160  10.011  0.0041  0.0688 -0.0290
  307loPI   PO4 4900  18.223   9.677   9.922 -0.1860  0.3245  0.0658
  307loPI   GL1 4901  18.187   9.675   9.469 -0.0147  0.1044 -0.0036
  307loPI   GL2 4902  18.409   9.510   9.470  0.0944  0.0829 -0.0604
  307loPI   C1A 4903  18.172   9.839   8.986 -0.0524 -0.0230 -0.2037
  307loPI   C2A 4904  17.974   9.888   8.570  0.0723  0.2856 -0.1320
  307loPI   C3A 4905  17.547   9.848   8.386 -0.0065  0.4717 -0.3176
  307loPI   C4A 4906  17.124  10.149   8.430  0.2543  0.0485  0.0508
  307loPI   C5A 4907  16.817  10.248   8.181 -0.3672 -0.1860  0.0466
  307loPI   C6A 4908  16.341  10.264   8.060  0.2679 -0.0441 -0.2152
  307loPI   C1B 4909  18.622   9.621   9.022 -0.3473 -0.1509  0.1556
  307loPI   C2B 4910  18.716   9.276   8.713  0.0045 -0.1288  0.1807
  307loPI   C3B 4911  18.755   9.258   8.301 -0.2801  0.0068 -0.1919
  307loPI   C4B 4912  18.922   9.371   7.949  0.1750  0.1409  0.0130
  308loPI    C1 4913  12.662  14.696  10.168  0.0435  0.0950 -0.1426
  308loPI    C2 4914  12.736  15.077  10.073  0.0479  0.0869 -0.1716
  308loPI    C3 4915  12.968  14.786   9.927  0.0330  0.0716 -0.1648
  308loPI   PO4 4916  12.288  14.718  10.117  0.1344  0.1013 -0.0225
  308loPI   GL1 4917  12.168  14.796   9.763 -0.0251 -0.1917  0.1434
  308loPI   GL2 4918  12.212  15.054   9.708 -0.2488  0.0807  0.5080
  308loPI   C1A 4919  12.217  14.797   9.266 -0.0217  0.0003 -0.1765
  308loPI   C2A 4920  12.248  14.849   8.836 -0.1939  0.1421 -0.0109
  308loPI   C3A 4921  12.156  14.945   8.468 -0.0394 -0.0281 -0.2617
  308loPI   C4A 4922  11.951  14.961   8.037  0.0681 -0.2140 -0.3272
  308loPI   C5A 4923  11.564  14.676   8.034  0.0845 -0.1056  0.1046
  308loPI   C6A 4924  11.371  14.422   7.753 -0.0976 -0.1047 -0.0674
  308loPI   C1B 4925  12.706  15.129   9.579 -0.1446 -0.2425  0.0733
  308loPI   C2B 4926  12.864  15.109   9.236 -0.0677  0.1970 -0.1219
  308loPI   C3B 4927  13.059  15.011   8.901 -0.1595  0.3487  0.2321
  308loPI   C4B 4928  13.092  14.910   8.509  0.1614  0.1502 -0.0195
  309loPI    C1 4929  11.127  17.167  10.247 -0.4099 -0.0434 -0.0839
  309loPI    C2 4930  10.932  17.277  10.578 -0.0254  0.0988  0.1022
  309loPI    C3 4931  11.221  17.002  10.599  0.2359  0.3558 -0.0532
  309loPI   PO4 4932  11.108  17.357  10.087  0.2226  0.0579 -0.1586
  309loPI   GL1 4933  10.860  17.505   9.760 -0.0890 -0.2620 -0.0177
  309loPI   GL2 4934  11.056  17.758   9.518 -0.4066 -0.0916 -0.1904
  309loPI   C1A 4935  10.634  17.532   9.414 -0.0988  0.2866 -0.2683
  309loPI   C2A 4936  10.630  17.501   8.964  0.1343 -0.0232  0.1836
  309loPI   C3A 4937  10.887  17.415   8.607 -0.1458 -0.2232 -0.1374
  309loPI   C4A 4938  10.926  17.105   8.317 -0.2215 -0.0061 -0.0568
  309loPI   C5A 4939  11.009  16.968   7.928 -0.0090  0.1382 -0.4219
  309loPI   C6A 4940  11.226  16.963   7.524 -0.3337 -0.2357  0.1368
  309loPI   C1B 4941  11.131  17.625   9.061  0.1220  0.3692 -0.0297
  309loPI   C2B 4942  11.325  17.779   8.698  0.0916  0.1267 -0.0099
  309loPI   C3B 4943  11.259  17.744   8.256 -0.1926 -0.1401  0.0195
  309loPI   C4B 4944  10.987  17.505   7.998 -0.2124  0.1519 -0.0819
  310loPI    C1 4945   8.246  15.402  10.498  0.1011  0.0530  0.0202
  310loPI    C2 4946   8.278  15.126  10.785 -0.0286  0.0801  0.0613
  310loPI    C3 4947   7.934  15.169  10.587 -0.0116  0.2182  0.0611
  310loPI   PO4 4948   8.359  15.385  10.321  0.0207 -0.1033  0.2175
  310loPI   GL1 4949   8.609  15.224   9.990  0.0421  0.1348 -0.0490
  310loPI   GL2 4950   8.438  15.002   9.876  0.0198  0.0385 -0.1077
  310loPI   C1A 4951   8.603  15.313   9.572  0.2297  0.1483  0.4302
  310loPI   C2A 4952   8.469  15.208   9.159 -0.1286 -0.1922 -0.0484
  310loPI   C3A 4953   8.430  15.137   8.699  0.0425  0.5230  0.1076
  310loPI   C4A 4954   8.393  15.239   8.280  0.0630 -0.2811  0.1607
  310loPI   C5A 4955   8.202  15.478   8.001 -0.1156  0.0262  0.1363
  310loPI   C6A 4956   7.966  15.538   7.624 -0.1572 -0.1801  0.3531
  310loPI   C1B 4957   8.764  14.676   9.632 -0.2403  0.0668  0.0916
  310loPI   C2B 4958   8.862  14.666   9.217 -0.2060  0.0706  0.0774
  310loPI   C3B 4959   8.752  14.760   8.825 -0.2082  0.2739  0.1357
  310loPI   C4B 4960   8.542  14.719   8.439  0.1325  0.2939 -0.0019
  311loPI    C1 4961  10.315  17.960  10.376 -0.1004 -0.0507  0.1504
  311loPI    C2 4962  10.292  18.075  10.759  0.2249  0.2095  0.0970
  311loPI    C3 4963  10.579  18.223  10.523  0.1703 -0.1260 -0.1882
  311loPI   PO4 4964  10.163  18.007  10.182  0.0431  0.0216 -0.1123
  311loPI   GL1 4965  10.013  17.915   9.796  0.1056 -0.2049 -0.0081
  311loPI   GL2 4966  10.124  18.269   9.739  0.0117  0.1441 -0.1862
  311loPI   C1A 4967   9.919  18.014   9.342 -0.0696 -0.2429 -0.0455
  311loPI   C2A 4968   9.689  17.963   9.030  0.3676 -0.2040 -0.1985
  311loPI   C3A 4969   9.797  17.987   8.688  0.0482 -0.3747 -0.0954
  311loPI   C4A 4970   9.725  18.148   8.258 -0.0309  0.1585  0.1030
  311loPI   C5A 4971   9.786  18.132   7.795 -0.0448  0.2539 -0.0986
  311loPI   C6A 4972   9.860  17.884   7.428  0.0373  0.1588 -0.6110
  311loPI   C1B 4973  10.338  18.457   9.342  0.3471  0.2359  0.1973
  311loPI   C2B 4974  10.384  18.780   8.963 -0.2018 -0.1443  0.0818
  311loPI   C3B 4975  10.455  18.794   8.475 -0.1684 -0.0444 -0.0133
  311loPI   C4B 4976  10.522  18.931   8.095  0.0678  0.0658  0.2084
  312loPI    C1 4977   2.694   0.922   9.978 -0.0460  0.3419 -0.1883
  312loPI    C2 4978   2.497   0.824  10.311  0.0408 -0.1505 -0.2741
  312loPI    C3 4979   2.376   1.136  10.092 -0.2194 -0.0267  0.0369
  312loPI   PO4 4980   2.656   0.719   9.807  0.3536  0.1749 -0.2231
  312loPI   GL1 4981   2.536   0.816   9.451 -0.1582 -0.2408 -0.0492
  312loPI   GL2 4982   2.883   0.878   9.443 -0.1277 -0.1620  0.1098
  312loPI   C1A 4983   2.599   0.777   8.990 -0.2679  0.2262  0.0549
  312loPI   C2A 4984   2.472   0.713   8.570 -0.2176 -0.1227  0.1561
  312loPI   C3A 4985   2.281   0.297   8.417 -0.0811 -0.1232 -0.4689
  312loPI   C4A 4986   2.199   0.155   8.102 -0.0714  0.1269  0.1603
  312loPI   C5A 4987   2.068   0.133   7.740  0.1185  0.1319 -0.0072
  312loPI   C6A 4988   1.780   0.106   7.387 -0.0312 -0.1100  0.2408
  312loPI   C1B 4989   2.720   1.245   9.296  0.1074 -0.1066  0.0612
  312loPI   C2B 4990   2.684   1.537   8.922  0.1624  0.1200 -0.0458
  312loPI   C3B 4991   2.593   1.945   8.676 -0.1077 -0.1853  0.2033
  312loPI   C4B 4992   2.611   1.926   8.200 -0.2100 -0.2076  0.0311
  313loPI    C1 4993   3.931  18.680  10.180  0.0332 -0.1319 -0.1086
  313loPI    C2 4994   3.879  18.309  10.318  0.0422 -0.1149 -0.0593
  313loPI    C3 4995   3.972  18.605  10.570  0.2497 -0.1198 -0.1278
  313loPI   PO4 4996   3.690  18.694   9.938  0.0944  0.0019 -0.3437
  313loPI   GL1 4997   3.602  18.998   9.631  0.1454  0.0365  0.0117
  313loPI   GL2 4998   3.401  19.275   9.711  0.0380  0.0570 -0.0282
  313loPI   C1A 4999   3.428  19.017   9.285 -0.2086 -0.1608 -0.1357
  313loPI   C2A 5000   3.487  19.001   8.843 -0.2162 -0.0195  0.0906
  313loPI   C3A 5001   3.400  19.093   8.446  0.0864  0.0494  0.0508
  313loPI   C4A 5002   3.207  19.217   8.080  0.0396  0.0168  0.0373
  313loPI   C5A 5003   3.208  19.529   7.791  0.2519  0.2970  0.0202
  313loPI   C6A 5004   2.986  19.864   7.707  0.2207  0.2141 -0.1563
  313loPI   C1B 5005   3.356  19.543   9.324 -0.1038  0.1324  0.0272
  313loPI   C2B 5006   3.078  19.704   9.050 -0.2511 -0.1728  0.2978
  313loPI   C3B 5007   2.737  19.806   8.679  0.0656 -0.0055  0.0409
  313loPI   C4B 5008   2.649  20.167   8.389  0.1878  0.2432  0.0589
  314loPI    C1 5009  15.175   5.725  10.355  0.1320  0.1208 -0.2031
  314loPI    C2 5010  15.255   5.402  10.134  0.2656 -0.0763  0.1260
  314loPI    C3 5011  15.551   5.648  10.243  0.1918  0.0527  0.0376
  314loPI   PO4 5012  15.001   5.877  10.252  0.2334 -0.1220  0.4549
  314loPI   GL1 5013  14.625   5.901   9.952 -0.2667  0.2901 -0.3036
  314loPI   GL2 5014  14.709   5.552   9.997  0.0476  0.4757 -0.0855
  314loPI   C1A 5015  14.856   5.865   9.606  0.0593  0.0706  0.0167
  314loPI   C2A 5016  15.283   6.052   9.457  0.1735 -0.0173 -0.0018
  314loPI   C3A 5017  15.623   6.303   9.111 -0.0397 -0.0196 -0.1285
  314loPI   C4A 5018  15.967   6.147   8.912 -0.2449 -0.0407 -0.0366
  314loPI   C5A 5019  16.434   6.112   8.701 -0.2798  0.0669  0.1293
  314loPI   C6A 5020  16.622   5.710   8.555  0.0005 -0.0107 -0.1049
  314loPI   C1B 5021  14.991   5.342   9.721 -0.1653  0.1511  0.1878
  314loPI   C2B 5022  15.263   5.523   9.398 -0.0108  0.0892  0.2402
  314loPI   C3B 5023  15.250   5.732   9.076 -0.1487  0.1572  0.0602
  314loPI   C4B 5024  15.183   5.894   8.763 -0.3861  0.0649 -0.2688
  315loPI    C1 5025  11.395  11.198  10.316  0.0729 -0.2358  0.1299
  315loPI    C2 5026  11.392  11.528  10.542  0.1484 -0.1481  0.0040
  315loPI    C3 5027  11.414  11.167  10.714 -0.1731 -0.1000  0.1543
  315loPI   PO4 5028  11.499  11.294  10.079  0.0577 -0.1461  0.0321
  315loPI   GL1 5029  11.458  11.037   9.739  0.3216 -0.1848 -0.1520
  315loPI   GL2 5030  11.653  10.728   9.732  0.3404 -0.2635  0.0809
  315loPI   C1A 5031  11.601  11.075   9.275 -0.0802  0.0970  0.0996
  315loPI   C2A 5032  11.740  10.829   8.918  0.1935 -0.3185 -0.1219
  315loPI   C3A 5033  11.789  10.746   8.488 -0.0104 -0.0712 -0.0190
  315loPI   C4A 5034  11.823  11.031   8.092  0.1975  0.0032  0.0281
  315loPI   C5A 5035  11.757  11.453   7.893 -0.0564  0.0892  0.2071
  315loPI   C6A 5036  11.416  11.573   7.610  0.0268  0.0478  0.1783
  315loPI   C1B 5037  11.613  10.553   9.346 -0.2099 -0.4787  0.2434
  315loPI   C2B 5038  11.788  10.313   9.091  0.2507 -0.2715 -0.2596
  315loPI   C3B 5039  11.616  10.263   8.628 -0.1428 -0.1312 -0.2410
  315loPI   C4B 5040  11.674  10.213   8.162 -0.2163 -0.1188 -0.2712
  316loPI    C1 5041   3.126   3.044  10.274 -0.3911 -0.1893  0.1081
  316loPI    C2 5042   3.208   2.958  10.656 -0.0627 -0.1126  0.0582
  316loPI    C3 5043   3.397   3.260  10.474 -0.1915 -0.1705 -0.1762
  316loPI   PO4 5044   2.841   2.941  10.255 -0.0069  0.0661 -0.1774
  316loPI   GL1 5045   2.770   2.792   9.897 -0.1772 -0.0663  0.2485
  316loPI   GL2 5046   2.773   2.548   9.819  0.2097 -0.1419  0.2020
  316loPI   C1A 5047   2.671   3.063   9.472 -0.1494 -0.4602  0.0688
  316loPI   C2A 5048   2.627   3.016   9.032  0.1781 -0.2864 -0.4049
  316loPI   C3A 5049   2.517   3.066   8.548  0.1410 -0.2102 -0.0196
  316loPI   C4A 5050   2.438   2.935   8.133 -0.0585 -0.1676 -0.1231
  316loPI   C5A 5051   2.693   2.734   7.817 -0.0060  0.1897 -0.0954
  316loPI   C6A 5052   2.895   2.585   7.519  0.1671  0.1373 -0.0307
  316loPI   C1B 5053   2.393   2.662   9.539 -0.0801  0.0953  0.2453
  316loPI   C2B 5054   2.178   2.777   9.261  0.3584 -0.0292 -0.1127
  316loPI   C3B 5055   2.168   2.822   8.849  0.2795 -0.0571  0.2494
  316loPI   C4B 5056   2.112   2.587   8.540 -0.1758 -0.2323 -0.2377
  317loPI    C1 5057  18.623   1.995  10.910 -0.1755  0.1618  0.0085
  317loPI    C2 5058  18.410   1.824  11.203 -0.0114 -0.2151 -0.0853
  317loPI    C3 5059  18.745   2.025  11.290 -0.1150 -0.0812  0.0100
  317loPI   PO4 5060  18.596   1.804  10.710  0.3133  0.1125 -0.3117
  317loPI   GL1 5061  18.523   1.777  10.260 -0.0957 -0.2399  0.0593
  317loPI   GL2 5062  18.321   1.574  10.390 -0.3027  0.2126  0.1755
  317loPI   C1A 5063  18.382   1.885   9.821  0.0157  0.4439 -0.3670
  317loPI   C2A 5064  18.395   2.018   9.386 -0.0538 -0.1663  0.0052
  317loPI   C3A 5065  18.485   2.039   9.024  0.1386 -0.1030  0.0294
  317loPI   C4A 5066  18.661   1.743   8.677  0.0269  0.0237  0.0053
  317loPI   C5A 5067  18.978   1.877   8.398 -0.2135  0.2929 -0.1446
  317loPI   C6A 5068  18.874   1.865   8.014 -0.1404 -0.2206  0.0466
  317loPI   C1B 5069  18.432   1.361   9.992  0.2329 -0.0103 -0.1399
  317loPI   C2B 5070  18.615   1.359   9.654 -0.2261 -0.0220 -0.5777
  317loPI   C3B 5071  18.571   1.538   9.237 -0.0356  0.0686 -0.0266
  317loPI   C4B 5072  18.232   1.544   8.975  0.2385  0.2440  0.2615
  318loPI    C1 5073  14.151   6.051  10.529 -0.0683 -0.1257  0.0602
  318loPI    C2 5074  14.458   5.814  10.429  0.0626 -0.0951  0.3763
  318loPI    C3 5075  14.152   5.667  10.641 -0.0401 -0.0729  0.2451
  318loPI   PO4 5076  14.128   6.191  10.372  0.0102 -0.0399  0.3981
  318loPI   GL1 5077  14.085   5.969  10.036 -0.3572  0.2715 -0.1240
  318loPI   GL2 5078  14.138   5.654  10.062  0.1182  0.4038  0.1747
  318loPI   C1A 5079  14.065   5.965   9.538  0.1055 -0.0252  0.0501
  318loPI   C2A 5080  14.056   6.114   9.101 -0.1496  0.0210  0.0726
  318loPI   C3A 5081  13.785   6.113   8.776 -0.2003 -0.0332 -0.0663
  318loPI   C4A 5082  13.736   6.430   8.429  0.2960 -0.1180  0.1795
  318loPI   C5A 5083  13.972   6.655   7.971  0.2576  0.0650 -0.2749
  318loPI   C6A 5084  14.143   6.388   7.729  0.1237 -0.1887  0.1885
  318loPI   C1B 5085  14.294   5.587   9.682 -0.0486 -0.0480  0.0320
  318loPI   C2B 5086  14.460   5.702   9.367  0.1797  0.0680 -0.0267
  318loPI   C3B 5087  14.823   5.523   9.140 -0.0144  0.0903  0.1987
  318loPI   C4B 5088  15.137   5.214   9.040 -0.3871 -0.0079  0.4362
  319loPI    C1 5089   9.940   5.236  10.455  0.0321  0.0487 -0.1414
  319loPI    C2 5090   9.618   5.194  10.689 -0.1157  0.1845 -0.3177
  319loPI    C3 5091   9.887   5.480  10.767 -0.0704  0.1127 -0.2085
  319loPI   PO4 5092   9.800   5.260  10.216  0.1009  0.2804  0.1106
  319loPI   GL1 5093   9.879   5.084   9.814 -0.0579 -0.1803 -0.0844
  319loPI   GL2 5094  10.149   5.315   9.872 -0.0764 -0.0056  0.1059
  319loPI   C1A 5095   9.601   4.976   9.368 -0.0674  0.0636 -0.0621
  319loPI   C2A 5096   9.264   5.047   9.105 -0.0288  0.3274  0.2292
  319loPI   C3A 5097   9.434   5.048   8.703  0.1962 -0.1597 -0.0529
  319loPI   C4A 5098   9.524   5.183   8.276 -0.0564 -0.3018 -0.1318
  319loPI   C5A 5099   9.697   5.460   8.148 -0.2081  0.2207  0.2247
  319loPI   C6A 5100   9.530   5.854   8.025 -0.3820  0.1942 -0.0279
  319loPI   C1B 5101  10.012   5.289   9.384  0.3062  0.2237  0.1178
  319loPI   C2B 5102   9.821   5.274   8.981 -0.0868  0.0549 -0.1442
  319loPI   C3B 5103   9.865   5.363   8.601  0.0931  0.2083 -0.2612
  319loPI   C4B 5104  10.110   5.248   8.313  0.2253  0.0717  0.1723
  320loPI    C1 5105  12.729   6.530  10.496 -0.0326  0.1499 -0.1886
  320loPI    C2 5106  12.956   6.467  10.819 -0.1698 -0.4297 -0.1948
  320loPI    C3 5107  12.601   6.645  10.857  0.1015  0.1180 -0.1302
  320loPI   PO4 5108  12.666   6.293  10.332 -0.2827  0.0652 -0.2784
  320loPI   GL1 5109  12.814   6.365  10.019 -0.2030  0.2080  0.0665
  320loPI   GL2 5110  13.121   6.186   9.931  0.1058 -0.0824  0.0414
  320loPI   C1A 5111  12.511   6.208   9.685  0.2619 -0.2793  0.2272
  320loPI   C2A 5112  12.459   6.086   9.205 -0.1658 -0.0300 -0.3177
  320loPI   C3A 5113  12.484   5.804   8.811 -0.0982  0.0920  0.1185
  320loPI   C4A 5114  12.574   5.985   8.372  0.0317  0.0463 -0.2365
  320loPI   C5A 5115  12.525   5.910   7.911 -0.1978  0.0759 -0.0621
  320loPI   C6A 5116  12.266   5.766   7.595 -0.1267  0.2640 -0.0060
  320loPI   C1B 5117  12.920   6.074   9.488  0.2572  0.3165  0.2041
  320loPI   C2B 5118  12.749   6.439   9.166 -0.0764 -0.0812 -0.0098
  320loPI   C3B 5119  12.764   6.490   8.668  0.1115 -0.0733  0.0435
  320loPI   C4B 5120  12.661   6.453   8.223 -0.0371  0.1087  0.0478
  321loPI    C1 5121  17.872  10.178  10.472  0.1650  0.0300 -0.1664
  321loPI    C2 5122  18.164  10.257  10.734  0.1160 -0.2859 -0.0116
  321loPI    C3 5123  17.909   9.956  10.803 -0.1736 -0.0905 -0.2050
  321loPI   PO4 5124  17.863  10.493  10.376 -0.1959  0.3262 -0.0680
  321loPI   GL1 5125  17.845  10.641   9.964  0.3969 -0.2070  0.1829
  321loPI   GL2 5126  17.773  10.440   9.756  0.2917  0.0209  0.0490
  321loPI   C1A 5127  17.587  10.770   9.521  0.3632  0.1747 -0.0912
  321loPI   C2A 5128  17.582  10.605   9.189  0.0134  0.1138  0.3947
  321loPI   C3A 5129  17.575  10.778   8.829 -0.0563 -0.1022  0.1883
  321loPI   C4A 5130  17.669  10.770   8.333  0.0240 -0.2118  0.0645
  321loPI   C5A 5131  17.806  11.025   7.920 -0.1159  0.1084  0.0354
  321loPI   C6A 5132  17.781  11.420   7.875 -0.0103 -0.2103  0.2537
  321loPI   C1B 5133  18.085  10.181   9.529 -0.2063 -0.0984 -0.0298
  321loPI   C2B 5134  18.085  10.339   9.200 -0.1444  0.2892  0.0168
  321loPI   C3B 5135  17.874  10.281   8.885 -0.2119 -0.0698  0.2594
  321loPI   C4B 5136  17.649  10.315   8.564 -0.0079  0.0291  0.2951
  322loPI    C1 5137   5.662   5.149  10.501 -0.1580  0.0882  0.0318
  322loPI    C2 5138   5.934   5.274  10.766 -0.1818  0.3127 -0.0475
  322loPI    C3 5139   5.571   5.163  10.890 -0.1007  0.1443  0.0434
  322loPI   PO4 5140   5.790   5.033  10.367  0.0855 -0.1594  0.1106
  322loPI   GL1 5141   5.889   5.170   9.870  0.4063 -0.0106 -0.1079
  322loPI   GL2 5142   6.042   4.945   9.806  0.2176  0.0461  0.1238
  322loPI   C1A 5143   5.691   5.149   9.485  0.0210 -0.0315  0.0946
  322loPI   C2A 5144   5.656   5.341   9.020 -0.1185  0.0753 -0.3481
  322loPI   C3A 5145   5.807   5.387   8.629  0.0648  0.1078 -0.0174
  322loPI   C4A 5146   5.836   5.196   8.215 -0.0800 -0.0264  0.3168
  322loPI   C5A 5147   5.686   5.250   7.900 -0.0075  0.1359 -0.0514
  322loPI   C6A 5148   5.474   5.383   7.464  0.3758  0.1104  0.1562
  322loPI   C1B 5149   6.124   4.913   9.470  0.0479  0.1656 -0.1539
  322loPI   C2B 5150   5.986   5.004   9.099  0.1877 -0.0799  0.1710
  322loPI   C3B 5151   6.141   4.955   8.615 -0.1927 -0.1267  0.0416
  322loPI   C4B 5152   6.345   5.035   8.202 -0.0874  0.2216  0.0282
  323loPI    C1 5153  15.913   4.048  10.802 -0.1231  0.1200  0.1540
  323loPI    C2 5154  16.280   4.155  10.919 -0.0389 -0.0605  0.0592
  323loPI    C3 5155  16.156   3.778  10.969 -0.0957 -0.0773 -0.1938
  323loPI   PO4 5156  15.857   4.221  10.618  0.1010 -0.0994  0.3343
  323loPI   GL1 5157  15.700   4.333  10.231  0.1450 -0.2530  0.0388
  323loPI   GL2 5158  15.499   4.522  10.092  0.1223 -0.1406  0.1125
  323loPI   C1A 5159  16.020   4.486   9.871  0.1678 -0.3071 -0.1204
  323loPI   C2A 5160  16.146   4.398   9.414  0.0022  0.0007 -0.1861
  323loPI   C3A 5161  16.534   4.404   9.288  0.1967 -0.2732 -0.2822
  323loPI   C4A 5162  16.702   4.014   9.056 -0.0256  0.0526  0.3040
  323loPI   C5A 5163  16.471   3.942   8.711  0.1156 -0.1254  0.0324
  323loPI   C6A 5164  16.460   3.562   8.357  0.1840 -0.2947 -0.1371
  323loPI   C1B 5165  15.607   4.600   9.668 -0.1306  0.0485 -0.0154
  323loPI   C2B 5166  15.670   4.465   9.233 -0.3446  0.0709  0.0521
  323loPI   C3B 5167  16.107   4.441   8.961 -0.1662  0.1298  0.0603
  323loPI   C4B 5168  16.199   4.327   8.504 -0.0615  0.0940 -0.2283
  324loPI    C1 5169   6.818  16.348  10.145  0.1208 -0.0772 -0.1491
  324loPI    C2 5170   6.928  16.072  10.413  0.2717  0.0966 -0.0298
  324loPI    C3 5171   6.567  16.243  10.439  0.2191 -0.0123 -0.0409
  324loPI   PO4 5172   7.014  16.290   9.972  0.1549  0.0225 -0.0815
  324loPI   GL1 5173   7.261  16.536   9.657 -0.1898 -0.0615 -0.1173
  324loPI   GL2 5174   7.036  16.706   9.620  0.0990  0.2804  0.0140
  324loPI   C1A 5175   7.433  16.594   9.228 -0.4837  0.0312  0.0410
  324loPI   C2A 5176   7.435  16.666   8.801 -0.2976 -0.3132 -0.0496
  324loPI   C3A 5177   7.342  16.633   8.417 -0.1306  0.2144 -0.0299
  324loPI   C4A 5178   7.429  16.579   8.059 -0.0347 -0.0828  0.3341
  324loPI   C5A 5179   7.162  16.472   7.758 -0.0370 -0.2935 -0.2585
  324loPI   C6A 5180   6.992  16.678   7.383  0.1737 -0.0297 -0.1899
  324loPI   C1B 5181   7.063  16.867   9.076  0.1551  0.2177  0.0978
  324loPI   C2B 5182   7.126  17.040   8.589 -0.2231 -0.2453 -0.0794
  324loPI   C3B 5183   7.145  17.032   8.172 -0.0523 -0.0511  0.2012
  324loPI   C4B 5184   7.247  17.040   7.752 -0.3756 -0.1765  0.0200
  325loPI    C1 5185   4.821  10.762  10.580  0.0995 -0.5013  0.1364
  325loPI    C2 5186   4.747  10.717  10.970  0.0307  0.0598  0.1969
  325loPI    C3 5187   4.450  10.680  10.705  0.0106  0.0051  0.2267
  325loPI   PO4 5188   4.908  10.525  10.362 -0.4715  0.0201  0.0285
  325loPI   GL1 5189   4.955  10.648  10.042 -0.0945  0.1410  0.1339
  325loPI   GL2 5190   4.719  10.637   9.830 -0.0776  0.1058 -0.0091
  325loPI   C1A 5191   5.131  10.726   9.575 -0.0674  0.0143 -0.1600
  325loPI   C2A 5192   5.101  10.904   9.110  0.1585  0.1526 -0.0048
  325loPI   C3A 5193   5.128  10.883   8.694 -0.2486 -0.0976  0.0229
  325loPI   C4A 5194   4.893  10.924   8.298 -0.2642  0.0986 -0.1539
  325loPI   C5A 5195   4.700  10.625   8.058  0.3261  0.0862  0.1511
  325loPI   C6A 5196   4.381  10.307   7.794 -0.0411 -0.0511  0.2829
  325loPI   C1B 5197   4.718  10.483   9.448 -0.1687  0.2776  0.3124
  325loPI   C2B 5198   4.762  10.526   9.020 -0.1025  0.5331  0.1621
  325loPI   C3B 5199   4.812  10.444   8.535  0.2383  0.1448 -0.0330
  325loPI   C4B 5200   5.116  10.472   8.256 -0.1777  0.0222  0.1616
  326loPI    C1 5201   5.282   4.831  10.306 -0.1598  0.0846 -0.0713
  326loPI    C2 5202   5.000   4.550  10.346  0.0725 -0.1176  0.1893
  326loPI    C3 5203   5.122   4.758  10.665  0.0468  0.1406  0.0339
  326loPI   PO4 5204   5.446   4.785  10.077  0.0464 -0.2588 -0.0654
  326loPI   GL1 5205   5.430   4.852   9.725 -0.1491  0.1133  0.0404
  326loPI   GL2 5206   5.675   4.658   9.633  0.1599  0.1279 -0.3240
  326loPI   C1A 5207   5.207   5.037   9.396 -0.0623  0.1789  0.0835
  326loPI   C2A 5208   5.105   4.892   8.985 -0.1532 -0.1679 -0.1937
  326loPI   C3A 5209   4.840   4.820   8.647 -0.2423  0.2053  0.0549
  326loPI   C4A 5210   5.080   4.826   8.179 -0.0716 -0.0140  0.0807
  326loPI   C5A 5211   5.428   4.720   8.017 -0.0342  0.2899 -0.1585
  326loPI   C6A 5212   5.646   4.914   7.598  0.0961  0.1918 -0.2805
  326loPI   C1B 5213   5.578   4.713   9.245  0.1791 -0.1555 -0.1562
  326loPI   C2B 5214   5.605   4.811   8.845  0.1854 -0.1354  0.0585
  326loPI   C3B 5215   5.483   4.938   8.465 -0.3722 -0.0088  0.0249
  326loPI   C4B 5216   5.333   5.276   8.245 -0.1247 -0.0728 -0.1622
  327loPI    C1 5217   7.275   6.096  10.458  0.0837  0.1430  0.2316
  327loPI    C2 5218   7.543   5.829  10.326 -0.2014 -0.0442  0.0190
  327loPI    C3 5219   7.290   5.730  10.620 -0.2320  0.0317  0.0185
  327loPI   PO4 5220   7.108   6.133  10.241 -0.0003  0.0482  0.0807
  327loPI   GL1 5221   7.016   6.289   9.839 -0.0251  0.0110 -0.0880
  327loPI   GL2 5222   7.199   5.976   9.750 -0.1052 -0.0997 -0.1470
  327loPI   C1A 5223   6.884   6.238   9.314 -0.1250  0.0033 -0.0565
  327loPI   C2A 5224   6.821   6.239   8.897 -0.1185  0.2821 -0.1748
  327loPI   C3A 5225   6.680   6.255   8.519 -0.0847 -0.0899  0.0729
  327loPI   C4A 5226   6.541   6.128   8.157  0.0919 -0.5791  0.1309
  327loPI   C5A 5227   6.289   6.069   7.814 -0.1026 -0.3203 -0.1771
  327loPI   C6A 5228   5.794   6.235   7.799 -0.1150 -0.2489  0.2634
  327loPI   C1B 5229   7.304   5.874   9.376 -0.1118  0.2051  0.0844
  327loPI   C2B 5230   7.091   5.789   9.023 -0.1886 -0.3477 -0.4436
  327loPI   C3B 5231   6.687   5.673   8.962 -0.2117 -0.3223  0.2178
  327loPI   C4B 5232   6.720   5.453   8.597 -0.0153 -0.0898  0.2311
  328loPI    C1 5233  15.811   3.436  10.639 -0.0716  0.2137 -0.0922
  328loPI    C2 5234  15.612   3.636  10.922  0.0175  0.1731 -0.0003
  328loPI    C3 5235  15.898   3.377  11.025 -0.2939 -0.2207 -0.1018
  328loPI   PO4 5236  15.852   3.565  10.477  0.2650  0.1780 -0.0698
  328loPI   GL1 5237  16.095   3.488  10.042 -0.1430  0.2119 -0.3027
  328loPI   GL2 5238  16.332   3.371  10.160 -0.2203  0.1152  0.0827
  328loPI   C1A 5239  16.048   3.640   9.664  0.2895 -0.2910 -0.3815
  328loPI   C2A 5240  15.849   3.430   9.421 -0.0880  0.1614  0.0269
  328loPI   C3A 5241  15.609   3.508   9.078  0.1213 -0.0471 -0.2258
  328loPI   C4A 5242  15.493   3.742   8.776  0.3585  0.2111  0.0236
  328loPI   C5A 5243  15.410   3.999   8.378 -0.1319 -0.2706 -0.0922
  328loPI   C6A 5244  15.406   4.053   8.022 -0.1436  0.0719 -0.2860
  328loPI   C1B 5245  16.555   3.625   9.868 -0.0687  0.1943 -0.1953
  328loPI   C2B 5246  16.841   3.689   9.552  0.2988  0.3452  0.1141
  328loPI   C3B 5247  16.940   3.568   9.168 -0.1709  0.0225 -0.1186
  328loPI   C4B 5248  17.189   3.303   8.822  0.0218 -0.2151  0.2095
  329loPI    C1 5249   2.341   3.928  10.819 -0.1549 -0.4466  0.0880
  329loPI    C2 5250   2.716   4.055  10.760 -0.3249 -0.0542 -0.1895
  329loPI    C3 5251   2.649   3.712  10.954  0.1705 -0.0592 -0.0150
  329loPI   PO4 5252   2.141   3.930  10.560 -0.0845  0.1621 -0.4161
  329loPI   GL1 5253   2.137   3.900  10.108 -0.3626  0.2497 -0.3469
  329loPI   GL2 5254   2.460   3.826   9.907 -0.0277  0.3101  0.0028
  329loPI   C1A 5255   1.822   4.002   9.810  0.1979 -0.1968  0.1673
  329loPI   C2A 5256   1.735   3.970   9.391  0.0109  0.0779  0.1011
  329loPI   C3A 5257   1.772   4.143   8.927 -0.1356 -0.3520 -0.0302
  329loPI   C4A 5258   1.804   4.381   8.646 -0.0341 -0.0844 -0.1217
  329loPI   C5A 5259   1.975   4.724   8.236  0.0491  0.0314  0.1034
  329loPI   C6A 5260   2.175   4.808   7.943  0.1446  0.3280 -0.2450
  329loPI   C1B 5261   2.208   3.794   9.607 -0.0110  0.2291  0.0325
  329loPI   C2B 5262   2.147   3.815   9.142 -0.0686 -0.1623 -0.2185
  329loPI   C3B 5263   2.046   3.795   8.731 -0.0348  0.0975  0.1191
  329loPI   C4B 5264   1.807   3.918   8.408 -0.0689  0.1584  0.2057
  330loPI    C1 5265   9.097  13.306  10.325  0.2124 -0.0066 -0.0178
  330loPI    C2 5266   9.424  13.325  10.094  0.2033 -0.0140 -0.0313
  330loPI    C3 5267   9.177  13.639  10.118  0.1478 -0.0513 -0.1151
  330loPI   PO4 5268   8.954  13.116  10.246 -0.1090 -0.2103  0.2511
  330loPI   GL1 5269   9.089  13.038   9.870 -0.2209  0.0782 -0.0476
  330loPI   GL2 5270   8.774  12.825   9.749  0.1257 -0.2354 -0.3468
  330loPI   C1A 5271   9.162  12.871   9.391  0.1574  0.0814  0.1905
  330loPI   C2A 5272   9.106  12.892   8.926  0.1569  0.1170  0.1130
  330loPI   C3A 5273   9.019  12.919   8.512  0.0355 -0.0851 -0.1736
  330loPI   C4A 5274   9.014  13.287   8.190  0.1438  0.2952  0.0861
  330loPI   C5A 5275   9.184  13.317   7.777  0.1917 -0.0565  0.0359
  330loPI   C6A 5276   8.872  13.390   7.493  0.0658 -0.3813 -0.3336
  330loPI   C1B 5277   8.693  12.825   9.284  0.0627  0.1345  0.1427
  330loPI   C2B 5278   8.678  12.711   8.888  0.0591  0.0135  0.0407
  330loPI   C3B 5279   8.771  12.476   8.509  0.0900 -0.2439  0.1245
  330loPI   C4B 5280   9.035  12.336   8.219 -0.2729  0.1304  0.0512
  331loPI    C1 5281   9.621   2.067  10.516  0.0193  0.1491  0.2028
  331loPI    C2 5282   9.937   1.826  10.552 -0.1119 -0.0535  0.0175
  331loPI    C3 5283   9.590   1.726  10.723 -0.1663  0.0034 -0.0592
  331loPI   PO4 5284   9.542   2.125  10.243 -0.3464  0.1711  0.0821
  331loPI   GL1 5285   9.355   2.001   9.885 -0.3882 -0.0146  0.3061
  331loPI   GL2 5286   9.153   2.168   9.769 -0.1268 -0.0320  0.1115
  331loPI   C1A 5287   9.541   2.051   9.483 -0.2383  0.2389  0.1175
  331loPI   C2A 5288   9.617   2.135   9.094  0.0959 -0.2100 -0.1310
  331loPI   C3A 5289   9.868   1.998   8.750 -0.5264 -0.2178 -0.1141
  331loPI   C4A 5290   9.951   1.947   8.406 -0.5894  0.2786 -0.2255
  331loPI   C5A 5291  10.052   2.246   8.043  0.0666 -0.2463  0.0061
  331loPI   C6A 5292  10.406   2.478   7.856 -0.0614 -0.0873 -0.1287
  331loPI   C1B 5293   9.126   2.152   9.322 -0.0541  0.2324  0.1636
  331loPI   C2B 5294   9.188   2.193   8.888  0.0821 -0.0762 -0.0309
  331loPI   C3B 5295   9.495   2.253   8.547  0.2094  0.0346  0.0778
  331loPI   C4B 5296   9.576   2.167   8.092 -0.0370 -0.3521  0.2142
  332loPI    C1 5297   7.274  16.745  10.250 -0.0652 -0.0059 -0.0337
  332loPI    C2 5298   7.613  16.675  10.451 -0.0534  0.0974 -0.0169
  332loPI    C3 5299   7.321  16.891  10.619 -0.0681  0.1328 -0.0875
  332loPI   PO4 5300   7.370  16.924   9.955  0.0532 -0.1794  0.0159
  332loPI   GL1 5301   7.452  17.016   9.490  0.0424 -0.0193  0.1337
  332loPI   GL2 5302   7.299  17.265   9.281  0.1974 -0.1058 -0.0653
  332loPI   C1A 5303   7.802  16.873   9.360  0.1218 -0.0019 -0.0387
  332loPI   C2A 5304   7.950  16.732   8.939  0.5961  0.1473  0.0219
  332loPI   C3A 5305   8.031  16.631   8.518  0.2354  0.1040 -0.0403
  332loPI   C4A 5306   7.959  16.558   7.983 -0.2935 -0.2322  0.0683
  332loPI   C5A 5307   7.933  16.451   7.677 -0.0301  0.0033 -0.0926
  332loPI   C6A 5308   7.959  16.027   7.540  0.2221 -0.0565 -0.1163
  332loPI   C1B 5309   7.260  17.452   8.865 -0.1548 -0.0203  0.3435
  332loPI   C2B 5310   7.326  17.543   8.413  0.1538  0.3784 -0.2007
  332loPI   C3B 5311   7.517  17.369   8.037  0.1234  0.0274  0.0710
  332loPI   C4B 5312   7.932  17.494   7.892 -0.1197  0.1337  0.3542
  333loPI    C1 5313  17.085  12.686  10.600  0.0246 -0.2496  0.4697
  333loPI    C2 5314  16.709  12.588  10.506  0.1256 -0.2009 -0.0112
  333loPI    C3 5315  16.784  12.799  10.837 -0.3176  0.1629 -0.1335
  333loPI   PO4 5316  17.146  12.797  10.397 -0.2610  0.1862  0.1332
  333loPI   GL1 5317  16.894  12.678  10.087 -0.1817 -0.1467  0.1537
  333loPI   GL2 5318  17.058  12.409   9.946  0.1100  0.0375  0.0043
  333loPI   C1A 5319  16.666  12.448   9.667 -0.2106  0.2662 -0.0641
  333loPI   C2A 5320  16.441  12.395   9.311 -0.0657 -0.2845  0.3738
  333loPI   C3A 5321  16.435  12.278   8.909 -0.0320  0.2298  0.0993
  333loPI   C4A 5322  16.296  12.254   8.501 -0.2378 -0.1023 -0.0951
  333loPI   C5A 5323  16.364  12.309   8.073  0.1043 -0.0839  0.0818
  333loPI   C6A 5324  16.503  12.286   7.691 -0.2497  0.1363  0.0508
  333loPI   C1B 5325  17.124  12.672   9.448  0.2705 -0.0003  0.2659
  333loPI   C2B 5326  16.928  13.054   9.313  0.1130 -0.0899  0.1651
  333loPI   C3B 5327  16.846  13.072   8.848 -0.0908  0.3800  0.0662
  333loPI   C4B 5328  16.812  12.763   8.497  0.1496  0.0494  0.0731
  334loPI    C1 5329  10.246  13.782  10.491 -0.1384  0.1669  0.0498
  334loPI    C2 5330  10.600  13.927  10.610  0.0353  0.0630 -0.3266
  334loPI    C3 5331  10.312  13.857  10.879  0.2165  0.3698 -0.0453
  334loPI   PO4 5332  10.128  13.955  10.299  0.3144  0.0761  0.4720
  334loPI   GL1 5333  10.166  14.037   9.838 -0.2459 -0.3072  0.1098
  334loPI   GL2 5334   9.878  14.241   9.731 -0.2014  0.0828  0.1118
  334loPI   C1A 5335  10.471  14.185   9.397  0.2664  0.0048  0.1003
  334loPI   C2A 5336  10.450  14.036   8.937  0.2906 -0.1016 -0.0544
  334loPI   C3A 5337  10.463  14.089   8.536 -0.0469  0.2275 -0.1238
  334loPI   C4A 5338  10.580  14.110   8.201 -0.1352 -0.0403 -0.3026
  334loPI   C5A 5339  10.600  14.220   7.817  0.1782  0.0173 -0.5265
  334loPI   C6A 5340  10.684  14.661   7.491  0.0077  0.0910 -0.3451
  334loPI   C1B 5341   9.869  14.100   9.289  0.0485 -0.0488 -0.0405
  334loPI   C2B 5342  10.002  14.013   8.841  0.1148 -0.0232 -0.0471
  334loPI   C3B 5343   9.838  13.975   8.493  0.4447 -0.0384  0.0956
  334loPI   C4B 5344   9.884  13.918   8.060  0.0476 -0.0860  0.0044
  335loPI    C1 5345  11.272  18.470  10.136  0.0954 -0.3257 -0.0023
  335loPI    C2 5346  10.947  18.242  10.186 -0.0155 -0.2170 -0.2120
  335loPI    C3 5347  10.957  18.515   9.894  0.0993  0.0787  0.0609
  335loPI   PO4 5348  11.467  18.364  10.078 -0.3251  0.3454  0.0120
  335loPI   GL1 5349  11.394  18.193   9.619 -0.0808  0.0302 -0.1949
  335loPI   GL2 5350  11.750  18.150   9.500  0.3364 -0.0841 -0.1967
  335loPI   C1A 5351  11.385  18.035   9.208  0.0989  0.1166  0.0211
  335loPI   C2A 5352  11.654  18.142   8.893  0.0337  0.5944  0.2638
  335loPI   C3A 5353  11.690  18.553   8.746 -0.0622  0.0357 -0.2252
  335loPI   C4A 5354  11.858  18.890   8.803 -0.0887  0.0051 -0.1058
  335loPI   C5A 5355  12.144  18.953   9.164  0.0593  0.1508  0.2515
  335loPI   C6A 5356  12.584  18.958   9.319 -0.0844  0.1114  0.2006
  335loPI   C1B 5357  11.622  18.461   9.295 -0.2086 -0.2630  0.0993
  335loPI   C2B 5358  11.292  18.547   9.055 -0.1675  0.2547 -0.4583
  335loPI   C3B 5359  11.219  18.276   8.587  0.0441  0.1081  0.2566
  335loPI   C4B 5360  10.957  18.197   8.110  0.0132  0.0701  0.0260
  336loPI    C1 5361   3.531   7.510  10.549 -0.0114 -0.0464  0.0919
  336loPI    C2 5362   3.924   7.489  10.476 -0.0524 -0.0044 -0.1493
  336loPI    C3 5363   3.789   7.714  10.777  0.0982  0.1014 -0.1596
  336loPI   PO4 5364   3.455   7.460  10.235 -0.1051 -0.2914  0.0326
  336loPI   GL1 5365   3.724   7.697   9.992  0.0788 -0.1713  0.2862
  336loPI   GL2 5366   3.923   7.392   9.869 -0.1928 -0.0091  0.1657
  336loPI   C1A 5367   3.833   7.791   9.472  0.1483  0.0732  0.0946
  336loPI   C2A 5368   3.777   7.915   9.111 -0.0236  0.0257 -0.0333
  336loPI   C3A 5369   3.921   8.230   8.901 -0.2420 -0.0977 -0.2705
  336loPI   C4A 5370   3.890   8.405   8.473  0.4812  0.1111  0.1260
  336loPI   C5A 5371   3.830   8.591   8.107  0.0976  0.2079 -0.1586
  336loPI   C6A 5372   3.790   8.635   7.780  0.1143  0.1599 -0.1357
  336loPI   C1B 5373   3.954   7.297   9.414 -0.1693 -0.0532  0.0758
  336loPI   C2B 5374   3.801   7.346   8.976 -0.2629 -0.2304  0.2809
  336loPI   C3B 5375   3.530   7.402   8.597  0.0755 -0.0358 -0.0093
  336loPI   C4B 5376   3.345   7.628   8.299  0.1097 -0.0306 -0.0813
  337loPI    C1 5377   6.505   9.188  10.523 -0.0071  0.0126 -0.0798
  337loPI    C2 5378   6.269   9.496  10.621 -0.0503 -0.0454 -0.0003
  337loPI    C3 5379   6.173   9.126  10.737  0.0221 -0.0840 -0.0622
  337loPI   PO4 5380   6.606   9.215  10.324  0.2026 -0.0241  0.2775
  337loPI   GL1 5381   6.519   9.294   9.918 -0.1811 -0.0140 -0.1976
  337loPI   GL2 5382   6.340   9.499   9.869 -0.0770  0.0408 -0.2097
  337loPI   C1A 5383   6.537   9.155   9.514  0.3613 -0.2026  0.1871
  337loPI   C2A 5384   6.446   8.953   9.108 -0.0097 -0.2867  0.4015
  337loPI   C3A 5385   6.330   8.835   8.751  0.0815  0.0986 -0.1373
  337loPI   C4A 5386   6.132   9.044   8.336 -0.2687 -0.0578  0.1491
  337loPI   C5A 5387   6.078   9.375   8.065  0.0378 -0.4043  0.1400
  337loPI   C6A 5388   6.004   9.655   7.720  0.1389  0.2224 -0.3169
  337loPI   C1B 5389   6.089   9.504   9.479 -0.1741 -0.1212 -0.1387
  337loPI   C2B 5390   6.317   9.471   9.122 -0.2835 -0.1826  0.0314
  337loPI   C3B 5391   6.405   9.534   8.705  0.0515 -0.1426  0.1547
  337loPI   C4B 5392   6.515   9.572   8.251 -0.2424  0.2186 -0.1294
  338loPI    C1 5393   1.551   3.044  10.414 -0.0873 -0.2859  0.0204
  338loPI    C2 5394   1.915   3.021  10.580  0.0173  0.0411 -0.1568
  338loPI    C3 5395   1.634   2.754  10.677  0.1855  0.0133  0.2730
  338loPI   PO4 5396   1.508   3.300  10.412 -0.0897 -0.2091 -0.2377
  338loPI   GL1 5397   1.239   3.434  10.132 -0.0943 -0.2606  0.1514
  338loPI   GL2 5398   1.096   3.080  10.139  0.0390 -0.0363 -0.0962
  338loPI   C1A 5399   1.154   3.498   9.651  0.3473 -0.2251  0.1733
  338loPI   C2A 5400   1.256   3.313   9.306 -0.2280  0.2903  0.0022
  338loPI   C3A 5401   1.298   3.216   8.892 -0.0693 -0.0812  0.1551
  338loPI   C4A 5402   1.203   3.205   8.513  0.0206 -0.0159  0.0426
  338loPI   C5A 5403   1.000   3.094   8.164  0.0186  0.3632  0.4189
  338loPI   C6A 5404   0.712   3.078   7.894  0.4562  0.1108 -0.1571
  338loPI   C1B 5405   1.391   3.029   9.726  0.0713  0.0568  0.1687
  338loPI   C2B 5406   1.597   2.548   9.516 -0.0815 -0.0709 -0.5236
  338loPI   C3B 5407   1.736   2.471   9.049  0.0587 -0.1402 -0.1643
  338loPI   C4B 5408   1.600   2.397   8.680 -0.0817 -0.3183  0.0389
  339loPI    C1 5409   6.604   3.062  10.157  0.2119 -0.0695  0.1040
  339loPI    C2 5410   6.392   3.177  10.476 -0.2361 -0.2649 -0.1141
  339loPI    C3 5411   6.754   3.014  10.525  0.0395  0.4136  0.2453
  339loPI   PO4 5412   6.704   3.269  10.002  0.1571 -0.0103 -0.0998
  339loPI   GL1 5413   6.704   3.622   9.707 -0.4039  0.2002  0.0145
  339loPI   GL2 5414   6.348   3.515   9.575  0.1057 -0.4733 -0.2848
  339loPI   C1A 5415   6.635   3.770   9.305 -0.0848 -0.2224  0.1751
  339loPI   C2A 5416   6.606   3.771   8.799  0.1664  0.1306  0.0302
  339loPI   C3A 5417   6.562   3.726   8.377  0.2407  0.0643  0.0374
  339loPI   C4A 5418   6.810   3.625   7.997 -0.1552 -0.0528  0.0444
  339loPI   C5A 5419   6.690   3.764   7.668 -0.0567  0.0629 -0.3032
  339loPI   C6A 5420   6.853   3.951   7.225  0.0063 -0.0238  0.0222
  339loPI   C1B 5421   6.211   3.557   9.048 -0.3076  0.0270 -0.1890
  339loPI   C2B 5422   6.120   3.690   8.587  0.1400  0.1639  0.0262
  339loPI   C3B 5423   6.051   3.624   8.273 -0.4533 -0.0453 -0.0778
  339loPI   C4B 5424   6.260   3.700   7.827  0.0568  0.0886 -0.1993
  340loPI    C1 5425   6.045  16.758   9.724  0.1073 -0.0106  0.0147
  340loPI    C2 5426   5.872  16.584  10.040 -0.2288 -0.0108 -0.1651
  340loPI    C3 5427   6.046  16.943  10.079 -0.0063 -0.1424  0.0844
  340loPI   PO4 5428   5.851  16.715   9.574  0.1068 -0.4977  0.0927
  340loPI   GL1 5429   5.772  16.443   9.207  0.0385  0.3787 -0.2443
  340loPI   GL2 5430   5.867  16.122   9.066 -0.2034 -0.1307  0.3236
  340loPI   C1A 5431   5.852  16.744   8.886 -0.2211  0.0428 -0.3132
  340loPI   C2A 5432   6.032  16.831   8.429  0.0566 -0.1229 -0.0774
  340loPI   C3A 5433   5.771  17.085   8.120  0.0051 -0.1468 -0.0949
  340loPI   C4A 5434   5.693  17.158   7.637  0.0054  0.0369  0.0175
  340loPI   C5A 5435   6.012  17.114   7.298 -0.1210  0.2565  0.1602
  340loPI   C6A 5436   6.296  17.124   6.931  0.1691 -0.1353 -0.1457
  340loPI   C1B 5437   5.988  15.898   8.697  0.2015 -0.0954  0.0372
  340loPI   C2B 5438   6.195  15.841   8.262  0.0931 -0.0003  0.0379
  340loPI   C3B 5439   6.196  15.785   7.770 -0.2373 -0.1084  0.2225
  340loPI   C4B 5440   6.368  15.930   7.362 -0.0427  0.2015 -0.2562
  341loPI    C1 5441  15.994   5.948  10.349 -0.1181  0.0045  0.0246
  341loPI    C2 5442  15.973   5.926   9.950 -0.2339  0.1405  0.0223
  341loPI    C3 5443  16.328   5.905  10.133 -0.1956 -0.1028 -0.0755
  341loPI   PO4 5444  15.729   6.066  10.440 -0.2164 -0.0180 -0.0667
  341loPI   GL1 5445  15.496   6.159  10.086  0.2563 -0.1613  0.0516
  341loPI   GL2 5446  15.185   6.270   9.926 -0.0127  0.2946  0.1432
  341loPI   C1A 5447  15.482   5.763   9.785 -0.1621  0.0584 -0.0643
  341loPI   C2A 5448  15.688   5.757   9.548  0.1842 -0.2095  0.1810
  341loPI   C3A 5449  15.774   5.769   9.143 -0.0979 -0.0016  0.2630
  341loPI   C4A 5450  15.647   5.740   8.691 -0.1411  0.2252  0.0208
  341loPI   C5A 5451  15.625   5.637   8.321 -0.0420  0.1466  0.1332
  341loPI   C6A 5452  16.001   5.450   8.024  0.2571  0.0583 -0.2829
  341loPI   C1B 5453  14.932   6.419   9.594  0.1347 -0.1358 -0.0345
  341loPI   C2B 5454  15.014   6.435   9.017 -0.0615 -0.2106  0.3847
  341loPI   C3B 5455  14.868   6.295   8.638 -0.1350  0.0221  0.2806
  341loPI   C4B 5456  14.879   6.047   8.326  0.0652  0.2909 -0.3027
  342loPI    C1 5457   0.701  13.159  10.235 -0.0156 -0.0927  0.0664
  342loPI    C2 5458   0.706  12.819  10.445 -0.1883 -0.0502  0.1410
  342loPI    C3 5459   0.534  13.146  10.598 -0.1596  0.0291  0.0058
  342loPI   PO4 5460   0.586  13.160  10.053  0.0748  0.1366 -0.1952
  342loPI   GL1 5461   0.464  13.314   9.751 -0.2765  0.1877  0.0319
  342loPI   GL2 5462   0.738  13.285   9.572 -0.0560  0.0724  0.0668
  342loPI   C1A 5463   0.279  13.170   9.406  0.3153 -0.1979 -0.0522
  342loPI   C2A 5464   0.240  13.249   8.942 -0.0265  0.0740 -0.0893
  342loPI   C3A 5465   0.430  13.374   8.576  0.0105  0.0105 -0.0311
  342loPI   C4A 5466   0.597  13.426   8.151 -0.0471 -0.1030  0.5314
  342loPI   C5A 5467   0.413  13.414   7.729 -0.1385  0.2788  0.1200
  342loPI   C6A 5468  -0.068  13.454   7.694  0.0578  0.0918 -0.0312
  342loPI   C1B 5469   0.585  13.516   9.236 -0.1528 -0.3283  0.2439
  342loPI   C2B 5470   0.829  13.426   8.938 -0.1164  0.3064  0.2122
  342loPI   C3B 5471   1.069  13.349   8.506 -0.2234  0.0524  0.1449
  342loPI   C4B 5472   1.181  13.468   8.072  0.0078 -0.1176  0.1214
  343loPI    C1 5473   7.142   7.990  10.665  0.0629  0.1408  0.0406
  343loPI    C2 5474   7.097   7.722  10.958  0.2468 -0.0619 -0.1129
  343loPI    C3 5475   7.106   8.113  11.044  0.2711 -0.1175  0.1471
  343loPI   PO4 5476   7.372   7.960  10.470 -0.1413 -0.1335 -0.2177
  343loPI   GL1 5477   7.572   7.947  10.043  0.0682  0.2332  0.3684
  343loPI   GL2 5478   7.183   7.839   9.952  0.0819 -0.1683 -0.1116
  343loPI   C1A 5479   7.541   8.129   9.610 -0.1055  0.3483  0.5353
  343loPI   C2A 5480   7.361   8.419   9.286  0.2629  0.2623  0.0461
  343loPI   C3A 5481   7.274   8.531   8.877  0.0773  0.0125 -0.1674
  343loPI   C4A 5482   7.279   8.579   8.375 -0.1643  0.0980  0.3506
  343loPI   C5A 5483   7.431   8.723   8.046 -0.0709 -0.1809 -0.1988
  343loPI   C6A 5484   7.745   8.926   7.932 -0.0045 -0.0818  0.1073
  343loPI   C1B 5485   7.035   7.675   9.606 -0.0572  0.3661 -0.1622
  343loPI   C2B 5486   6.854   7.714   9.284 -0.1841 -0.2038  0.4571
  343loPI   C3B 5487   6.926   7.744   8.958  0.3983 -0.2377  0.2181
  343loPI   C4B 5488   6.929   7.696   8.552 -0.1947  0.0167  0.0495
  344loPI    C1 5489  12.117   2.875  10.313  0.1064 -0.0623  0.0661
  344loPI    C2 5490  11.865   3.184  10.283 -0.1350 -0.2443  0.1811
  344loPI    C3 5491  11.795   2.894  10.549  0.2018 -0.2952  0.2187
  344loPI   PO4 5492  12.182   2.826   9.972  0.4697  0.0978 -0.1447
  344loPI   GL1 5493  11.997   2.593   9.657  0.0241  0.1636  0.1211
  344loPI   GL2 5494  12.286   2.417   9.590  0.1944  0.0826  0.0333
  344loPI   C1A 5495  11.972   2.556   9.188  0.2940 -0.3446 -0.0940
  344loPI   C2A 5496  12.008   2.635   8.702 -0.3154  0.0621 -0.2574
  344loPI   C3A 5497  12.116   2.761   8.343 -0.6103  0.0081  0.1685
  344loPI   C4A 5498  12.097   2.694   7.924 -0.0535 -0.1755 -0.0411
  344loPI   C5A 5499  12.271   2.535   7.562 -0.2957 -0.0460 -0.4769
  344loPI   C6A 5500  12.349   2.167   7.462 -0.0364  0.1547 -0.1387
  344loPI   C1B 5501  12.448   2.566   9.222  0.1768  0.2076 -0.2468
  344loPI   C2B 5502  12.496   2.483   8.776  0.0456 -0.0770 -0.0924
  344loPI   C3B 5503  12.636   2.615   8.326  0.1627 -0.1753 -0.0661
  344loPI   C4B 5504  12.709   2.532   7.884  0.1734 -0.0422 -0.2489
  345loPI    C1 5505   0.915  15.876  10.670 -0.0359 -0.0685 -0.0601
  345loPI    C2 5506   1.312  15.826  10.663 -0.0388 -0.1036  0.0168
  345loPI    C3 5507   1.151  16.123  10.878 -0.0591 -0.1401  0.0521
  345loPI   PO4 5508   0.876  15.662  10.451  0.0735 -0.0615  0.0844
  345loPI   GL1 5509   1.100  15.821  10.046  0.0348 -0.1266  0.2306
  345loPI   GL2 5510   1.051  16.149   9.846  0.4211  0.0737  0.0395
  345loPI   C1A 5511   1.264  15.715   9.704 -0.4407 -0.1521 -0.0023
  345loPI   C2A 5512   1.167  15.456   9.293  0.0194  0.2285  0.1390
  345loPI   C3A 5513   1.054  15.418   8.892 -0.0553 -0.2334 -0.2093
  345loPI   C4A 5514   1.063  15.478   8.468  0.2815  0.1598  0.0910
  345loPI   C5A 5515   0.943  15.383   8.085 -0.3810 -0.0557  0.0531
  345loPI   C6A 5516   0.763  15.395   7.644  0.1035 -0.2577 -0.1450
  345loPI   C1B 5517   1.154  16.177   9.524  0.2026  0.1244  0.3294
  345loPI   C2B 5518   1.078  15.907   9.166 -0.0857 -0.1118 -0.0228
  345loPI   C3B 5519   1.057  15.903   8.746  0.2504 -0.2483  0.1252
  345loPI   C4B 5520   1.054  15.856   8.215 -0.0842 -0.1691 -0.1173
  346loPI    C1 5521   0.865   9.205  10.139  0.0392 -0.1169 -0.2350
  346loPI    C2 5522   1.245   9.280  10.039  0.0980  0.1220  0.1460
  346loPI    C3 5523   1.159   8.980  10.290  0.0253  0.0215  0.0030
  346loPI   PO4 5524   0.752   9.373   9.992 -0.1838 -0.0524  0.0452
  346loPI   GL1 5525   0.569   9.520   9.637  0.2846 -0.0420 -0.0001
  346loPI   GL2 5526   0.348   9.295   9.602 -0.0266  0.3490 -0.2546
  346loPI   C1A 5527   0.680   9.529   9.198  0.2820  0.4215  0.2369
  346loPI   C2A 5528   0.860   9.670   8.806  0.2495  0.2435  0.2769
  346loPI   C3A 5529   1.114   9.653   8.389 -0.1276 -0.0629  0.2059
  346loPI   C4A 5530   1.385   9.380   8.095 -0.3548 -0.0846 -0.1508
  346loPI   C5A 5531   1.725   9.274   7.890 -0.0175 -0.0687 -0.2625
  346loPI   C6A 5532   2.128   9.442   7.647 -0.3918  0.2047 -0.2267
  346loPI   C1B 5533   0.226   9.271   9.267 -0.0088 -0.0479 -0.3209
  346loPI   C2B 5534   0.100   8.875   9.019 -0.1884 -0.1723 -0.2653
  346loPI   C3B 5535   0.124   8.775   8.522 -0.0703  0.0721 -0.0449
  346loPI   C4B 5536   0.015   8.303   8.210 -0.3497 -0.1356 -0.2300
  347loPI    C1 5537   8.001   1.301  10.189 -0.4979  0.3493 -0.1179
  347loPI    C2 5538   7.657   1.100  10.160 -0.1602 -0.2514 -0.1315
  347loPI    C3 5539   7.805   1.191  10.520 -0.2836 -0.0730 -0.1243
  347loPI   PO4 5540   8.058   1.346   9.861 -0.2477  0.0042 -0.3320
  347loPI   GL1 5541   8.357   1.045   9.606 -0.1638 -0.1048  0.0622
  347loPI   GL2 5542   8.005   0.791   9.646 -0.0035  0.0310 -0.0468
  347loPI   C1A 5543   8.492   0.883   9.154  0.3086  0.0096  0.1948
  347loPI   C2A 5544   8.522   0.882   8.777  0.0916 -0.1003  0.2198
  347loPI   C3A 5545   8.625   0.995   8.374 -0.0145  0.0647  0.3759
  347loPI   C4A 5546   8.661   1.255   8.054  0.3345 -0.1800 -0.0622
  347loPI   C5A 5547   8.736   1.313   7.671 -0.0257  0.5885 -0.1265
  347loPI   C6A 5548   8.911   1.311   7.300 -0.2189 -0.2611 -0.0094
  347loPI   C1B 5549   8.062   0.618   9.200  0.0288  0.0011 -0.0704
  347loPI   C2B 5550   8.114   0.466   8.864 -0.1273  0.0788  0.0744
  347loPI   C3B 5551   8.226   0.556   8.492 -0.0532 -0.3232 -0.1631
  347loPI   C4B 5552   7.907   0.509   8.231  0.2020 -0.0394  0.1774
  348loPI    C1 5553   7.384  17.695   9.504 -0.0437 -0.1882 -0.1204
  348loPI    C2 5554   7.388  17.474   9.838  0.0420  0.1219  0.0883
  348loPI    C3 5555   7.097  17.742   9.778  0.0613  0.1112 -0.0576
  348loPI   PO4 5556   7.665  17.646   9.473  0.0315 -0.3144 -0.0849
  348loPI   GL1 5557   7.754  17.620   9.109  0.0963  0.1491 -0.0139
  348loPI   GL2 5558   7.893  17.296   9.158  0.3869 -0.1855  0.2619
  348loPI   C1A 5559   7.752  17.579   8.715  0.1683 -0.4660  0.0803
  348loPI   C2A 5560   7.746  17.747   8.277 -0.3064 -0.2779  0.2203
  348loPI   C3A 5561   7.838  18.130   7.930  0.2417 -0.0013  0.0399
  348loPI   C4A 5562   8.013  18.259   7.582  0.0348 -0.0286  0.1403
  348loPI   C5A 5563   8.115  18.502   7.188  0.1618  0.3353 -0.1599
  348loPI   C6A 5564   8.355  18.582   6.813  0.0845  0.1508 -0.0779
  348loPI   C1B 5565   7.614  17.107   8.872  0.1367 -0.0514 -0.3075
  348loPI   C2B 5566   7.611  17.118   8.512 -0.1315  0.4023  0.2614
  348loPI   C3B 5567   7.775  16.972   8.155 -0.0233 -0.0615  0.1855
  348loPI   C4B 5568   7.791  16.951   7.730 -0.0224 -0.2023  0.0979
  349loPI    C1 5569   4.381  13.704   9.897  0.4924 -0.0093  0.2212
  349loPI    C2 5570   4.298  13.725  10.287 -0.0336  0.2208  0.1057
  349loPI    C3 5571   4.108  13.964  10.030  0.0842 -0.1393 -0.3287
  349loPI   PO4 5572   4.284  13.507   9.854 -0.1871 -0.0834  0.2077
  349loPI   GL1 5573   4.225  13.389   9.557 -0.0926  0.2611  0.0439
  349loPI   GL2 5574   4.538  13.349   9.418 -0.1617 -0.4672  0.1435
  349loPI   C1A 5575   4.158  13.603   9.181 -0.0485  0.0498  0.1902
  349loPI   C2A 5576   4.132  13.647   8.783  0.0268  0.2138 -0.2540
  349loPI   C3A 5577   3.936  13.572   8.336 -0.0982 -0.1632  0.0285
  349loPI   C4A 5578   3.742  13.469   7.896  0.0268  0.2189 -0.1172
  349loPI   C5A 5579   3.914  13.406   7.442 -0.4045  0.1531 -0.1342
  349loPI   C6A 5580   4.205  13.217   7.215 -0.4134  0.0276  0.0954
  349loPI   C1B 5581   4.783  13.324   9.076  0.2149  0.3963 -0.1894
  349loPI   C2B 5582   4.776  13.152   8.655  0.1214  0.0667 -0.1637
  349loPI   C3B 5583   4.694  12.955   8.415 -0.0215  0.0466 -0.1905
  349loPI   C4B 5584   4.491  12.855   8.038  0.0577  0.1010  0.1762
  350loPI    C1 5585  10.738   9.896  10.528 -0.0133  0.0996 -0.1284
  350loPI    C2 5586  10.393   9.695  10.560  0.0472  0.0346  0.1398
  350loPI    C3 5587  10.481   9.984  10.822  0.1585  0.1100  0.0205
  350loPI   PO4 5588  10.737  10.014  10.310  0.0697  0.4293 -0.1481
  350loPI   GL1 5589  10.791   9.715   9.911  0.0613  0.2391 -0.2047
  350loPI   GL2 5590  10.452   9.748  10.043  0.2324 -0.1531 -0.0253
  350loPI   C1A 5591  10.956   9.817   9.582  0.0580  0.2376  0.1075
  350loPI   C2A 5592  10.984   9.743   9.154 -0.1223 -0.1731  0.0656
  350loPI   C3A 5593  10.892   9.613   8.807  0.0645  0.1482  0.2527
  350loPI   C4A 5594  10.943   9.655   8.368  0.0715 -0.2247 -0.0065
  350loPI   C5A 5595  10.618   9.545   8.055  0.1888 -0.3340 -0.1623
  350loPI   C6A 5596  10.285   9.528   7.756 -0.3006 -0.2212 -0.1152
  350loPI   C1B 5597  10.438   9.904   9.614  0.0153 -0.2568  0.2809
  350loPI   C2B 5598  10.517   9.926   9.203 -0.1566  0.0642 -0.1327
  350loPI   C3B 5599  10.427   9.587   9.040  0.1277 -0.0744 -0.0317
  350loPI   C4B 5600  10.519   9.442   8.570 -0.3249 -0.3881  0.1585
  351loPI    C1 5601   4.495  16.286  10.133  0.0588 -0.0197  0.0468
  351loPI    C2 5602   4.377  16.031  10.418  0.0885 -0.1564 -0.0623
  351loPI    C3 5603   4.628  15.909  10.132  0.3944  0.0951  0.0923
  351loPI   PO4 5604   4.301  16.337  10.072  0.4803 -0.0745 -0.1973
  351loPI   GL1 5605   4.368  16.478   9.681 -0.1523 -0.0228 -0.1354
  351loPI   GL2 5606   4.490  16.124   9.693 -0.3216 -0.2401  0.3528
  351loPI   C1A 5607   4.127  16.424   9.346 -0.0534 -0.0202  0.2242
  351loPI   C2A 5608   3.927  16.573   8.938 -0.1376  0.0918 -0.2084
  351loPI   C3A 5609   3.894  16.370   8.659  0.0992  0.1963  0.2587
  351loPI   C4A 5610   4.048  16.104   8.391  0.0111  0.1022 -0.3877
  351loPI   C5A 5611   3.727  16.104   8.104  0.0411  0.3064  0.0525
  351loPI   C6A 5612   3.655  16.288   7.801 -0.0846 -0.2601 -0.1546
  351loPI   C1B 5613   4.574  16.175   9.202 -0.1457  0.0170  0.1985
  351loPI   C2B 5614   4.447  16.286   8.855 -0.0602 -0.0181  0.1354
  351loPI   C3B 5615   4.477  16.306   8.324  0.0397 -0.1077 -0.0106
  351loPI   C4B 5616   4.179  16.144   7.871 -0.0690 -0.0736  0.0822
  352loPI    C1 5617   3.615  10.512  10.331  0.0922 -0.1071 -0.0057
  352loPI    C2 5618   3.272  10.313  10.384  0.0647 -0.1157 -0.2114
  352loPI    C3 5619   3.577  10.257  10.637 -0.0921 -0.0921 -0.0152
  352loPI   PO4 5620   3.638  10.461  10.084 -0.1539  0.1396 -0.0880
  352loPI   GL1 5621   3.840  10.250   9.797 -0.0318 -0.0281  0.3706
  352loPI   GL2 5622   4.170  10.265   9.868  0.0510 -0.0092  0.1791
  352loPI   C1A 5623   3.597  10.381   9.391  0.1475  0.1005 -0.1420
  352loPI   C2A 5624   3.709  10.542   9.024  0.0020  0.0045 -0.0631
  352loPI   C3A 5625   3.560  10.530   8.569 -0.0581  0.3998 -0.0416
  352loPI   C4A 5626   3.657  10.862   8.362 -0.3085  0.0122  0.1899
  352loPI   C5A 5627   3.851  10.829   7.885  0.0783 -0.0410 -0.1691
  352loPI   C6A 5628   3.958  10.493   7.555 -0.0303 -0.1223  0.1243
  352loPI   C1B 5629   4.568  10.116   9.758  0.1859  0.2767 -0.0980
  352loPI   C2B 5630   4.847   9.837   9.470 -0.2733  0.0257  0.1082
  352loPI   C3B 5631   4.912   9.919   8.995  0.3096  0.1412 -0.1528
  352loPI   C4B 5632   5.161   9.898   8.661  0.2250  0.1808  0.1171
  353loPI    C1 5633   0.538   5.504  10.551 -0.0409  0.0650 -0.2353
  353loPI    C2 5634   0.576   5.227  10.265 -0.1420 -0.0589 -0.1301
  353loPI    C3 5635   0.418   5.129  10.619  0.4788 -0.0402  0.1649
  353loPI   PO4 5636   0.774   5.626  10.453 -0.0423  0.0367 -0.2206
  353loPI   GL1 5637   1.060   5.525  10.094  0.1378 -0.0414 -0.1434
  353loPI   GL2 5638   1.086   5.222  10.142  0.0756 -0.1439 -0.0643
  353loPI   C1A 5639   1.129   5.684   9.786 -0.0969 -0.0741 -0.1037
  353loPI   C2A 5640   0.959   5.666   9.396  0.0899 -0.1894 -0.3529
  353loPI   C3A 5641   0.826   5.688   8.919  0.0365 -0.3002  0.1434
  353loPI   C4A 5642   0.856   5.698   8.432 -0.2181 -0.0832  0.1119
  353loPI   C5A 5643   1.079   5.679   8.090  0.3429  0.4018  0.0819
  353loPI   C6A 5644   1.006   5.429   7.676 -0.1960 -0.0243 -0.2974
  353loPI   C1B 5645   1.064   5.149   9.699  0.0504  0.1642  0.0429
  353loPI   C2B 5646   1.289   4.944   9.443  0.2667  0.0200  0.0937
  353loPI   C3B 5647   1.237   5.037   9.049  0.3886 -0.2105  0.0180
  353loPI   C4B 5648   1.076   5.107   8.630 -0.1004 -0.2547  0.2590
  354loPI    C1 5649   2.822   6.726  10.397 -0.1106 -0.0985 -0.0920
  354loPI    C2 5650   2.884   6.334  10.445  0.0805 -0.0543  0.0321
  354loPI    C3 5651   3.155   6.597  10.576 -0.0080  0.1172 -0.1247
  354loPI   PO4 5652   2.817   6.765  10.118 -0.0702 -0.0474  0.1944
  354loPI   GL1 5653   2.669   6.787   9.670 -0.1460 -0.1154 -0.0989
  354loPI   GL2 5654   3.065   6.748   9.687  0.0595 -0.0655 -0.1750
  354loPI   C1A 5655   2.763   6.471   9.307 -0.1989 -0.2123 -0.2154
  354loPI   C2A 5656   2.745   6.536   8.938 -0.2176 -0.1526 -0.0737
  354loPI   C3A 5657   2.613   6.438   8.518  0.1742 -0.0032  0.2263
  354loPI   C4A 5658   2.371   6.697   8.192  0.1351  0.0469 -0.0481
  354loPI   C5A 5659   2.040   6.807   7.946 -0.1972  0.1408  0.1366
  354loPI   C6A 5660   1.589   6.826   7.941 -0.2848 -0.1655  0.1042
  354loPI   C1B 5661   3.148   6.866   9.245  0.1792 -0.1246 -0.0129
  354loPI   C2B 5662   2.993   6.937   8.811 -0.1534 -0.1202 -0.1797
  354loPI   C3B 5663   2.652   7.105   8.525  0.1420  0.0344  0.0427
  354loPI   C4B 5664   2.375   7.490   8.441 -0.0831  0.1201 -0.1251
  355loPI    C1 5665  12.586   3.208  10.175  0.0111  0.3562 -0.1755
  355loPI    C2 5666  12.294   3.422  10.342 -0.0693  0.1257 -0.0158
  355loPI    C3 5667  12.674   3.539  10.381 -0.1165  0.2697  0.0209
  355loPI   PO4 5668  12.624   3.103   9.962  0.0531  0.4198 -0.1114
  355loPI   GL1 5669  12.603   3.394   9.676  0.0774 -0.0479  0.0954
  355loPI   GL2 5670  12.642   3.686   9.871 -0.2483  0.3016 -0.1533
  355loPI   C1A 5671  12.643   3.382   9.289  0.1640  0.3023  0.0225
  355loPI   C2A 5672  12.652   3.482   8.900  0.1715 -0.1140  0.3339
  355loPI   C3A 5673  12.707   3.731   8.532  0.0619 -0.0923  0.0674
  355loPI   C4A 5674  12.578   4.131   8.174 -0.0343  0.0505 -0.2729
  355loPI   C5A 5675  12.223   4.393   8.015  0.1446  0.1954  0.0786
  355loPI   C6A 5676  12.079   4.741   7.747  0.0373  0.1486  0.0127
  355loPI   C1B 5677  12.519   3.918   9.442  0.1423 -0.0226 -0.2687
  355loPI   C2B 5678  12.335   4.243   9.275  0.3666 -0.2282 -0.2014
  355loPI   C3B 5679  11.972   4.262   9.002  0.3091 -0.2890  0.0212
  355loPI   C4B 5680  11.715   4.159   8.783  0.1175  0.0609 -0.1361
  356loPI    C1 5681  11.862   3.726  10.428 -0.0518  0.0895 -0.1499
  356loPI    C2 5682  11.547   3.832  10.650  0.0832 -0.0596  0.1184
  356loPI    C3 5683  11.910   3.971  10.740  0.1332 -0.0873 -0.0371
  356loPI   PO4 5684  11.694   3.690  10.112  0.1757  0.0617  0.0352
  356loPI   GL1 5685  11.649   3.418   9.750 -0.1705  0.2459  0.0750
  356loPI   GL2 5686  11.721   3.093   9.783 -0.1884 -0.0159  0.0678
  356loPI   C1A 5687  11.842   3.451   9.350  0.1688  0.1977 -0.3362
  356loPI   C2A 5688  11.798   3.715   9.063 -0.1951  0.0639  0.0491
  356loPI   C3A 5689  11.727   3.563   8.587 -0.2673 -0.2883 -0.1429
  356loPI   C4A 5690  11.769   3.715   8.240  0.4097  0.0525  0.0309
  356loPI   C5A 5691  11.750   3.742   7.844 -0.0881  0.1976  0.1129
  356loPI   C6A 5692  11.462   3.715   7.525 -0.1075 -0.1678  0.2610
  356loPI   C1B 5693  11.762   2.977   9.411  0.3811  0.2310  0.0335
  356loPI   C2B 5694  11.542   2.830   9.012 -0.0059 -0.1094  0.1787
  356loPI   C3B 5695  11.525   2.723   8.557  0.0914  0.0099 -0.2072
  356loPI   C4B 5696  11.617   2.607   8.106  0.1842  0.1020  0.0022
  357loPI    C1 5697   4.529  11.918  10.435  0.0425 -0.1779  0.3506
  357loPI    C2 5698   4.609  12.278  10.590  0.0344  0.0261 -0.1031
  357loPI    C3 5699   4.250  12.111  10.647  0.0425  0.0814  0.1196
  357loPI   PO4 5700   4.632  11.879  10.252 -0.0421 -0.1097 -0.1819
  357loPI   GL1 5701   4.817  11.579   9.926 -0.1593 -0.3830 -0.0278
  357loPI   GL2 5702   4.601  11.311   9.877 -0.2404 -0.0421 -0.1047
  357loPI   C1A 5703   5.067  11.509   9.560 -0.2032 -0.2404 -0.2360
  357loPI   C2A 5704   5.307  11.423   9.312  0.1131 -0.2518  0.1395
  357loPI   C3A 5705   5.431  11.249   8.849 -0.3931  0.3249  0.1011
  357loPI   C4A 5706   5.475  11.221   8.384 -0.5368 -0.4067 -0.1176
  357loPI   C5A 5707   5.318  10.937   7.996  0.2943  0.1864 -0.0346
  357loPI   C6A 5708   5.100  10.654   7.648 -0.0044  0.1357  0.1917
  357loPI   C1B 5709   4.589  11.514   9.403  0.4878  0.1109  0.0544
  357loPI   C2B 5710   4.738  11.337   8.962 -0.3680 -0.0424  0.0151
  357loPI   C3B 5711   4.987  11.366   8.599  0.0818  0.2457  0.1691
  357loPI   C4B 5712   5.056  11.445   8.201 -0.1416  0.0233 -0.1136
  358loPI    C1 5713   6.891   4.576  10.430 -0.0181 -0.0261  0.1776
  358loPI    C2 5714   7.181   4.814  10.569 -0.0644  0.0123  0.2086
  358loPI    C3 5715   7.231   4.417  10.568 -0.0081  0.0194  0.2054
  358loPI   PO4 5716   6.693   4.914  10.343 -0.0326  0.2133  0.2421
  358loPI   GL1 5717   6.692   5.009  10.012  0.2474 -0.1085  0.0595
  358loPI   GL2 5718   6.988   5.115   9.915  0.1329  0.0026  0.4534
  358loPI   C1A 5719   6.627   5.261   9.607 -0.0088  0.3477 -0.2832
  358loPI   C2A 5720   6.447   5.289   9.200 -0.0127  0.1354 -0.2135
  358loPI   C3A 5721   6.170   5.442   8.958 -0.1342  0.4085 -0.4000
  358loPI   C4A 5722   6.272   5.396   8.538  0.1758  0.1210 -0.0178
  358loPI   C5A 5723   6.550   5.570   8.150 -0.1573 -0.2163 -0.1254
  358loPI   C6A 5724   6.671   5.879   7.702  0.0586 -0.1670  0.1193
  358loPI   C1B 5725   6.884   4.873   9.443 -0.0220 -0.0339 -0.1498
  358loPI   C2B 5726   6.568   4.821   9.227  0.3061  0.0172  0.0744
  358loPI   C3B 5727   6.492   4.612   8.836 -0.0328 -0.0584 -0.0998
  358loPI   C4B 5728   6.390   4.567   8.347  0.2194 -0.2138 -0.3288
  359loPI    C1 5729   1.600   1.121  10.436  0.0519 -0.0771 -0.0286
  359loPI    C2 5730   1.280   0.880  10.443  0.0373 -0.0585 -0.0508
  359loPI    C3 5731   1.519   0.905  10.763 -0.0026 -0.0468 -0.0220
  359loPI   PO4 5732   1.543   1.219  10.088 -0.0157 -0.0759 -0.0080
  359loPI   GL1 5733   1.402   1.521   9.878  0.2147 -0.0080  0.3378
  359loPI   GL2 5734   1.618   1.766   9.935 -0.1306 -0.2598  0.1662
  359loPI   C1A 5735   1.280   1.600   9.448 -0.0974 -0.1810 -0.1688
  359loPI   C2A 5736   1.251   1.515   8.951 -0.3274 -0.2339  0.0260
  359loPI   C3A 5737   1.173   1.589   8.535  0.2254 -0.4545  0.2399
  359loPI   C4A 5738   1.225   1.747   8.136 -0.0421 -0.1167  0.0111
  359loPI   C5A 5739   1.639   1.937   7.977  0.4504  0.1507  0.2656
  359loPI   C6A 5740   2.085   1.935   7.905  0.3960 -0.0433  0.0565
  359loPI   C1B 5741   1.775   1.587   9.578 -0.1446  0.4084 -0.3116
  359loPI   C2B 5742   1.729   1.410   9.200  0.2987 -0.1097  0.0206
  359loPI   C3B 5743   1.716   1.400   8.673  0.2848 -0.2366  0.0056
  359loPI   C4B 5744   1.639   1.458   8.165  0.0978  0.0015 -0.2391
  360loPI    C1 5745   3.035   3.501  10.119  0.1879 -0.0297 -0.0450
  360loPI    C2 5746   2.662   3.384  10.033  0.1206  0.0594  0.1205
  360loPI    C3 5747   2.971   3.233   9.828  0.0273 -0.3191  0.2495
  360loPI   PO4 5748   3.021   3.797   9.990  0.4291  0.0666  0.0560
  360loPI   GL1 5749   3.406   3.980   9.802 -0.1542  0.1760 -0.1060
  360loPI   GL2 5750   3.355   3.576   9.702  0.1978 -0.2380  0.3904
  360loPI   C1A 5751   3.272   4.113   9.446  0.1777 -0.1843  0.0719
  360loPI   C2A 5752   3.153   4.204   9.045 -0.4288  0.1571 -0.1292
  360loPI   C3A 5753   3.078   4.170   8.621  0.3801  0.2816  0.1973
  360loPI   C4A 5754   3.079   4.280   8.200 -0.1204 -0.1829  0.1518
  360loPI   C5A 5755   3.090   4.506   7.858  0.1372 -0.0429  0.1783
  360loPI   C6A 5756   3.092   4.815   7.480  0.1069 -0.4053  0.0443
  360loPI   C1B 5757   3.442   3.610   9.340 -0.2387 -0.1632 -0.0031
  360loPI   C2B 5758   3.407   3.694   9.014  0.1974  0.0096  0.1280
  360loPI   C3B 5759   3.152   3.685   8.642 -0.1829 -0.0195 -0.1499
  360loPI   C4B 5760   2.963   3.762   8.276  0.0169 -0.4387 -0.3421
  361loPI    C1 5761  14.127  18.243  10.467 -0.3380  0.3546  0.1014
  361loPI    C2 5762  13.829  17.980  10.509 -0.0610  0.0071 -0.0572
  361loPI    C3 5763  14.153  17.954  10.742 -0.0181  0.1897 -0.0955
  361loPI   PO4 5764  14.102  18.314  10.253  0.0522 -0.0024 -0.0599
  361loPI   GL1 5765  14.189  18.235   9.785 -0.0788  0.0601  0.0157
  361loPI   GL2 5766  14.398  18.098   9.666  0.2054  0.0769 -0.0466
  361loPI   C1A 5767  14.044  18.342   9.449 -0.2663  0.1353  0.1653
  361loPI   C2A 5768  14.000  18.471   8.966 -0.0433  0.0814  0.1550
  361loPI   C3A 5769  14.305  18.520   8.586 -0.0058  0.1457 -0.1697
  361loPI   C4A 5770  14.346  18.386   8.160 -0.1355  0.2558 -0.1226
  361loPI   C5A 5771  14.512  18.334   7.729  0.2836  0.3545 -0.0412
  361loPI   C6A 5772  14.816  18.125   7.572 -0.0342  0.5466 -0.2962
  361loPI   C1B 5773  14.618  17.790   9.463 -0.0297 -0.3492 -0.1365
  361loPI   C2B 5774  14.469  17.575   9.179 -0.2643 -0.1356  0.0861
  361loPI   C3B 5775  14.313  17.611   8.825 -0.1557  0.0340 -0.1349
  361loPI   C4B 5776  14.087  17.519   8.499 -0.2746 -0.2203 -0.0643
  362loPI    C1 5777  13.467  17.001  10.354  0.0217  0.1501 -0.2541
  362loPI    C2 5778  13.177  17.100  10.611  0.0632 -0.2610 -0.0401
  362loPI    C3 5779  13.560  17.167  10.705  0.0644 -0.1638 -0.1132
  362loPI   PO4 5780  13.336  17.177  10.090  0.1575  0.1344  0.0950
  362loPI   GL1 5781  13.046  17.251   9.745  0.0036  0.0038 -0.0251
  362loPI   GL2 5782  12.814  16.975   9.755 -0.1156 -0.0744 -0.0610
  362loPI   C1A 5783  13.184  17.177   9.323 -0.1862  0.0938  0.2712
  362loPI   C2A 5784  13.198  16.960   8.920  0.0994 -0.2379  0.1550
  362loPI   C3A 5785  13.313  16.771   8.571 -0.1060  0.0872 -0.0724
  362loPI   C4A 5786  13.420  16.813   8.122  0.2035 -0.1191  0.1670
  362loPI   C5A 5787  13.406  17.072   7.832  0.0833  0.1075 -0.1183
  362loPI   C6A 5788  13.315  17.360   7.390  0.0393 -0.0483  0.0191
  362loPI   C1B 5789  12.869  16.753   9.313 -0.0334 -0.0404 -0.1768
  362loPI   C2B 5790  12.872  16.523   9.052  0.0836  0.1517  0.0439
  362loPI   C3B 5791  12.939  16.422   8.484 -0.2579  0.0495  0.4363
  362loPI   C4B 5792  12.963  16.550   8.100  0.0252  0.2840 -0.0685
  363loPI    C1 5793   9.227   5.147  10.369  0.2437 -0.1402 -0.0361
  363loPI    C2 5794   9.300   5.481  10.162  0.0290  0.0023  0.1138
  363loPI    C3 5795   9.240   5.500  10.557  0.0066 -0.2128  0.1219
  363loPI   PO4 5796   9.024   5.044  10.159 -0.0068 -0.0027 -0.0802
  363loPI   GL1 5797   8.881   5.213   9.925  0.3030  0.1371 -0.1137
  363loPI   GL2 5798   8.730   4.936   9.759 -0.0976  0.0116  0.2219
  363loPI   C1A 5799   8.986   5.283   9.454 -0.1635  0.0536 -0.0202
  363loPI   C2A 5800   8.725   5.203   9.067 -0.0581  0.1149 -0.3384
  363loPI   C3A 5801   8.352   5.213   8.634 -0.0376 -0.1812 -0.4034
  363loPI   C4A 5802   8.264   5.235   8.202  0.0439  0.1820  0.1978
  363loPI   C5A 5803   8.553   5.267   7.903 -0.0396 -0.1616  0.0284
  363loPI   C6A 5804   8.571   5.701   7.862 -0.2166  0.5189  0.0446
  363loPI   C1B 5805   8.605   4.565   9.541 -0.3394  0.0387 -0.1292
  363loPI   C2B 5806   8.420   4.408   9.205  0.4099  0.0676  0.1533
  363loPI   C3B 5807   8.398   4.337   8.786  0.0615 -0.1388 -0.0883
  363loPI   C4B 5808   8.275   4.379   8.299  0.1652  0.0225 -0.0741
  364loPI    C1 5809   8.136  11.689  10.491 -0.2746  0.1306 -0.3154
  364loPI    C2 5810   7.740  11.694  10.545 -0.2285 -0.0195  0.0679
  364loPI    C3 5811   7.965  11.990  10.692 -0.1814 -0.0177 -0.0076
  364loPI   PO4 5812   8.171  11.579  10.221  0.0740  0.0813 -0.2182
  364loPI   GL1 5813   8.243  11.754   9.800 -0.2565  0.0571  0.1447
  364loPI   GL2 5814   8.127  11.341   9.759  0.0639  0.0056 -0.0586
  364loPI   C1A 5815   8.327  11.741   9.359 -0.2936  0.2581 -0.1000
  364loPI   C2A 5816   8.369  11.948   8.940 -0.3170  0.0482 -0.2190
  364loPI   C3A 5817   8.463  11.962   8.514  0.0834  0.2388  0.0085
  364loPI   C4A 5818   8.624  11.775   8.156  0.0631  0.2823 -0.1264
  364loPI   C5A 5819   8.720  11.636   7.734  0.1461  0.1304  0.0578
  364loPI   C6A 5820   8.980  12.013   7.558  0.0652  0.0342 -0.1606
  364loPI   C1B 5821   8.357  11.252   9.443 -0.2021  0.1404 -0.2974
  364loPI   C2B 5822   8.393  11.402   9.021 -0.2306  0.0664 -0.0745
  364loPI   C3B 5823   8.560  11.492   8.641 -0.0976 -0.2167  0.2061
  364loPI   C4B 5824   8.859  11.327   8.351  0.1229 -0.3734 -0.0036
  365loPI    C1 5825  13.308  17.976  10.391  0.1758 -0.0762  0.2046
  365loPI    C2 5826  13.091  17.800  10.677  0.0610 -0.0196  0.1534
  365loPI    C3 5827  13.415  17.617  10.531 -0.1490 -0.2648 -0.0153
  365loPI   PO4 5828  13.166  18.026  10.218 -0.1115  0.0053  0.5284
  365loPI   GL1 5829  13.098  17.976   9.904 -0.1732  0.0318  0.0813
  365loPI   GL2 5830  13.392  17.953   9.676 -0.2146  0.0762  0.0340
  365loPI   C1A 5831  13.048  17.687   9.542 -0.0373  0.0925 -0.2229
  365loPI   C2A 5832  13.077  17.589   9.052 -0.2627  0.0714  0.3022
  365loPI   C3A 5833  13.078  17.387   8.655  0.1184  0.0514  0.2783
  365loPI   C4A 5834  13.157  17.321   8.225 -0.2429 -0.1799  0.0707
  365loPI   C5A 5835  13.091  17.484   7.875  0.1342  0.1654 -0.0255
  365loPI   C6A 5836  12.703  17.508   7.530  0.2929  0.0851  0.0026
  365loPI   C1B 5837  13.476  17.820   9.208  0.0809 -0.1345 -0.0134
  365loPI   C2B 5838  13.589  17.762   8.736 -0.2028  0.1582  0.1464
  365loPI   C3B 5839  13.652  17.544   8.330  0.2286  0.1300  0.0172
  365loPI   C4B 5840  13.717  17.517   7.923  0.0764  0.4539  0.1258
  366loPI    C1 5841   7.483  15.884  10.457 -0.0348  0.0401 -0.2595
  366loPI    C2 5842   7.365  16.266  10.476 -0.0090  0.0367  0.0133
  366loPI    C3 5843   7.341  16.033  10.800  0.2787 -0.1039 -0.0622
  366loPI   PO4 5844   7.386  15.811  10.126  0.4714 -0.0808  0.2651
  366loPI   GL1 5845   7.534  15.705   9.770 -0.0024 -0.1467 -0.0345
  366loPI   GL2 5846   7.441  15.999   9.645  0.2427 -0.0690  0.1799
  366loPI   C1A 5847   7.490  15.407   9.446 -0.1018 -0.0455 -0.3148
  366loPI   C2A 5848   7.351  15.622   9.107 -0.0578  0.0724 -0.0342
  366loPI   C3A 5849   7.188  15.643   8.711  0.0046  0.0873 -0.0508
  366loPI   C4A 5850   7.122  15.577   8.343  0.3747 -0.2030 -0.0123
  366loPI   C5A 5851   7.112  15.737   7.900  0.0537  0.3409  0.1087
  366loPI   C6A 5852   7.070  15.943   7.496 -0.4294  0.1524 -0.3963
  366loPI   C1B 5853   7.296  16.098   9.303 -0.0946  0.4432 -0.0330
  366loPI   C2B 5854   7.268  16.197   8.879 -0.1689 -0.3492 -0.0661
  366loPI   C3B 5855   7.181  16.196   8.530  0.3341  0.1898  0.0108
  366loPI   C4B 5856   7.164  16.146   8.197  0.0256 -0.0631  0.0208
  367loPI    C1 5857  15.766   0.366  10.340  0.1135 -0.3361 -0.1278
  367loPI    C2 5858  16.006   0.460  10.646 -0.0821  0.1151 -0.1061
  367loPI    C3 5859  15.676   0.243  10.710  0.0391 -0.0539 -0.0495
  367loPI   PO4 5860  15.671   0.568  10.120 -0.2241  0.1067 -0.1869
  367loPI   GL1 5861  15.752   0.651   9.781 -0.0747  0.0846  0.0227
  367loPI   GL2 5862  15.538   0.393   9.699 -0.1996  0.2199  0.4886
  367loPI   C1A 5863  15.945   0.328   9.483 -0.0369  0.0571  0.2140
  367loPI   C2A 5864  16.096   0.319   9.062  0.1091  0.0525 -0.1355
  367loPI   C3A 5865  16.256   0.418   8.620 -0.2839  0.4214 -0.2224
  367loPI   C4A 5866  16.237   0.529   8.234  0.3292  0.0316 -0.1546
  367loPI   C5A 5867  16.156   0.861   7.895 -0.3271 -0.0251  0.1207
  367loPI   C6A 5868  15.863   0.915   7.589  0.0738  0.1740  0.4588
  367loPI   C1B 5869  15.530   0.387   9.249 -0.0311  0.0501 -0.1839
  367loPI   C2B 5870  15.530   0.558   8.913 -0.0043  0.0195  0.2451
  367loPI   C3B 5871  15.246   0.787   8.954  0.1824  0.1290  0.3076
  367loPI   C4B 5872  14.857   0.799   9.111  0.0405 -0.1276 -0.1068
  368loPI    C1 5873  18.346   4.659  10.519 -0.0476 -0.2831  0.0023
  368loPI    C2 5874  18.115   4.906  10.734 -0.0473 -0.2704 -0.0117
  368loPI    C3 5875  18.322   4.616  10.916  0.0774 -0.1599  0.0241
  368loPI   PO4 5876  18.445   4.769  10.367  0.0141 -0.0325  0.2150
  368loPI   GL1 5877  18.288   4.784   9.942 -0.0418  0.0190  0.0501
  368loPI   GL2 5878  18.139   4.478  10.038  0.0846  0.0228  0.1803
  368loPI   C1A 5879  18.513   4.844   9.661 -0.4203 -0.2449  0.0709
  368loPI   C2A 5880  18.812   5.012   9.351  0.0691 -0.0712 -0.1303
  368loPI   C3A 5881  18.901   5.107   8.922  0.0643  0.3691 -0.0489
  368loPI   C4A 5882  18.810   4.917   8.453  0.1361 -0.3963  0.2306
  368loPI   C5A 5883  18.515   4.628   8.242 -0.0256  0.2591 -0.2203
  368loPI   C6A 5884  18.300   4.713   7.918 -0.1415  0.2848  0.2104
  368loPI   C1B 5885  18.366   4.310   9.692  0.0060  0.0384 -0.0110
  368loPI   C2B 5886  18.424   4.112   9.299 -0.1407  0.0942 -0.0936
  368loPI   C3B 5887  18.667   4.169   8.976  0.3245 -0.0186  0.1129
  368loPI   C4B 5888  18.678   4.552   8.721 -0.0501 -0.3516 -0.1594
  369loPI    C1 5889  10.696   3.715  10.592 -0.0236 -0.1585 -0.2260
  369loPI    C2 5890  10.904   3.471  10.353  0.0208 -0.1160 -0.2310
  369loPI    C3 5891  11.053   3.578  10.708  0.0912  0.0615 -0.3126
  369loPI   PO4 5892  10.639   3.908  10.424 -0.0187 -0.0435  0.0749
  369loPI   GL1 5893  10.709   3.837   9.949  0.1455 -0.0874  0.3694
  369loPI   GL2 5894  10.491   3.643   9.673  0.1660  0.0612  0.0492
  369loPI   C1A 5895  10.896   3.832   9.552  0.0927 -0.1552 -0.0426
  369loPI   C2A 5896  10.874   3.666   9.140 -0.0946 -0.2119 -0.0089
  369loPI   C3A 5897  10.883   3.501   8.795 -0.0941  0.0236  0.0978
  369loPI   C4A 5898  10.948   3.633   8.359 -0.0150  0.0870 -0.2915
  369loPI   C5A 5899  10.958   3.731   7.838  0.0648  0.1472 -0.0311
  369loPI   C6A 5900  10.755   3.884   7.513  0.2581  0.0305  0.1004
  369loPI   C1B 5901  10.779   3.370   9.505  0.2647 -0.0611  0.5276
  369loPI   C2B 5902  10.804   3.094   9.112  0.0724  0.0497 -0.0634
  369loPI   C3B 5903  11.023   2.940   8.693  0.1709  0.2216  0.0962
  369loPI   C4B 5904  11.109   2.877   8.244 -0.3005  0.2292  0.0233
  370loPI    C1 5905   5.167   9.205  10.076  0.2407  0.0287  0.0372
  370loPI    C2 5906   5.140   8.913  10.347  0.0140  0.2442  0.2529
  370loPI    C3 5907   4.866   9.204  10.339 -0.2032  0.0409 -0.4517
  370loPI   PO4 5908   5.464   9.356  10.086 -0.1364  0.2285 -0.1335
  370loPI   GL1 5909   5.703   9.260   9.756 -0.2538  0.0164  0.1242
  370loPI   GL2 5910   5.942   9.008   9.714 -0.1187 -0.1844 -0.0180
  370loPI   C1A 5911   5.515   9.068   9.351 -0.0113 -0.1055 -0.2910
  370loPI   C2A 5912   5.569   8.957   8.971  0.2601 -0.2620  0.2499
  370loPI   C3A 5913   5.666   9.036   8.476  0.2759 -0.0825 -0.1981
  370loPI   C4A 5914   5.605   9.426   8.104  0.2002 -0.1244 -0.3121
  370loPI   C5A 5915   5.602   9.358   7.667 -0.1289  0.3269  0.0391
  370loPI   C6A 5916   5.577   9.209   7.271  0.1849 -0.0034  0.0086
  370loPI   C1B 5917   6.023   9.025   9.278  0.2188 -0.2505 -0.0233
  370loPI   C2B 5918   6.012   9.182   8.841 -0.2513 -0.1114 -0.0313
  370loPI   C3B 5919   5.912   9.444   8.567 -0.4067 -0.2705  0.3345
  370loPI   C4B 5920   5.654   9.784   8.456  0.1727 -0.2231 -0.2907
  371loPI    C1 5921  14.199  14.085  10.357 -0.2973  0.2569  0.0742
  371loPI    C2 5922  14.351  14.455  10.348  0.2181  0.0530  0.0138
  371loPI    C3 5923  14.262  14.284  10.698 -0.0466  0.2391  0.0405
  371loPI   PO4 5924  14.322  13.950  10.191  0.2302  0.1871 -0.2454
  371loPI   GL1 5925  14.125  13.924   9.798  0.0981 -0.1199  0.0922
  371loPI   GL2 5926  14.033  14.293   9.930 -0.2126 -0.0042  0.2076
  371loPI   C1A 5927  13.965  13.867   9.308  0.0055 -0.1374  0.2230
  371loPI   C2A 5928  13.715  13.790   8.915 -0.1689  0.1931  0.0745
  371loPI   C3A 5929  13.456  13.592   8.604 -0.1588  0.0328 -0.1537
  371loPI   C4A 5930  13.348  13.445   8.194  0.2565  0.1014 -0.0432
  371loPI   C5A 5931  13.265  13.137   7.909  0.0143 -0.1872  0.0465
  371loPI   C6A 5932  13.139  13.139   7.487 -0.1392  0.0607 -0.0030
  371loPI   C1B 5933  14.236  14.269   9.474  0.1288 -0.0529  0.3437
  371loPI   C2B 5934  14.533  14.132   9.071  0.0707 -0.1897 -0.3293
  371loPI   C3B 5935  14.812  14.200   8.768 -0.1315 -0.1422  0.2861
  371loPI   C4B 5936  15.019  14.438   8.518 -0.0949 -0.1035 -0.0877
  372loPI    C1 5937   5.108  12.205  10.625 -0.0289  0.0872 -0.1868
  372loPI    C2 5938   5.333  12.500  10.775 -0.0707  0.1607 -0.2675
  372loPI    C3 5939   5.027  12.354  10.987 -0.0057  0.1257 -0.1973
  372loPI   PO4 5940   5.153  12.225  10.362 -0.1531  0.0882 -0.1647
  372loPI   GL1 5941   5.332  12.161   9.886  0.1165 -0.1271 -0.1094
  372loPI   GL2 5942   5.056  12.007   9.852 -0.2485  0.0673  0.2696
  372loPI   C1A 5943   5.368  11.982   9.399 -0.0785 -0.1191  0.2366
  372loPI   C2A 5944   5.417  11.832   9.029 -0.0564  0.2489 -0.0123
  372loPI   C3A 5945   5.475  11.757   8.590  0.5381  0.1790  0.1853
  372loPI   C4A 5946   5.530  11.730   8.140  0.2342 -0.1199 -0.4277
  372loPI   C5A 5947   5.453  11.429   7.866  0.3129 -0.0424  0.2559
  372loPI   C6A 5948   5.218  11.253   7.541  0.1555  0.2746  0.1291
  372loPI   C1B 5949   4.791  11.912   9.452 -0.1413  0.1832  0.2143
  372loPI   C2B 5950   4.873  11.788   9.064  0.1330  0.0682  0.0453
  372loPI   C3B 5951   5.017  11.855   8.702  0.1768 -0.2322 -0.0123
  372loPI   C4B 5952   5.236  12.133   8.386  0.1266  0.1046  0.0852
  373loPI    C1 5953  16.220   1.399  10.318  0.0854 -0.1298 -0.1039
  373loPI    C2 5954  16.107   1.507  10.686  0.1092  0.4239 -0.2504
  373loPI    C3 5955  15.832   1.399  10.416  0.0885  0.0573 -0.0885
  373loPI   PO4 5956  16.387   1.584  10.214 -0.0043  0.1112 -0.0608
  373loPI   GL1 5957  16.731   1.453  10.035 -0.2030 -0.2244  0.2812
  373loPI   GL2 5958  16.636   1.344   9.714 -0.1942 -0.1888 -0.0128
  373loPI   C1A 5959  17.103   1.369   9.843 -0.2303  0.3189  0.1619
  373loPI   C2A 5960  17.255   1.379   9.304  0.0913  0.0066 -0.1769
  373loPI   C3A 5961  17.286   1.471   8.862  0.0861  0.2556 -0.2956
  373loPI   C4A 5962  17.314   1.845   8.682  0.0572 -0.0550 -0.2699
  373loPI   C5A 5963  17.597   2.055   8.306  0.0675 -0.1750 -0.0673
  373loPI   C6A 5964  17.981   2.207   8.144  0.1785  0.2360 -0.4077
  373loPI   C1B 5965  16.735   1.297   9.246  0.0981 -0.0802  0.0528
  373loPI   C2B 5966  16.765   1.275   8.877 -0.1005  0.0502  0.2139
  373loPI   C3B 5967  16.858   1.203   8.450 -0.0333  0.0368  0.0205
  373loPI   C4B 5968  17.010   0.939   8.182  0.1704 -0.1591  0.1288
  374loPI    C1 5969   1.559  13.255  10.172 -0.2658 -0.2721 -0.1321
  374loPI    C2 5970   1.700  13.018  10.461 -0.1415 -0.1432 -0.0860
  374loPI    C3 5971   1.629  13.404  10.536 -0.2400 -0.1407 -0.1902
  374loPI   PO4 5972   1.712  13.212   9.958  0.4281 -0.1954  0.0251
  374loPI   GL1 5973   1.676  13.390   9.587 -0.2060 -0.2545  0.0466
  374loPI   GL2 5974   1.437  13.328   9.429  0.1701 -0.1334 -0.0116
  374loPI   C1A 5975   1.888  13.513   9.162  0.0098  0.0112  0.2314
  374loPI   C2A 5976   2.052  13.544   8.772  0.0027  0.3596  0.2836
  374loPI   C3A 5977   2.197  13.221   8.414  0.2018  0.0867  0.0997
  374loPI   C4A 5978   2.282  12.959   8.235 -0.1591 -0.1413 -0.2698
  374loPI   C5A 5979   2.164  12.919   7.741 -0.1485  0.2538 -0.2372
  374loPI   C6A 5980   1.896  13.109   7.463 -0.1018  0.0991 -0.1626
  374loPI   C1B 5981   1.451  13.395   8.992  0.2708 -0.1238 -0.3978
  374loPI   C2B 5982   1.582  13.477   8.713 -0.0991 -0.3580  0.2005
  374loPI   C3B 5983   1.660  13.383   8.359 -0.1609  0.0233 -0.2467
  374loPI   C4B 5984   1.927  13.259   7.992  0.3529 -0.1676  0.1121
  375loPI    C1 5985  14.579   2.787  10.718  0.1914 -0.0319  0.1677
  375loPI    C2 5986  14.787   2.610  11.010 -0.0522 -0.3661  0.1440
  375loPI    C3 5987  14.459   2.821  11.097  0.2863  0.1626  0.1817
  375loPI   PO4 5988  14.718   2.673  10.525  0.2412 -0.3477 -0.0200
  375loPI   GL1 5989  14.670   2.668  10.056 -0.1584  0.0975 -0.1759
  375loPI   GL2 5990  14.924   2.913   9.925 -0.2797 -0.1707 -0.2920
  375loPI   C1A 5991  14.646   2.686   9.606  0.1154  0.0743 -0.3390
  375loPI   C2A 5992  14.754   2.776   9.140  0.1961  0.0122 -0.0019
  375loPI   C3A 5993  14.843   2.710   8.683  0.1393 -0.0492 -0.0387
  375loPI   C4A 5994  14.968   2.722   8.277 -0.1427 -0.0527  0.2632
  375loPI   C5A 5995  15.077   2.594   7.874 -0.2845 -0.1496  0.2893
  375loPI   C6A 5996  15.215   2.334   7.613 -0.0724  0.1791 -0.0422
  375loPI   C1B 5997  15.134   2.860   9.510  0.1128 -0.2414 -0.3265
  375loPI   C2B 5998  15.270   2.736   9.058  0.3499 -0.1798 -0.0971
  375loPI   C3B 5999  15.318   2.817   8.606  0.3112  0.1243 -0.0497
  375loPI   C4B 6000  15.364   2.967   8.068  0.0119  0.0019  0.1435
  376loPI    C1 6001  17.584   7.614  10.516  0.0845  0.1668 -0.0141
  376loPI    C2 6002  17.898   7.860  10.537  0.2724 -0.0688 -0.0197
  376loPI    C3 6003  17.693   7.770  10.868  0.2710  0.0076  0.0005
  376loPI   PO4 6004  17.689   7.362  10.458 -0.0798  0.1089 -0.0949
  376loPI   GL1 6005  17.571   7.119  10.097 -0.2225  0.0085 -0.0123
  376loPI   GL2 6006  17.624   6.817  10.062  0.0747 -0.0430 -0.3353
  376loPI   C1A 6007  17.730   7.211   9.748  0.0232  0.2484 -0.3435
  376loPI   C2A 6008  17.696   7.532   9.357 -0.2102  0.1308 -0.0419
  376loPI   C3A 6009  17.865   7.572   8.955 -0.1053  0.1948  0.2039
  376loPI   C4A 6010  17.576   7.427   8.627 -0.0112 -0.4376  0.0513
  376loPI   C5A 6011  17.368   7.290   8.189  0.3331  0.2785 -0.0706
  376loPI   C6A 6012  17.386   7.524   7.786 -0.2364  0.1469 -0.0459
  376loPI   C1B 6013  17.690   6.749   9.642 -0.4331 -0.2210 -0.0986
  376loPI   C2B 6014  17.776   6.679   9.252 -0.1868 -0.0807  0.2052
  376loPI   C3B 6015  17.637   6.564   8.863  0.3433 -0.1217  0.0824
  376loPI   C4B 6016  17.498   6.315   8.661 -0.0993 -0.3094  0.0113
  377loPI    C1 6017   3.948  17.811  10.237 -0.0343 -0.0291 -0.0544
  377loPI    C2 6018   4.061  17.428  10.251  0.2974  0.0631 -0.1127
  377loPI    C3 6019   4.123  17.666  10.566  0.0009  0.0480 -0.0389
  377loPI   PO4 6020   4.019  17.989   9.980  0.1056  0.1603 -0.0093
  377loPI   GL1 6021   3.698  17.947   9.575  0.0712  0.1030 -0.1055
  377loPI   GL2 6022   4.098  17.941   9.484  0.0721 -0.0346  0.0779
  377loPI   C1A 6023   3.660  17.812   9.181 -0.0752  0.0018  0.1661
  377loPI   C2A 6024   3.723  17.860   8.751 -0.1048 -0.0839  0.0202
  377loPI   C3A 6025   3.881  18.112   8.450 -0.0760  0.0826 -0.2402
  377loPI   C4A 6026   3.852  18.280   8.113 -0.0563  0.2433 -0.2691
  377loPI   C5A 6027   3.823  18.679   7.821 -0.2022  0.1883  0.1349
  377loPI   C6A 6028   4.022  18.986   7.598  0.0794  0.3260  0.0367
  377loPI   C1B 6029   4.006  18.152   9.104  0.0063 -0.2690  0.2646
  377loPI   C2B 6030   4.141  18.442   8.778  0.1005  0.2072 -0.0314
  377loPI   C3B 6031   4.205  18.521   8.517  0.1171  0.1327  0.0517
  377loPI   C4B 6032   4.339  18.319   8.124 -0.0679 -0.1747  0.1098
  378loPI    C1 6033   5.789  18.116   9.906 -0.0244 -0.2629  0.0382
  378loPI    C2 6034   5.439  18.107  10.100 -0.0174  0.1979  0.0825
  378loPI    C3 6035   5.736  18.339  10.234  0.2668 -0.0972 -0.0244
  378loPI   PO4 6036   5.654  18.063   9.622 -0.1276 -0.2971  0.0884
  378loPI   GL1 6037   5.590  18.034   9.212 -0.0788 -0.0203 -0.2202
  378loPI   GL2 6038   5.540  18.435   9.315  0.2561 -0.0848 -0.2229
  378loPI   C1A 6039   6.008  18.050   8.994  0.0675  0.1983  0.3135
  378loPI   C2A 6040   6.026  18.318   8.559  0.2139 -0.0953  0.1070
  378loPI   C3A 6041   5.855  18.327   8.154  0.2034 -0.4448 -0.2618
  378loPI   C4A 6042   5.847  18.701   7.826 -0.1428 -0.1240  0.0126
  378loPI   C5A 6043   5.718  19.005   7.663  0.3914  0.0461  0.0105
  378loPI   C6A 6044   5.477  19.377   7.582  0.1597  0.0655 -0.1513
  378loPI   C1B 6045   5.716  18.435   8.967  0.3054  0.1727  0.0580
  378loPI   C2B 6046   5.574  18.285   8.603 -0.0714 -0.0645 -0.1628
  378loPI   C3B 6047   5.401  18.457   8.301  0.0739  0.2322 -0.0132
  378loPI   C4B 6048   5.337  18.491   7.831 -0.1969  0.1431  0.1692
  379loPI    C1 6049  10.661   2.885  10.430  0.3516  0.0046  0.0315
  379loPI    C2 6050  10.467   3.195  10.592  0.1499 -0.0991 -0.0083
  379loPI    C3 6051  10.355   2.821  10.680  0.3676 -0.1617  0.0096
  379loPI   PO4 6052  10.753   2.963  10.222  0.0959 -0.1396  0.0206
  379loPI   GL1 6053  10.883   3.113   9.909  0.1115 -0.5144  0.0038
  379loPI   GL2 6054  11.216   3.183   9.948  0.0549 -0.0018  0.0705
  379loPI   C1A 6055  11.066   2.944   9.586  0.4153  0.2662 -0.0839
  379loPI   C2A 6056  11.004   2.674   9.274 -0.1487  0.1338 -0.0052
  379loPI   C3A 6057  11.184   2.478   8.807  0.0207 -0.0728  0.1335
  379loPI   C4A 6058  11.285   2.350   8.373  0.1320  0.1669 -0.0843
  379loPI   C5A 6059  11.318   2.170   7.955  0.0755  0.1259  0.0141
  379loPI   C6A 6060  11.414   1.885   7.696  0.2339 -0.2953  0.2544
  379loPI   C1B 6061  11.281   3.290   9.368 -0.4317 -0.0501  0.1473
  379loPI   C2B 6062  11.518   3.339   8.977 -0.1215 -0.1472  0.0052
  379loPI   C3B 6063  11.320   3.254   8.557 -0.1117  0.2157  0.1591
  379loPI   C4B 6064  11.363   3.457   8.144 -0.3384  0.2597 -0.1241
  380loPI    C1 6065  13.081  13.279  10.465 -0.2498  0.0465 -0.0440
  380loPI    C2 6066  13.106  12.900  10.590 -0.1009  0.0687 -0.0042
  380loPI    C3 6067  12.947  13.178  10.829 -0.1687  0.0400 -0.0156
  380loPI   PO4 6068  13.307  13.255  10.299  0.3160 -0.2116 -0.1337
  380loPI   GL1 6069  13.429  13.143   9.936  0.1231  0.0108  0.2370
  380loPI   GL2 6070  13.659  13.067   9.726  0.1108 -0.0782 -0.1574
  380loPI   C1A 6071  13.033  13.027   9.651 -0.0167 -0.0515  0.0182
  380loPI   C2A 6072  12.754  12.828   9.359 -0.4230  0.1766  0.0882
  380loPI   C3A 6073  12.383  12.825   8.966 -0.2183  0.2271  0.0651
  380loPI   C4A 6074  12.067  12.737   8.564 -0.2797 -0.1307  0.2290
  380loPI   C5A 6075  11.814  12.540   8.162 -0.0157 -0.1368  0.0162
  380loPI   C6A 6076  11.967  12.486   7.816  0.0521  0.0375  0.3704
  380loPI   C1B 6077  13.821  12.928   9.420  0.2609 -0.1931  0.0518
  380loPI   C2B 6078  13.955  12.836   9.067 -0.0689 -0.1492 -0.1566
  380loPI   C3B 6079  13.750  12.654   8.639  0.1701 -0.2980  0.0136
  380loPI   C4B 6080  13.507  12.458   8.364  0.2382 -0.1746 -0.0569
  381loPI    C1 6081  15.164  18.316  10.238  0.0674 -0.1623 -0.0368
  381loPI    C2 6082  15.038  17.947  10.326 -0.1229 -0.1583 -0.2834
  381loPI    C3 6083  15.426  18.039  10.358 -0.1137 -0.2995  0.0469
  381loPI   PO4 6084  14.934  18.421  10.099  0.4346  0.1125  0.0741
  381loPI   GL1 6085  14.871  18.333   9.795 -0.1010  0.3605  0.0140
  381loPI   GL2 6086  14.951  18.002   9.771  0.1870  0.2450  0.0048
  381loPI   C1A 6087  14.770  18.249   9.376 -0.0666  0.3079  0.1027
  381loPI   C2A 6088  14.404  18.175   9.076  0.1121  0.0693  0.0108
  381loPI   C3A 6089  14.490  18.011   8.603 -0.0727  0.1348 -0.3644
  381loPI   C4A 6090  14.609  17.714   8.320 -0.0832 -0.0373  0.0439
  381loPI   C5A 6091  14.398  17.390   8.136  0.4123  0.0367 -0.0926
  381loPI   C6A 6092  14.234  17.410   7.916 -0.2355 -0.2416 -0.0988
  381loPI   C1B 6093  15.078  17.837   9.357  0.0583  0.1819 -0.3968
  381loPI   C2B 6094  14.874  17.829   8.987  0.1633  0.3393  0.2117
  381loPI   C3B 6095  15.042  17.663   8.645  0.0641 -0.2842  0.0023
  381loPI   C4B 6096  15.269  17.929   8.333 -0.4361 -0.3142 -0.2752
  382loPI    C1 6097   8.420  18.457  10.243  0.3149  0.1522  0.1036
  382loPI    C2 6098   8.567  18.554  10.603 -0.1351  0.0935  0.3099
  382loPI    C3 6099   8.305  18.253  10.567  0.2309 -0.1862 -0.1342
  382loPI   PO4 6100   8.328  18.673  10.071  0.0329 -0.1866 -0.1721
  382loPI   GL1 6101   8.443  18.728   9.696 -0.1186 -0.0065  0.2436
  382loPI   GL2 6102   8.733  18.516   9.859  0.1212  0.0803 -0.0131
  382loPI   C1A 6103   8.394  18.460   9.278  0.0793 -0.0666  0.1935
  382loPI   C2A 6104   8.481  18.355   8.808  0.1428 -0.2990 -0.2284
  382loPI   C3A 6105   8.643  18.541   8.461 -0.0400  0.1731 -0.0507
  382loPI   C4A 6106   8.732  18.749   8.032  0.1760  0.4373  0.0348
  382loPI   C5A 6107   8.678  19.047   7.614  0.1552  0.4467  0.0829
  382loPI   C6A 6108   8.392  19.152   7.252  0.2007  0.1654 -0.4166
  382loPI   C1B 6109   8.877  18.551   9.369 -0.1579 -0.2090 -0.1440
  382loPI   C2B 6110   8.957  18.473   8.988 -0.0741 -0.2373 -0.1830
  382loPI   C3B 6111   8.875  18.116   8.638 -0.0598  0.0635 -0.2159
  382loPI   C4B 6112   8.790  17.787   8.409 -0.0640  0.1354 -0.3158
  383loPI    C1 6113   9.289   9.204  10.497  0.1081 -0.0221  0.0338
  383loPI    C2 6114   9.234   9.550  10.690 -0.0234  0.1252 -0.2623
  383loPI    C3 6115   9.215   9.205  10.891 -0.2044  0.2721 -0.0208
  383loPI   PO4 6116   9.359   9.296  10.202 -0.3072  0.4132 -0.1402
  383loPI   GL1 6117   9.646   9.438   9.930  0.1004  0.0009  0.1748
  383loPI   GL2 6118   9.444   9.751   9.910 -0.2795  0.2809  0.0080
  383loPI   C1A 6119   9.456   9.396   9.395 -0.2292 -0.3342  0.0575
  383loPI   C2A 6120   9.474   9.546   8.902  0.0387 -0.3792  0.0515
  383loPI   C3A 6121   9.576   9.494   8.471  0.2042  0.0119 -0.0384
  383loPI   C4A 6122   9.399   9.630   8.024 -0.0024 -0.0847 -0.1010
  383loPI   C5A 6123   9.157   9.815   7.895  0.1249 -0.0209 -0.0111
  383loPI   C6A 6124   9.120  10.043   7.513 -0.2321 -0.0764 -0.0820
  383loPI   C1B 6125   9.257   9.885   9.395  0.0242 -0.0376 -0.1774
  383loPI   C2B 6126   9.312  10.015   9.001  0.0312 -0.0044  0.0824
  383loPI   C3B 6127   9.292   9.858   8.562 -0.1152 -0.1229 -0.2167
  383loPI   C4B 6128   9.117   9.398   8.374 -0.1789 -0.1480  0.3850
  384loPI    C1 6129   4.421  18.673  10.177  0.1240 -0.0862 -0.3003
  384loPI    C2 6130   4.700  18.920  10.320  0.2446 -0.2721 -0.2105
  384loPI    C3 6131   4.316  18.974  10.418  0.2790 -0.1650 -0.1323
  384loPI   PO4 6132   4.480  18.627   9.923  0.0522 -0.1700  0.2555
  384loPI   GL1 6133   4.547  18.514   9.518  0.1050  0.3010 -0.0231
  384loPI   GL2 6134   4.434  18.379   9.306  0.0505 -0.2399  0.0102
  384loPI   C1A 6135   4.639  18.835   9.224 -0.1224  0.1699  0.1641
  384loPI   C2A 6136   4.537  18.900   8.836  0.1151 -0.1184  0.0336
  384loPI   C3A 6137   4.671  18.971   8.481  0.4345  0.3945 -0.0720
  384loPI   C4A 6138   4.763  18.726   8.123  0.0582  0.1955  0.0589
  384loPI   C5A 6139   4.644  18.436   7.776 -0.3031  0.0326 -0.1204
  384loPI   C6A 6140   4.560  18.279   7.456  0.0913  0.0624 -0.0961
  384loPI   C1B 6141   4.636  18.425   8.945 -0.0575  0.0267  0.1010
  384loPI   C2B 6142   4.680  18.322   8.517  0.1475  0.1028 -0.0395
  384loPI   C3B 6143   4.854  18.171   8.153  0.1498 -0.0179  0.1100
  384loPI   C4B 6144   4.572  17.915   7.902  0.2134  0.0030 -0.3355
  385loPI    C1 6145   9.730  17.744  10.288  0.0845 -0.0887  0.1814
  385loPI    C2 6146   9.764  18.050  10.544 -0.0712 -0.1490  0.2755
  385loPI    C3 6147   9.953  17.706  10.618  0.3156  0.0055  0.0386
  385loPI   PO4 6148   9.583  17.775  10.101  0.0269  0.0461 -0.2140
  385loPI   GL1 6149   9.522  17.959   9.661 -0.1102  0.3321  0.1717
  385loPI   GL2 6150   9.591  17.635   9.501  0.3648  0.1950 -0.2273
  385loPI   C1A 6151   9.363  18.302   9.212  0.4214 -0.0541 -0.0516
  385loPI   C2A 6152   9.408  18.260   8.636 -0.0284 -0.0171  0.1017
  385loPI   C3A 6153   9.046  18.262   8.181 -0.0482  0.0302  0.0900
  385loPI   C4A 6154   8.929  18.285   7.793 -0.1993 -0.0729 -0.1702
  385loPI   C5A 6155   8.708  18.079   7.406  0.0778  0.2469 -0.3586
  385loPI   C6A 6156   8.357  18.104   7.240  0.0200  0.1488 -0.1648
  385loPI   C1B 6157   9.750  17.427   9.148  0.0369  0.1496  0.3152
  385loPI   C2B 6158   9.762  17.398   8.754  0.1506  0.2066  0.0543
  385loPI   C3B 6159   9.754  17.488   8.264  0.0246  0.0765  0.0262
  385loPI   C4B 6160   9.606  17.416   7.870  0.0499  0.4761 -0.3434
  386loPI    C1 6161   0.350   1.643  10.525 -0.0890  0.0261  0.0310
  386loPI    C2 6162   0.242   1.418  10.213  0.3232  0.0549 -0.1388
  386loPI    C3 6163   0.263   1.256  10.578  0.1366 -0.0553 -0.1753
  386loPI   PO4 6164   0.641   1.727  10.481  0.0530  0.0108 -0.1552
  386loPI   GL1 6165   0.924   1.797  10.055 -0.1534 -0.0408  0.1833
  386loPI   GL2 6166   0.669   1.480  10.012 -0.0648  0.2095  0.1310
  386loPI   C1A 6167   1.282   2.112   9.777 -0.1348 -0.0989  0.3279
  386loPI   C2A 6168   1.177   2.221   9.299 -0.2561 -0.0279 -0.1277
  386loPI   C3A 6169   0.765   2.382   9.097  0.1608  0.2280  0.2771
  386loPI   C4A 6170   0.603   2.453   8.616 -0.0521  0.2073 -0.1456
  386loPI   C5A 6171   0.345   2.376   8.269  0.1875 -0.0333 -0.2701
  386loPI   C6A 6172  -0.087   2.278   8.111  0.2264 -0.2274  0.0453
  386loPI   C1B 6173   0.876   1.397   9.641  0.2565 -0.3546  0.1006
  386loPI   C2B 6174   0.985   1.184   9.270  0.0322 -0.1516 -0.0517
  386loPI   C3B 6175   0.876   1.225   8.821 -0.2578  0.0288 -0.0541
  386loPI   C4B 6176   0.730   1.267   8.329  0.3606 -0.0221 -0.1357
  387loPI    C1 6177   0.252  13.875  10.628  0.1669  0.1282  0.0227
  387loPI    C2 6178   0.567  13.951  10.863  0.0586 -0.0870  0.2423
  387loPI    C3 6179   0.212  13.866  11.026 -0.1481  0.2798 -0.0029
  387loPI   PO4 6180   0.404  14.036  10.431  0.1955 -0.0810 -0.0773
  387loPI   GL1 6181   0.293  14.027   9.979  0.1325 -0.0061 -0.0441
  387loPI   GL2 6182   0.263  13.725   9.799  0.0235 -0.1423 -0.2096
  387loPI   C1A 6183   0.294  14.224   9.619  0.0953  0.1468  0.2681
  387loPI   C2A 6184   0.078  14.260   9.166 -0.1315 -0.0742 -0.0383
  387loPI   C3A 6185   0.175  14.224   8.670 -0.1592  0.4228 -0.0481
  387loPI   C4A 6186   0.201  14.362   8.275  0.1247  0.1658 -0.3417
  387loPI   C5A 6187   0.338  14.349   7.812 -0.0645 -0.0434  0.1281
  387loPI   C6A 6188   0.112  14.449   7.387  0.0535  0.1404  0.0231
  387loPI   C1B 6189   0.098  13.709   9.438 -0.1716 -0.2121 -0.1893
  387loPI   C2B 6190   0.021  13.770   8.950  0.0733  0.1451 -0.2778
  387loPI   C3B 6191  -0.001  13.596   8.641 -0.0408  0.3783 -0.1118
  387loPI   C4B 6192   0.075  13.508   8.232  0.1543  0.1599 -0.0132
  388loPI    C1 6193  12.027   7.178  10.801  0.0073  0.1231  0.1648
  388loPI    C2 6194  11.755   7.020  11.048 -0.0595  0.0733  0.0598
  388loPI    C3 6195  11.863   7.403  11.089 -0.3467  0.1707 -0.0684
  388loPI   PO4 6196  11.978   7.114  10.578  0.2196  0.2803 -0.2064
  388loPI   GL1 6197  12.207   7.280  10.211 -0.1120  0.1451  0.0844
  388loPI   GL2 6198  12.023   7.503  10.292 -0.1585 -0.0250 -0.1019
  388loPI   C1A 6199  12.268   7.303   9.745 -0.0929 -0.1031  0.3923
  388loPI   C2A 6200  12.392   7.305   9.277 -0.2142 -0.2506  0.0483
  388loPI   C3A 6201  12.333   7.293   8.873 -0.3118  0.2465  0.0266
  388loPI   C4A 6202  12.579   7.218   8.456  0.1903  0.4055  0.1231
  388loPI   C5A 6203  12.594   6.920   8.096 -0.3097 -0.0111  0.2501
  388loPI   C6A 6204  12.391   6.752   7.693 -0.2945 -0.1069  0.1641
  388loPI   C1B 6205  12.125   7.776   9.993 -0.2750 -0.1182  0.0076
  388loPI   C2B 6206  11.963   7.671   9.555  0.2208  0.0393 -0.0253
  388loPI   C3B 6207  11.991   7.613   9.155  0.0134  0.1092 -0.1878
  388loPI   C4B 6208  11.661   7.635   8.784 -0.1574 -0.2093 -0.0033
  389loPI    C1 6209  15.357   5.422  10.662 -0.0040 -0.0665  0.0932
  389loPI    C2 6210  15.559   5.412  11.007  0.2006 -0.3017 -0.0308
  389loPI    C3 6211  15.546   5.749  10.793  0.2496 -0.2142  0.1028
  389loPI   PO4 6212  15.486   5.182  10.488  0.1623 -0.1077  0.1242
  389loPI   GL1 6213  15.685   5.054  10.144 -0.1153  0.0785  0.0162
  389loPI   GL2 6214  15.873   4.930   9.919  0.2059 -0.0759  0.2199
  389loPI   C1A 6215  15.596   5.258   9.738 -0.0276 -0.2490 -0.0395
  389loPI   C2A 6216  15.709   5.279   9.293  0.0979 -0.1842 -0.1212
  389loPI   C3A 6217  15.688   5.269   8.866  0.1619 -0.1802 -0.1644
  389loPI   C4A 6218  16.023   5.264   8.556  0.3998 -0.0812  0.0045
  389loPI   C5A 6219  16.297   5.033   8.169 -0.0569 -0.1535  0.0427
  389loPI   C6A 6220  16.467   4.733   8.318  0.1765 -0.2811 -0.3651
  389loPI   C1B 6221  16.002   4.879   9.489  0.1249 -0.1726 -0.1501
  389loPI   C2B 6222  15.931   4.883   9.043 -0.0848  0.2372  0.0566
  389loPI   C3B 6223  15.982   4.746   8.583 -0.2704  0.0096  0.2185
  389loPI   C4B 6224  15.782   4.525   8.229 -0.5731  0.0350  0.2262
  390loPI    C1 6225   3.529  15.784  10.507 -0.0664 -0.0384  0.0465
  390loPI    C2 6226   3.833  15.894  10.743 -0.0825  0.0888  0.0086
  390loPI    C3 6227   3.615  15.571  10.834 -0.0527  0.1044  0.1366
  390loPI   PO4 6228   3.625  15.664  10.291  0.1346  0.1600  0.0067
  390loPI   GL1 6229   3.654  15.746   9.766  0.1996 -0.2253  0.2115
  390loPI   GL2 6230   3.444  16.035   9.568  0.1455 -0.1772 -0.2100
  390loPI   C1A 6231   4.034  15.915   9.514  0.0174  0.0270  0.0705
  390loPI   C2A 6232   4.025  16.032   9.044 -0.0640 -0.2217  0.2096
  390loPI   C3A 6233   3.723  15.911   8.762  0.2511  0.0825  0.1924
  390loPI   C4A 6234   3.454  15.726   8.394 -0.1603 -0.0035 -0.0298
  390loPI   C5A 6235   3.208  15.533   8.087 -0.0823 -0.0057  0.1351
  390loPI   C6A 6236   3.223  15.179   7.931 -0.3773 -0.0393  0.1055
  390loPI   C1B 6237   3.482  15.702   9.200 -0.0055 -0.0137 -0.1005
  390loPI   C2B 6238   3.547  15.373   8.901 -0.3023  0.3038  0.1556
  390loPI   C3B 6239   3.414  15.050   8.596 -0.2995  0.0509  0.2459
  390loPI   C4B 6240   3.605  14.931   8.220  0.0193 -0.0589  0.0937
  391loPI    C1 6241   8.052  12.654  10.236 -0.2652 -0.0484  0.0706
  391loPI    C2 6242   8.330  12.783  10.494  0.0714  0.0506 -0.3295
  391loPI    C3 6243   8.215  12.399  10.498  0.5830 -0.1122 -0.4797
  391loPI   PO4 6244   8.119  12.869   9.988 -0.2346 -0.0428 -0.0106
  391loPI   GL1 6245   8.241  12.904   9.601  0.3188  0.1814  0.0302
  391loPI   GL2 6246   8.298  13.180   9.624  0.1099  0.1056  0.1420
  391loPI   C1A 6247   8.177  12.686   9.228  0.1020 -0.0784  0.1264
  391loPI   C2A 6248   8.215  12.568   8.828 -0.0410  0.2311 -0.0699
  391loPI   C3A 6249   8.286  12.508   8.435  0.1749  0.2709 -0.0103
  391loPI   C4A 6250   8.276  12.368   8.026 -0.2094 -0.0338  0.1245
  391loPI   C5A 6251   8.563  12.569   7.718  0.0671  0.2182  0.0914
  391loPI   C6A 6252   8.796  12.765   7.347 -0.1003 -0.3039  0.0770
  391loPI   C1B 6253   8.298  13.187   9.209 -0.0903  0.2893  0.1680
  391loPI   C2B 6254   8.369  13.088   8.812 -0.0854 -0.2303  0.0591
  391loPI   C3B 6255   8.454  12.937   8.509  0.1529 -0.0412 -0.1867
  391loPI   C4B 6256   8.360  12.865   8.067 -0.2860  0.1665 -0.2468
  392loPI    C1 6257   3.051  17.988  10.208  0.0096 -0.0079  0.2243
  392loPI    C2 6258   3.188  18.291  10.430  0.1354 -0.0741  0.2375
  392loPI    C3 6259   2.948  18.016  10.593  0.0106  0.0253  0.2222
  392loPI   PO4 6260   3.077  18.016   9.978  0.1350  0.0994  0.0819
  392loPI   GL1 6261   3.214  18.195   9.639 -0.2957 -0.0473 -0.1525
  392loPI   GL2 6262   3.513  18.460   9.538 -0.0772 -0.3209 -0.0090
  392loPI   C1A 6263   3.158  18.147   9.229 -0.0062 -0.0543 -0.0730
  392loPI   C2A 6264   3.395  18.145   8.849  0.0820  0.2612 -0.2716
  392loPI   C3A 6265   3.372  18.095   8.303  0.1379  0.2084 -0.1008
  392loPI   C4A 6266   3.462  18.324   7.861 -0.0527  0.1027 -0.3006
  392loPI   C5A 6267   3.489  18.073   7.415 -0.0634 -0.1744  0.0938
  392loPI   C6A 6268   3.269  17.847   7.182  0.0212  0.0328 -0.0315
  392loPI   C1B 6269   3.631  18.548   9.086 -0.2183  0.0462 -0.2714
  392loPI   C2B 6270   3.651  18.600   8.618  0.2320 -0.0503 -0.0452
  392loPI   C3B 6271   3.841  18.798   8.322 -0.5810  0.2906  0.0525
  392loPI   C4B 6272   4.216  18.942   8.199  0.4503 -0.0277 -0.1061
  393loPI    C1 6273   0.274   4.302  10.618  0.1407 -0.0606 -0.0870
  393loPI    C2 6274   0.152   3.966  10.798  0.1545 -0.1661 -0.2726
  393loPI    C3 6275  -0.036   4.311  10.871  0.1408 -0.2131 -0.0804
  393loPI   PO4 6276   0.247   4.301  10.359  0.3716  0.1353 -0.1313
  393loPI   GL1 6277   0.202   4.038   9.892 -0.1767 -0.1943 -0.2971
  393loPI   GL2 6278  -0.054   3.890   9.870 -0.2542  0.1899 -0.1399
  393loPI   C1A 6279   0.211   4.224   9.404 -0.3237 -0.2020  0.0736
  393loPI   C2A 6280  -0.058   4.557   9.250 -0.2277 -0.1528 -0.1460
  393loPI   C3A 6281  -0.292   4.914   9.105  0.1520 -0.2454 -0.0771
  393loPI   C4A 6282  -0.474   4.915   8.680  0.0383  0.1691 -0.1724
  393loPI   C5A 6283  -0.812   4.842   8.271 -0.0332  0.2515 -0.0681
  393loPI   C6A 6284  -1.283   4.782   8.255 -0.4272  0.0705 -0.1748
  393loPI   C1B 6285   0.026   3.727   9.469 -0.0750  0.0106 -0.2246
  393loPI   C2B 6286  -0.055   3.701   9.044 -0.2490 -0.1817 -0.2660
  393loPI   C3B 6287  -0.020   3.602   8.625 -0.1209  0.2100 -0.2641
  393loPI   C4B 6288   0.097   3.230   8.364 -0.1517 -0.2466  0.1035
  394loPI    C1 6289   5.182   2.586  10.186 -0.1409 -0.0194 -0.0477
  394loPI    C2 6290   5.433   2.338  10.373  0.0993  0.0319 -0.2966
  394loPI    C3 6291   5.367   2.704  10.520 -0.0389 -0.0766 -0.0838
  394loPI   PO4 6292   5.220   2.465   9.875 -0.0575  0.1286 -0.1220
  394loPI   GL1 6293   5.199   2.299   9.566  0.0579 -0.3408 -0.1058
  394loPI   GL2 6294   4.875   2.172   9.572 -0.0614 -0.4181  0.0333
  394loPI   C1A 6295   5.326   2.250   9.220 -0.1996 -0.0675 -0.1763
  394loPI   C2A 6296   5.199   2.084   8.890 -0.1162  0.1825 -0.1404
  394loPI   C3A 6297   5.325   1.791   8.537  0.0855 -0.2529  0.0778
  394loPI   C4A 6298   5.382   1.676   8.129 -0.0997  0.0933 -0.0055
  394loPI   C5A 6299   5.374   1.612   7.684 -0.0281  0.0894  0.2350
  394loPI   C6A 6300   5.161   1.621   7.326 -0.2839  0.2308  0.3392
  394loPI   C1B 6301   4.945   1.859   9.305 -0.0870 -0.1556  0.0654
  394loPI   C2B 6302   4.868   1.649   8.828  0.2845  0.0154  0.1496
  394loPI   C3B 6303   4.821   1.775   8.345 -0.3893 -0.3993  0.0251
  394loPI   C4B 6304   4.454   1.966   8.242  0.0485 -0.1373  0.0762
  395loPI    C1 6305  10.618   4.841  10.335 -0.2601  0.0082  0.1984
  395loPI    C2 6306  10.452   4.486  10.417 -0.1527 -0.0498  0.1664
  395loPI    C3 6307  10.429   4.783  10.683 -0.0850 -0.1376  0.2709
  395loPI   PO4 6308  10.646   4.846  10.063 -0.1053  0.0179  0.2494
  395loPI   GL1 6309  10.767   5.028   9.708  0.1862 -0.1585  0.1874
  395loPI   GL2 6310  10.457   4.933   9.605 -0.1078 -0.1860  0.2936
  395loPI   C1A 6311  10.621   5.401   9.491  0.2711 -0.1794  0.1380
  395loPI   C2A 6312  10.386   5.509   9.115  0.2946 -0.4301  0.0409
  395loPI   C3A 6313  10.021   5.743   9.009 -0.1598  0.1673  0.0655
  395loPI   C4A 6314   9.938   6.120   8.772  0.0960 -0.3095  0.2037
  395loPI   C5A 6315   9.678   6.421   8.424  0.1694 -0.1481 -0.2256
  395loPI   C6A 6316   9.792   6.377   7.964 -0.1425  0.2795  0.4557
  395loPI   C1B 6317  10.500   4.985   9.206 -0.2840  0.0440  0.1281
  395loPI   C2B 6318  10.369   4.994   8.759 -0.0448 -0.1221  0.0149
  395loPI   C3B 6319  10.364   4.844   8.381 -0.1703  0.2011 -0.1446
  395loPI   C4B 6320  10.493   4.901   7.880  0.3483  0.0137  0.2543
  396loPI    C1 6321   4.671   9.668  10.802  0.1817  0.1314 -0.0914
  396loPI    C2 6322   4.927   9.363  10.840 -0.0993 -0.0951  0.0109
  396loPI    C3 6323   4.809   9.567  11.163  0.1415  0.1702 -0.0651
  396loPI   PO4 6324   4.678   9.744  10.471  0.3300  0.0196 -0.0665
  396loPI   GL1 6325   4.883   9.903  10.048 -0.3360  0.0138 -0.1361
  396loPI   GL2 6326   4.799   9.498   9.913  0.0791 -0.0317  0.0361
  396loPI   C1A 6327   5.063  10.247   9.708 -0.0493  0.1534  0.1546
  396loPI   C2A 6328   5.121  10.290   9.242  0.0596 -0.0546  0.0601
  396loPI   C3A 6329   5.191  10.370   8.860 -0.0167 -0.0728  0.2385
  396loPI   C4A 6330   5.566  10.234   8.712 -0.0644 -0.0940 -0.1873
  396loPI   C5A 6331   5.786  10.261   8.322 -0.1733  0.1331 -0.2106
  396loPI   C6A 6332   5.751  10.065   7.907  0.1824 -0.0273  0.1701
  396loPI   C1B 6333   4.780   9.364   9.516 -0.1897 -0.3152  0.1111
  396loPI   C2B 6334   4.740   9.462   9.071 -0.1002  0.0437 -0.1206
  396loPI   C3B 6335   4.717   9.483   8.700 -0.3843 -0.0902 -0.0945
  396loPI   C4B 6336   4.800   9.546   8.237 -0.1477  0.0885  0.5274
  397loPI    C1 6337   0.727  10.285  10.152 -0.1228  0.0925  0.1006
  397loPI    C2 6338   1.038  10.106  10.328  0.0850  0.3697  0.0228
  397loPI    C3 6339   0.909  10.460  10.462 -0.2543  0.2176  0.1084
  397loPI   PO4 6340   0.836  10.239   9.863  0.2188 -0.0775  0.1945
  397loPI   GL1 6341   0.791  10.389   9.428 -0.2416  0.2075 -0.0681
  397loPI   GL2 6342   0.776   9.940   9.462 -0.0787 -0.1157  0.3512
  397loPI   C1A 6343   0.793  10.171   8.992 -0.1851  0.0019 -0.0025
  397loPI   C2A 6344   0.945  10.178   8.564 -0.0427 -0.1071  0.3636
  397loPI   C3A 6345   1.266  10.267   8.198 -0.0400 -0.0380  0.0324
  397loPI   C4A 6346   1.579   9.867   8.136  0.5620  0.4139 -0.0969
  397loPI   C5A 6347   1.880   9.682   8.027 -0.3352  0.1653  0.0577
  397loPI   C6A 6348   2.309   9.697   8.063 -0.0789 -0.1443 -0.0364
  397loPI   C1B 6349   1.062   9.826   9.260 -0.0738 -0.0768  0.2196
  397loPI   C2B 6350   1.293   9.961   8.856  0.3019 -0.2173 -0.4419
  397loPI   C3B 6351   1.506  10.177   8.597  0.0393 -0.1046  0.3647
  397loPI   C4B 6352   1.711  10.413   8.284  0.1279  0.0571  0.1095
  398loPI    C1 6353   6.496  16.694   9.876 -0.0630  0.3316 -0.0497
  398loPI    C2 6354   6.512  16.768  10.269  0.1328  0.0877 -0.0088
  398loPI    C3 6355   6.829  16.845  10.037  0.0266  0.2073 -0.1161
  398loPI   PO4 6356   6.455  16.465   9.824 -0.2199  0.1115  0.0216
  398loPI   GL1 6357   6.734  16.287   9.458 -0.1374  0.0613 -0.1468
  398loPI   GL2 6358   6.445  16.132   9.379 -0.0196 -0.2171  0.1987
  398loPI   C1A 6359   6.895  16.387   9.092  0.1418 -0.1654 -0.1091
  398loPI   C2A 6360   6.840  16.621   8.721  0.0405 -0.2423 -0.2544
  398loPI   C3A 6361   6.895  16.616   8.255 -0.0417 -0.1164 -0.3586
  398loPI   C4A 6362   6.820  16.815   7.870  0.2656  0.0279  0.0294
  398loPI   C5A 6363   6.492  16.709   7.443 -0.1190  0.1614 -0.0462
  398loPI   C6A 6364   6.258  16.634   7.014  0.0129 -0.4337 -0.2792
  398loPI   C1B 6365   6.342  15.858   9.098 -0.1185 -0.0397 -0.0934
  398loPI   C2B 6366   6.568  15.545   8.809  0.1826  0.1301  0.2764
  398loPI   C3B 6367   6.759  15.259   8.541 -0.3397  0.1307  0.0929
  398loPI   C4B 6368   6.588  14.969   8.257 -0.1361 -0.0901  0.0636
  399loPI    C1 6369  16.742  17.501  10.460 -0.1954  0.0874 -0.0618
  399loPI    C2 6370  16.790  17.250  10.768  0.0052  0.1113 -0.0721
  399loPI    C3 6371  16.460  17.474  10.741 -0.1054 -0.0394  0.0176
  399loPI   PO4 6372  16.839  17.463  10.302  0.0610  0.0195 -0.1110
  399loPI   GL1 6373  16.819  17.186   9.929  0.0540 -0.0270  0.1314
  399loPI   GL2 6374  17.118  17.289   9.937  0.1146  0.1907 -0.1874
  399loPI   C1A 6375  16.723  17.211   9.453  0.1345  0.1415  0.0903
  399loPI   C2A 6376  16.603  17.215   9.071 -0.0603  0.2429 -0.3524
  399loPI   C3A 6377  16.571  17.320   8.735  0.2657 -0.3033 -0.1534
  399loPI   C4A 6378  16.480  17.448   8.230  0.2040  0.2635  0.1696
  399loPI   C5A 6379  16.731  17.468   7.964  0.1047 -0.1240 -0.1004
  399loPI   C6A 6380  16.922  17.491   7.595 -0.2442  0.0166 -0.1966
  399loPI   C1B 6381  17.235  17.374   9.502  0.0192  0.3292  0.0408
  399loPI   C2B 6382  17.105  17.510   8.999 -0.3371  0.2480  0.0010
  399loPI   C3B 6383  17.013  17.659   8.564  0.0487  0.0768 -0.0724
  399loPI   C4B 6384  17.113  17.756   8.184  0.0963  0.1436 -0.2635
  400loPI    C1 6385   4.220   1.701  10.038  0.1552  0.0918 -0.1745
  400loPI    C2 6386   4.473   1.432  10.193  0.0583  0.1908  0.1638
  400loPI    C3 6387   4.078   1.372  10.217  0.0428  0.1277 -0.1970
  400loPI   PO4 6388   4.237   2.044  10.081  0.0811  0.0890 -0.1941
  400loPI   GL1 6389   4.316   2.312   9.754 -0.0743  0.1099 -0.0015
  400loPI   GL2 6390   4.109   2.562   9.630  0.3438 -0.0954 -0.2523
  400loPI   C1A 6391   4.401   2.443   9.258  0.1715 -0.2723  0.0364
  400loPI   C2A 6392   4.479   2.502   8.907  0.2003 -0.2896  0.2391
  400loPI   C3A 6393   4.709   2.140   8.765 -0.1482 -0.1041  0.1190
  400loPI   C4A 6394   4.981   2.231   8.406  0.2766 -0.0329 -0.4185
  400loPI   C5A 6395   4.875   2.151   7.990  0.0023 -0.0224  0.1123
  400loPI   C6A 6396   4.930   1.672   7.902  0.1296 -0.1460 -0.0769
  400loPI   C1B 6397   3.921   2.300   9.325  0.0686  0.1075  0.0630
  400loPI   C2B 6398   4.056   2.312   8.815  0.2974  0.0736  0.2552
  400loPI   C3B 6399   4.229   2.301   8.497 -0.0990 -0.1309  0.2225
  400loPI   C4B 6400   4.598   2.526   8.365  0.2494  0.2679  0.0594
  401loPI    C1 6401   1.715   4.806  10.688 -0.1682 -0.2239 -0.0939
  401loPI    C2 6402   1.420   4.591  10.852 -0.1442 -0.0457  0.1884
  401loPI    C3 6403   1.417   4.990  10.880  0.0492 -0.0344  0.0668
  401loPI   PO4 6404   1.738   4.682  10.444  0.1214  0.2200  0.0293
  401loPI   GL1 6405   1.641   4.679   9.987 -0.0637 -0.1797  0.0535
  401loPI   GL2 6406   1.488   4.925   9.929  0.3617  0.0234 -0.0867
  401loPI   C1A 6407   1.774   4.485   9.611  0.0567  0.2159  0.0757
  401loPI   C2A 6408   1.798   4.565   9.232 -0.1546 -0.3142 -0.3223
  401loPI   C3A 6409   1.478   4.676   8.891  0.2701 -0.1276 -0.6156
  401loPI   C4A 6410   1.474   4.612   8.377  0.0491  0.3158 -0.3556
  401loPI   C5A 6411   1.532   4.247   8.149 -0.1993  0.0624 -0.0471
  401loPI   C6A 6412   1.388   3.956   7.849  0.0862  0.1062 -0.1085
  401loPI   C1B 6413   1.526   5.345   9.768 -0.2332  0.0511  0.1165
  401loPI   C2B 6414   1.427   5.486   9.495  0.0672 -0.0118  0.3012
  401loPI   C3B 6415   1.337   5.521   9.073 -0.0677 -0.2463 -0.2949
  401loPI   C4B 6416   1.365   5.543   8.607  0.0940  0.3640  0.0056
  402loPI    C1 6417  10.895   9.424  10.293 -0.0054  0.3720  0.2229
  402loPI    C2 6418  11.040   9.132  10.525 -0.0711  0.1736  0.0172
  402loPI    C3 6419  11.288   9.350  10.300 -0.0092  0.3546  0.2571
  402loPI   PO4 6420  10.650   9.253  10.242  0.1148  0.1623 -0.1469
  402loPI   GL1 6421  10.347   9.282   9.891  0.1036 -0.1055  0.1984
  402loPI   GL2 6422  10.063   9.139   9.889 -0.0808  0.0555  0.1500
  402loPI   C1A 6423  10.561   9.416   9.525  0.0581  0.2024  0.1665
  402loPI   C2A 6424  10.796   9.273   9.129 -0.1871  0.0242  0.0280
  402loPI   C3A 6425  10.993   9.131   8.787  0.0293 -0.4301 -0.0337
  402loPI   C4A 6426  10.885   9.116   8.350  0.0799  0.0008 -0.1002
  402loPI   C5A 6427  10.992   8.709   8.191 -0.1669  0.0510  0.2902
  402loPI   C6A 6428  10.762   8.536   7.893 -0.0880  0.0421 -0.2973
  402loPI   C1B 6429   9.952   9.383   9.577 -0.2912 -0.0342  0.1304
  402loPI   C2B 6430   9.999   9.382   9.125  0.0618 -0.2836  0.3495
  402loPI   C3B 6431  10.066   9.556   8.675  0.1532  0.3365 -0.2177
  402loPI   C4B 6432  10.275   9.763   8.300 -0.0912  0.2707  0.0158
  403loPI    C1 6433   5.121   8.371  10.269 -0.0719 -0.0715 -0.1887
  403loPI    C2 6434   5.238   8.112  10.551  0.2485  0.0888 -0.1697
  403loPI    C3 6435   4.954   8.381  10.632 -0.1525 -0.3090 -0.2177
  403loPI   PO4 6436   5.037   8.231  10.039 -0.0563 -0.0364 -0.0401
  403loPI   GL1 6437   5.249   8.380   9.607  0.1121 -0.0262 -0.1213
  403loPI   GL2 6438   5.484   8.667   9.656  0.1372 -0.0422 -0.1383
  403loPI   C1A 6439   5.319   8.564   9.191 -0.0863 -0.4288 -0.0203
  403loPI   C2A 6440   5.359   8.523   8.726  0.1511  0.0558 -0.1573
  403loPI   C3A 6441   5.417   8.617   8.325  0.2406  0.5171  0.3337
  403loPI   C4A 6442   5.265   8.952   8.094 -0.2125 -0.1127  0.0063
  403loPI   C5A 6443   4.974   9.217   7.882  0.1897 -0.1135 -0.1162
  403loPI   C6A 6444   4.633   9.271   7.687 -0.0337  0.1407 -0.2101
  403loPI   C1B 6445   5.830   8.559   9.256  0.2144 -0.1094  0.0696
  403loPI   C2B 6446   5.890   8.644   8.773 -0.0568  0.1158  0.3593
  403loPI   C3B 6447   5.924   8.562   8.289 -0.3735  0.0146  0.1417
  403loPI   C4B 6448   5.630   8.368   7.930  0.0672 -0.0380 -0.2460
  404loPI    C1 6449   6.707  15.383  10.313 -0.0632  0.0889 -0.1076
  404loPI    C2 6450   6.703  15.365  10.712  0.0168 -0.1088 -0.1145
  404loPI    C3 6451   6.555  15.686  10.525 -0.0807 -0.0437  0.0717
  404loPI   PO4 6452   6.664  15.147  10.203  0.0328  0.3043 -0.0709
  404loPI   GL1 6453   6.847  14.909   9.832 -0.1018  0.1004  0.0486
  404loPI   GL2 6454   7.123  15.081   9.622 -0.1767 -0.0087  0.1827
  404loPI   C1A 6455   6.680  14.938   9.463  0.0242 -0.4673 -0.0756
  404loPI   C2A 6456   6.732  14.886   8.995 -0.1656 -0.4370  0.0444
  404loPI   C3A 6457   6.875  14.773   8.629 -0.2849  0.1039  0.1326
  404loPI   C4A 6458   7.049  14.638   8.190 -0.2528  0.2085  0.2260
  404loPI   C5A 6459   7.375  14.788   7.812 -0.4625  0.0538 -0.1207
  404loPI   C6A 6460   7.712  15.152   7.834  0.2407  0.2296 -0.2094
  404loPI   C1B 6461   7.223  14.795   9.355  0.1184 -0.0673 -0.2797
  404loPI   C2B 6462   7.237  14.669   8.931  0.3630  0.0293  0.2242
  404loPI   C3B 6463   7.494  14.740   8.579 -0.0168  0.2007  0.1443
  404loPI   C4B 6464   7.653  14.689   8.227 -0.2867 -0.4834 -0.3358
  405loPI    C1 6465  14.172   9.627  10.359 -0.0614 -0.2744  0.4374
  405loPI    C2 6466  13.801   9.542  10.234  0.0470 -0.0953 -0.0275
  405loPI    C3 6467  13.865   9.644  10.615 -0.3611 -0.2431  0.0860
  405loPI   PO4 6468  14.272   9.694  10.105 -0.0429  0.0268 -0.1572
  405loPI   GL1 6469  14.068   9.709   9.810  0.1334  0.0604 -0.0927
  405loPI   GL2 6470  14.140   9.948   9.708 -0.2242 -0.2676  0.3222
  405loPI   C1A 6471  13.749   9.499   9.729 -0.3665 -0.1750  0.1440
  405loPI   C2A 6472  13.730   9.430   9.284  0.3635 -0.0156  0.1573
  405loPI   C3A 6473  13.756   9.549   8.906  0.2217 -0.0866 -0.1612
  405loPI   C4A 6474  13.949   9.518   8.580  0.0016 -0.4671 -0.0477
  405loPI   C5A 6475  13.971   9.326   8.215 -0.0648  0.0055 -0.0562
  405loPI   C6A 6476  13.916   9.134   7.920 -0.2656  0.1853  0.0002
  405loPI   C1B 6477  14.115   9.776   9.296 -0.0927 -0.2102  0.0317
  405loPI   C2B 6478  14.294   9.843   8.840 -0.2996 -0.2940 -0.0480
  405loPI   C3B 6479  14.417   9.631   8.455  0.0016 -0.0120  0.0087
  405loPI   C4B 6480  14.371   9.482   8.009 -0.0517 -0.2438  0.3104
  406loPI    C1 6481   7.405  11.366  10.623 -0.0419  0.1462 -0.1933
  406loPI    C2 6482   7.040  11.525  10.664 -0.1580 -0.1573 -0.0155
  406loPI    C3 6483   7.354  11.697  10.842 -0.2403  0.0121 -0.0322
  406loPI   PO4 6484   7.436  11.270  10.390  0.0247 -0.1587 -0.0817
  406loPI   GL1 6485   7.285  11.243   9.960 -0.0153 -0.0182 -0.1379
  406loPI   GL2 6486   6.984  11.053   9.951 -0.1257  0.0690  0.0809
  406loPI   C1A 6487   7.146  11.287   9.491  0.1186  0.0015 -0.1990
  406loPI   C2A 6488   7.282  11.424   9.173  0.1233 -0.2830  0.0631
  406loPI   C3A 6489   7.384  11.369   8.732 -0.1604  0.1931  0.0842
  406loPI   C4A 6490   7.669  11.234   8.463  0.0337  0.1191  0.0407
  406loPI   C5A 6491   7.940  11.105   8.055  0.1028 -0.3386  0.0317
  406loPI   C6A 6492   8.008  10.966   7.672  0.1507 -0.1944  0.0764
  406loPI   C1B 6493   6.903  10.671   9.702  0.0928  0.1275 -0.0180
  406loPI   C2B 6494   6.920  10.556   9.346 -0.0171 -0.2962 -0.2740
  406loPI   C3B 6495   7.352  10.562   9.093  0.0265  0.1762  0.1252
  406loPI   C4B 6496   7.570  10.907   9.036  0.1571  0.1064  0.1334
  407loPI    C1 6497  15.850   9.174  10.470  0.1804  0.1012  0.0411
  407loPI    C2 6498  16.144   8.932  10.591  0.1695  0.1377  0.1417
  407loPI    C3 6499  15.787   8.916  10.769  0.0839  0.0340 -0.0366
  407loPI   PO4 6500  15.809   9.121  10.221 -0.0262 -0.4088  0.1535
  407loPI   GL1 6501  15.892   9.467   9.945  0.1431  0.2829  0.0603
  407loPI   GL2 6502  16.134   9.612  10.114  0.1189  0.0477  0.1341
  407loPI   C1A 6503  15.881   9.838   9.722  0.0759 -0.0098  0.1475
  407loPI   C2A 6504  16.046  10.192   9.458 -0.1430  0.1155  0.1850
  407loPI   C3A 6505  16.231  10.307   8.982 -0.7074  0.2160  0.0869
  407loPI   C4A 6506  16.158  10.255   8.525 -0.2520 -0.2025 -0.0754
  407loPI   C5A 6507  15.887  10.192   8.136  0.1525 -0.3094 -0.1073
  407loPI   C6A 6508  15.896   9.835   7.814 -0.4330 -0.0277 -0.2673
  407loPI   C1B 6509  16.340   9.796   9.866 -0.1400 -0.1019 -0.0218
  407loPI   C2B 6510  16.490   9.982   9.433  0.2081  0.1333  0.4265
  407loPI   C3B 6511  16.642   9.832   9.121 -0.3280 -0.0836 -0.0383
  407loPI   C4B 6512  16.985   9.652   8.892  0.1466  0.0587  0.3468
  408loPI    C1 6513   1.966   0.764  10.493 -0.0126  0.0506 -0.1582
  408loPI    C2 6514   2.135   0.413  10.580 -0.1475  0.0850  0.2656
  408loPI    C3 6515   2.036   0.665  10.874 -0.3684  0.3308 -0.0139
  408loPI   PO4 6516   1.963   0.826  10.259  0.1804 -0.0743  0.3339
  408loPI   GL1 6517   2.168   0.776   9.796  0.0395 -0.1801  0.1899
  408loPI   GL2 6518   1.887   0.986   9.756  0.1220 -0.2242 -0.0669
  408loPI   C1A 6519   2.132   0.629   9.409 -0.1961  0.3068 -0.0658
  408loPI   C2A 6520   2.134   0.596   9.000 -0.3564  0.1932  0.2469
  408loPI   C3A 6521   2.006   0.726   8.622  0.2695  0.0011 -0.2828
  408loPI   C4A 6522   1.637   0.919   8.361 -0.2841  0.5061  0.1815
  408loPI   C5A 6523   1.653   0.966   7.904 -0.1934 -0.3091  0.1925
  408loPI   C6A 6524   1.614   0.987   7.542 -0.1067  0.3268 -0.2519
  408loPI   C1B 6525   1.696   0.888   9.356  0.0229 -0.0274  0.0001
  408loPI   C2B 6526   1.729   0.975   9.010 -0.0820 -0.0370 -0.1327
  408loPI   C3B 6527   1.428   0.995   8.924 -0.1129  0.1181 -0.2422
  408loPI   C4B 6528   1.270   0.793   9.199 -0.0691  0.2558 -0.0684
  409loPI    C1 6529  15.597  14.343  10.424 -0.1020 -0.0709  0.2518
  409loPI    C2 6530  15.890  14.598  10.521 -0.0348 -0.0114 -0.0937
  409loPI    C3 6531  15.652  14.448  10.806 -0.0870  0.4505  0.1140
  409loPI   PO4 6532  15.511  14.413  10.167  0.4058  0.0435  0.2037
  409loPI   GL1 6533  15.170  14.349   9.892  0.0591  0.0551  0.0125
  409loPI   GL2 6534  15.201  14.057   9.731 -0.3566 -0.2497 -0.2953
  409loPI   C1A 6535  15.098  14.694   9.543 -0.2765 -0.3292 -0.1027
  409loPI   C2A 6536  15.174  14.750   9.101  0.1231 -0.3469  0.0196
  409loPI   C3A 6537  15.384  14.669   8.799  0.1140  0.1141  0.0863
  409loPI   C4A 6538  15.628  14.694   8.391 -0.3297  0.0515  0.1352
  409loPI   C5A 6539  15.741  14.615   7.967 -0.0868 -0.0960 -0.0649
  409loPI   C6A 6540  15.789  14.812   7.733  0.0744  0.2518  0.0888
  409loPI   C1B 6541  15.448  14.257   9.494 -0.1081  0.3030  0.0215
  409loPI   C2B 6542  15.781  14.119   9.275 -0.0583 -0.1921 -0.2844
  409loPI   C3B 6543  15.884  13.960   8.756  0.1517 -0.3991  0.2343
  409loPI   C4B 6544  16.116  13.946   8.386  0.0239  0.0333  0.1075
  410loPI    C1 6545   6.613  11.727  10.486  0.4218  0.2941 -0.1229
  410loPI    C2 6546   6.570  11.459  10.780 -0.4136 -0.0304 -0.5055
  410loPI    C3 6547   6.553  11.851  10.861 -0.1403 -0.1018 -0.0688
  410loPI   PO4 6548   6.472  11.554  10.325 -0.1325  0.1834 -0.1149
  410loPI   GL1 6549   6.464  11.352   9.891  0.1913 -0.2527 -0.1277
  410loPI   GL2 6550   6.298  11.650   9.677  0.0275 -0.0031  0.1787
  410loPI   C1A 6551   6.677  11.108   9.564  0.2321 -0.0738  0.0742
  410loPI   C2A 6552   6.524  10.877   9.241 -0.2513 -0.3453  0.3289
  410loPI   C3A 6553   6.524  11.027   8.860  0.1344 -0.1186 -0.0883
  410loPI   C4A 6554   6.437  11.067   8.424  0.2865 -0.1525  0.3618
  410loPI   C5A 6555   6.698  11.192   8.064 -0.0171  0.2075 -0.0430
  410loPI   C6A 6556   6.705  11.159   7.660  0.0207 -0.0659  0.0884
  410loPI   C1B 6557   6.385  11.437   9.290 -0.1816 -0.2765  0.2950
  410loPI   C2B 6558   6.781  11.453   9.001 -0.0683 -0.2528 -0.1363
  410loPI   C3B 6559   6.877  11.322   8.559  0.2112 -0.2819 -0.1420
  410loPI   C4B 6560   7.177  11.234   8.281 -0.0720 -0.0612 -0.3487
  411loPI    C1 6561  10.896  11.075  10.300  0.0107 -0.0220 -0.0389
  411loPI    C2 6562  10.499  11.121  10.279 -0.0039 -0.0782  0.1082
  411loPI    C3 6563  10.664  10.943  10.598  0.1292 -0.1714 -0.0115
  411loPI   PO4 6564  11.013  11.010  10.088  0.2200 -0.4776  0.0838
  411loPI   GL1 6565  10.970  11.214   9.779  0.2145  0.4093  0.0783
  411loPI   GL2 6566  10.661  11.319   9.806 -0.2325  0.3086 -0.1223
  411loPI   C1A 6567  11.165  11.221   9.319 -0.1143 -0.3936 -0.0689
  411loPI   C2A 6568  11.212  11.333   8.875  0.1161 -0.2177 -0.1302
  411loPI   C3A 6569  11.060  11.212   8.418 -0.1586 -0.3084  0.0846
  411loPI   C4A 6570  10.765  11.405   8.112  0.1894  0.2908  0.3198
  411loPI   C5A 6571  10.434  11.636   7.817  0.0104 -0.1102  0.0228
  411loPI   C6A 6572   9.994  11.762   7.720 -0.3540  0.5108 -0.4166
  411loPI   C1B 6573  10.722  11.481   9.351 -0.0261 -0.2374  0.0179
  411loPI   C2B 6574  10.684  11.337   8.930 -0.4132  0.2719 -0.2930
  411loPI   C3B 6575  10.479  11.227   8.596  0.1637 -0.0795 -0.3751
  411loPI   C4B 6576  10.234  11.362   8.210 -0.0146 -0.1586 -0.1918
  412loPI    C1 6577  15.588  13.824  10.615  0.3324 -0.0996 -0.0813
  412loPI    C2 6578  15.865  13.646  10.842  0.1620 -0.0709  0.1524
  412loPI    C3 6579  15.681  13.977  10.973  0.0174 -0.0894 -0.0007
  412loPI   PO4 6580  15.639  13.756  10.391 -0.2469  0.0217  0.0804
  412loPI   GL1 6581  15.567  13.474  10.051 -0.0238  0.1244  0.1473
  412loPI   GL2 6582  15.523  13.179   9.978 -0.1271  0.1328 -0.1955
  412loPI   C1A 6583  15.503  13.625   9.656 -0.2073 -0.3558  0.2299
  412loPI   C2A 6584  15.350  13.798   9.268  0.1423  0.1246 -0.2373
  412loPI   C3A 6585  15.297  13.785   8.754 -0.0568  0.2789  0.1792
  412loPI   C4A 6586  15.051  13.964   8.423 -0.0571  0.1629 -0.0025
  412loPI   C5A 6587  14.899  13.735   8.052 -0.0133  0.2120 -0.3407
  412loPI   C6A 6588  14.736  13.344   7.993  0.2358 -0.2748 -0.0783
  412loPI   C1B 6589  15.702  13.186   9.516 -0.0587 -0.6194 -0.1506
  412loPI   C2B 6590  15.578  13.340   9.156 -0.2979 -0.0637 -0.2487
  412loPI   C3B 6591  15.572  13.430   8.791 -0.1544  0.2719  0.5376
  412loPI   C4B 6592  15.679  13.699   8.334  0.2226 -0.1093  0.0676
  413loPI    C1 6593  12.568   1.896  10.139 -0.0455  0.2091 -0.0245
  413loPI    C2 6594  12.870   1.864  10.400 -0.0814  0.0738  0.0013
  413loPI    C3 6595  12.561   1.611  10.420 -0.0708  0.0443 -0.1907
  413loPI   PO4 6596  12.567   2.123  10.084 -0.2090 -0.3161  0.0648
  413loPI   GL1 6597  12.800   2.194   9.691  0.2307 -0.1179 -0.2745
  413loPI   GL2 6598  12.909   2.435   9.531  0.2706 -0.2097  0.0630
  413loPI   C1A 6599  13.245   2.062   9.500 -0.0164 -0.3353  0.2323
  413loPI   C2A 6600  13.477   1.857   9.165 -0.1573 -0.1946  0.1915
  413loPI   C3A 6601  13.602   1.787   8.747 -0.1689 -0.1018 -0.1061
  413loPI   C4A 6602  13.726   1.700   8.420 -0.1195  0.0775  0.2200
  413loPI   C5A 6603  13.674   1.594   8.136  0.2759 -0.1481  0.2404
  413loPI   C6A 6604  13.895   1.539   7.799 -0.2308 -0.1874 -0.1132
  413loPI   C1B 6605  12.988   2.390   9.122  0.3542  0.1156 -0.1456
  413loPI   C2B 6606  12.954   2.275   8.635 -0.4689  0.0048 -0.2476
  413loPI   C3B 6607  12.948   2.206   8.194 -0.0177 -0.1014 -0.1123
  413loPI   C4B 6608  12.650   1.966   7.889  0.1240  0.1426  0.2062
  414loPI    C1 6609  15.797   2.227  10.403 -0.1077  0.1863 -0.1705
  414loPI    C2 6610  15.704   1.846  10.482 -0.1731  0.1767 -0.2902
  414loPI    C3 6611  15.826   2.088  10.777 -0.0764  0.0484 -0.2238
  414loPI   PO4 6612  15.989   2.240  10.238 -0.0771  0.3705  0.2082
  414loPI   GL1 6613  16.084   2.342   9.831  0.0454 -0.1471  0.0616
  414loPI   GL2 6614  16.315   2.411   9.795 -0.2388 -0.2527  0.0960
  414loPI   C1A 6615  15.889   2.042   9.474  0.2881 -0.0038 -0.1670
  414loPI   C2A 6616  15.833   2.013   9.050 -0.2761 -0.2257  0.1753
  414loPI   C3A 6617  15.822   2.064   8.574 -0.0365  0.1629  0.1330
  414loPI   C4A 6618  15.589   2.030   8.138 -0.1735 -0.4050  0.0714
  414loPI   C5A 6619  15.491   1.799   7.681 -0.0238  0.0275  0.0862
  414loPI   C6A 6620  15.338   1.770   7.236  0.1255  0.2287  0.1361
  414loPI   C1B 6621  16.307   2.360   9.353 -0.1222 -0.5056 -0.0013
  414loPI   C2B 6622  16.252   2.349   8.838 -0.3024  0.1299  0.2099
  414loPI   C3B 6623  16.110   2.618   8.518  0.3353  0.3969 -0.1136
  414loPI   C4B 6624  15.859   2.895   8.077  0.0259 -0.0862 -0.1188
  415loPI    C1 6625   3.629  11.797  10.303 -0.2067 -0.0860  0.0982
  415loPI    C2 6626   3.828  11.454  10.354  0.2649  0.1169 -0.2973
  415loPI    C3 6627   3.826  11.728  10.645  0.2448 -0.0421 -0.1457
  415loPI   PO4 6628   3.597  11.815  10.078  0.2049 -0.0239  0.2452
  415loPI   GL1 6629   3.557  11.751   9.677 -0.0600  0.2135  0.0293
  415loPI   GL2 6630   3.378  11.955   9.445  0.3842 -0.1210  0.2982
  415loPI   C1A 6631   3.739  11.566   9.424 -0.1646 -0.1445 -0.0890
  415loPI   C2A 6632   3.680  11.401   9.052  0.0730 -0.2975  0.0478
  415loPI   C3A 6633   3.695  11.351   8.577 -0.1411 -0.0581  0.0921
  415loPI   C4A 6634   3.454  11.585   8.305 -0.1249  0.2287  0.0557
  415loPI   C5A 6635   3.292  11.650   7.902 -0.0224 -0.2595  0.0523
  415loPI   C6A 6636   3.210  12.062   7.747  0.3785 -0.1810  0.0263
  415loPI   C1B 6637   3.382  11.851   9.033 -0.2285  0.1802 -0.0898
  415loPI   C2B 6638   3.183  11.502   8.783 -0.1779  0.3444 -0.3204
  415loPI   C3B 6639   2.906  11.423   8.511 -0.0023  0.4314 -0.1952
  415loPI   C4B 6640   2.865  11.687   8.174 -0.1672  0.2524  0.1086
  416loPI    C1 6641   8.708  14.136  10.438 -0.1982 -0.3321  0.0652
  416loPI    C2 6642   8.988  14.318  10.659 -0.0676 -0.1183 -0.2670
  416loPI    C3 6643   8.702  14.100  10.836  0.0674 -0.0013  0.1036
  416loPI   PO4 6644   8.797  14.020  10.217 -0.1041  0.3152 -0.2459
  416loPI   GL1 6645   8.885  14.229   9.867 -0.5585  0.2441 -0.0644
  416loPI   GL2 6646   8.858  13.916   9.631  0.0160  0.1376 -0.2823
  416loPI   C1A 6647   9.110  14.314   9.521  0.0502 -0.2247 -0.1120
  416loPI   C2A 6648   9.108  14.277   9.062 -0.2052 -0.2020 -0.5328
  416loPI   C3A 6649   9.061  14.383   8.600 -0.2094 -0.2781 -0.1810
  416loPI   C4A 6650   8.864  14.391   8.165 -0.1835  0.2100 -0.2130
  416loPI   C5A 6651   8.644  14.218   7.828 -0.1452  0.0951 -0.0252
  416loPI   C6A 6652   8.435  14.356   7.519 -0.2735  0.0263  0.4067
  416loPI   C1B 6653   8.907  13.803   9.240  0.1494 -0.4468 -0.0473
  416loPI   C2B 6654   8.886  13.777   8.839 -0.5239  0.1817  0.2753
  416loPI   C3B 6655   8.909  13.938   8.442  0.0447 -0.0014  0.1998
  416loPI   C4B 6656   8.940  13.845   8.020 -0.1811 -0.1689 -0.2400
  417loPI    C1 6657  10.728   7.092  10.330  0.0446  0.1635  0.1328
  417loPI    C2 6658  10.592   6.970  10.686  0.0036 -0.1614  0.0089
  417loPI    C3 6659  10.985   6.989  10.619  0.0140  0.0767  0.1295
  417loPI   PO4 6660  10.620   7.261  10.298 -0.1394  0.0639  0.2991
  417loPI   GL1 6661  10.412   7.274   9.857 -0.3850  0.1349 -0.0599
  417loPI   GL2 6662  10.545   7.010   9.867 -0.0805 -0.3409  0.0346
  417loPI   C1A 6663  10.208   7.265   9.397 -0.1209  0.0131  0.2481
  417loPI   C2A 6664  10.115   7.202   8.959  0.1678  0.0325 -0.0158
  417loPI   C3A 6665   9.923   6.864   8.750  0.0078  0.0471  0.0475
  417loPI   C4A 6666  10.078   6.729   8.331  0.1110 -0.1239  0.2215
  417loPI   C5A 6667  10.224   6.501   8.052  0.0460  0.0533  0.1138
  417loPI   C6A 6668  10.177   6.221   7.662  0.0241  0.0646  0.1728
  417loPI   C1B 6669  10.600   6.716   9.462  0.2833 -0.3802 -0.2044
  417loPI   C2B 6670  10.745   6.343   9.151 -0.0070  0.0159  0.0129
  417loPI   C3B 6671  10.893   6.113   8.827 -0.0365  0.1370 -0.3344
  417loPI   C4B 6672  10.730   5.714   8.581  0.0413  0.2091 -0.2194
  418loPI    C1 6673   1.789  10.471  10.119 -0.0827  0.0256  0.1078
  418loPI    C2 6674   1.402  10.398  10.048 -0.0277 -0.3595  0.1796
  418loPI    C3 6675   1.509  10.624  10.360 -0.2000 -0.0754  0.0375
  418loPI   PO4 6676   1.845  10.616   9.894  0.1872  0.0104 -0.0579
  418loPI   GL1 6677   1.701  10.567   9.523  0.0522 -0.1030 -0.1670
  418loPI   GL2 6678   1.807  10.296   9.409  0.0403  0.0935  0.0152
  418loPI   C1A 6679   1.718  10.882   9.187 -0.3411 -0.0527 -0.0813
  418loPI   C2A 6680   1.635  11.136   8.815 -0.0732  0.2022  0.0024
  418loPI   C3A 6681   1.683  11.017   8.425  0.0086  0.0537  0.1582
  418loPI   C4A 6682   1.463  10.809   8.132  0.3615  0.1070 -0.1653
  418loPI   C5A 6683   1.487  10.562   7.785 -0.2559  0.0058 -0.0855
  418loPI   C6A 6684   1.414  10.304   7.458 -0.1771  0.1607  0.0261
  418loPI   C1B 6685   1.333  10.327   9.230  0.1102 -0.0899  0.0445
  418loPI   C2B 6686   1.123  10.513   8.832  0.0279 -0.0950 -0.0383
  418loPI   C3B 6687   1.009  10.640   8.422 -0.0857  0.0573 -0.2006
  418loPI   C4B 6688   0.918  10.709   7.993  0.0042 -0.1493 -0.0048
  419loPI    C1 6689  14.660  17.627  10.659  0.1941 -0.3729 -0.3990
  419loPI    C2 6690  14.903  17.439  10.916 -0.0586 -0.1108  0.0440
  419loPI    C3 6691  14.515  17.343  10.900 -0.0507 -0.1065 -0.2259
  419loPI   PO4 6692  14.727  17.558  10.473 -0.0580 -0.0227 -0.0465
  419loPI   GL1 6693  14.913  17.472  10.158  0.0244  0.0045  0.3099
  419loPI   GL2 6694  14.631  17.641   9.962  0.1614 -0.1529 -0.3097
  419loPI   C1A 6695  15.268  17.698  10.032 -0.0431 -0.2628  0.0727
  419loPI   C2A 6696  15.467  17.782   9.637 -0.1858 -0.1733  0.0243
  419loPI   C3A 6697  15.506  17.599   9.239 -0.0605  0.0444  0.0937
  419loPI   C4A 6698  15.641  17.699   8.879  0.1885  0.0388  0.2359
  419loPI   C5A 6699  15.660  17.670   8.388 -0.2574  0.1627  0.1575
  419loPI   C6A 6700  15.538  17.611   7.902 -0.2167  0.0130  0.1079
  419loPI   C1B 6701  14.543  17.371   9.668  0.0267  0.0119  0.0166
  419loPI   C2B 6702  14.606  16.972   9.544 -0.3551 -0.1344 -0.5626
  419loPI   C3B 6703  14.713  16.796   9.156 -0.1189  0.1982 -0.0763
  419loPI   C4B 6704  14.622  16.803   8.677  0.1516  0.2501  0.1627
  420loPI    C1 6705  17.093   0.814  10.700 -0.2843  0.2745  0.1166
  420loPI    C2 6706  17.441   1.009  10.729 -0.1640  0.0695  0.0718
  420loPI    C3 6707  17.321   0.771  11.027  0.0306 -0.3373 -0.1671
  420loPI   PO4 6708  16.981   0.805  10.413  0.0250 -0.0385  0.0037
  420loPI   GL1 6709  17.031   0.815   9.943  0.0661 -0.2708  0.0189
  420loPI   GL2 6710  16.809   0.635   9.926 -0.2004 -0.0294  0.1635
  420loPI   C1A 6711  17.053   0.983   9.493 -0.1118  0.0986 -0.1538
  420loPI   C2A 6712  17.431   0.961   9.095 -0.1611 -0.0329  0.3978
  420loPI   C3A 6713  17.651   0.792   8.667  0.1642  0.1167  0.0170
  420loPI   C4A 6714  17.675   0.887   8.245 -0.2670 -0.1629  0.3858
  420loPI   C5A 6715  17.450   1.180   8.000  0.0258 -0.0149  0.1721
  420loPI   C6A 6716  17.585   1.378   7.709 -0.0549 -0.1184 -0.0782
  420loPI   C1B 6717  17.003   0.461   9.561 -0.1076  0.0303  0.2116
  420loPI   C2B 6718  16.943   0.610   9.209 -0.0244 -0.4463  0.0004
  420loPI   C3B 6719  17.090   0.860   8.764 -0.1483 -0.3324  0.2178
  420loPI   C4B 6720  17.355   1.143   8.523 -0.0618  0.2073 -0.0313
  421loPI    C1 6721  16.906  16.600  10.210 -0.1621 -0.0896 -0.1069
  421loPI    C2 6722  16.966  16.971  10.347  0.0650 -0.1155 -0.1326
  421loPI    C3 6723  17.255  16.784  10.144 -0.0809 -0.2736 -0.1969
  421loPI   PO4 6724  16.698  16.590  10.118 -0.2928 -0.2089  0.2895
  421loPI   GL1 6725  16.688  16.734   9.707 -0.1235 -0.0627  0.1064
  421loPI   GL2 6726  16.976  16.597   9.694 -0.1061  0.0165  0.0766
  421loPI   C1A 6727  16.666  16.678   9.295  0.3805  0.2472 -0.0341
  421loPI   C2A 6728  16.636  16.716   8.841 -0.1030 -0.2259 -0.2834
  421loPI   C3A 6729  16.567  16.905   8.436 -0.3630  0.1606 -0.2501
  421loPI   C4A 6730  16.630  16.999   8.018 -0.0022 -0.3897 -0.0425
  421loPI   C5A 6731  16.628  17.103   7.649  0.2351 -0.0576  0.2223
  421loPI   C6A 6732  16.617  17.338   7.153 -0.1981 -0.1836  0.0706
  421loPI   C1B 6733  17.160  16.403   9.315  0.0841  0.1327  0.2172
  421loPI   C2B 6734  17.130  16.407   8.956 -0.2396  0.0010  0.4443
  421loPI   C3B 6735  17.028  16.433   8.643  0.2276  0.1556  0.2786
  421loPI   C4B 6736  17.016  16.768   8.267  0.2876  0.2473 -0.0006
  422loPI    C1 6737  13.447  10.938  10.525 -0.0942 -0.1073  0.3221
  422loPI    C2 6738  13.151  11.038  10.776 -0.3170 -0.1264  0.0713
  422loPI    C3 6739  13.349  10.694  10.827 -0.4002 -0.1577  0.1861
  422loPI   PO4 6740  13.263  10.957  10.257 -0.2848  0.2065 -0.1188
  422loPI   GL1 6741  13.270  11.134   9.907 -0.1796 -0.1622  0.1176
  422loPI   GL2 6742  13.475  11.247   9.802 -0.2446  0.0300  0.0805
  422loPI   C1A 6743  13.089  10.987   9.590  0.2961 -0.0608 -0.0892
  422loPI   C2A 6744  13.176  10.895   9.094 -0.2525  0.1202 -0.4570
  422loPI   C3A 6745  13.059  10.662   8.826  0.3073 -0.0008  0.0764
  422loPI   C4A 6746  12.940  10.262   8.893  0.0562  0.0237 -0.2001
  422loPI   C5A 6747  12.599  10.236   9.043 -0.1221 -0.0960 -0.0648
  422loPI   C6A 6748  12.242  10.223   9.286  0.4001 -0.0042 -0.1254
  422loPI   C1B 6749  13.427  11.305   9.400  0.0381 -0.0709  0.0535
  422loPI   C2B 6750  13.447  11.344   8.975 -0.3008 -0.1489 -0.0004
  422loPI   C3B 6751  13.722  11.437   8.620 -0.3552  0.4333 -0.3046
  422loPI   C4B 6752  13.910  11.503   8.249 -0.1368 -0.1052 -0.1021
  423loPI    C1 6753   3.624  12.382  10.220  0.1857  0.2592 -0.0346
  423loPI    C2 6754   3.773  12.195  10.541  0.0715  0.0455 -0.1042
  423loPI    C3 6755   3.586  12.547  10.583  0.2039  0.0998  0.0406
  423loPI   PO4 6756   3.743  12.290  10.046 -0.0530  0.1239  0.2440
  423loPI   GL1 6757   3.733  12.301   9.537 -0.2712  0.1373  0.2638
  423loPI   GL2 6758   3.949  12.077   9.611 -0.1002  0.1046 -0.3392
  423loPI   C1A 6759   3.887  11.972   9.144 -0.0627  0.0233  0.1368
  423loPI   C2A 6760   3.867  11.741   8.717 -0.0799 -0.2537 -0.2541
  423loPI   C3A 6761   4.100  11.614   8.325  0.0487  0.2358 -0.0933
  423loPI   C4A 6762   4.203  11.679   7.913 -0.0535  0.0896  0.3239
  423loPI   C5A 6763   4.564  11.928   7.631  0.4385 -0.2068  0.2432
  423loPI   C6A 6764   4.822  12.259   7.577  0.2862 -0.3237 -0.0325
  423loPI   C1B 6765   4.264  11.877   9.368  0.2358 -0.1576  0.0150
  423loPI   C2B 6766   4.193  11.554   9.017  0.1401 -0.2219 -0.2969
  423loPI   C3B 6767   4.306  11.278   8.753  0.0806 -0.1622  0.0742
  423loPI   C4B 6768   4.551  10.900   8.610 -0.1601 -0.1503  0.0984
  424loPI    C1 6769  16.850  15.153  10.358  0.1573 -0.0561 -0.0102
  424loPI    C2 6770  16.856  15.225  10.752  0.2536  0.0920 -0.0379
  424loPI    C3 6771  17.067  14.920  10.600  0.0933 -0.0607  0.0430
  424loPI   PO4 6772  16.600  15.185  10.232 -0.0412 -0.1625 -0.2105
  424loPI   GL1 6773  16.319  15.070   9.876 -0.1771 -0.2433  0.0424
  424loPI   GL2 6774  16.460  15.315   9.704  0.0428  0.1587  0.1665
  424loPI   C1A 6775  16.201  14.990   9.422 -0.0002 -0.2551  0.1719
  424loPI   C2A 6776  16.245  14.895   8.979  0.0872 -0.1898  0.2547
  424loPI   C3A 6777  16.454  14.850   8.593 -0.1271 -0.1736 -0.0153
  424loPI   C4A 6778  16.413  15.223   8.238 -0.3053 -0.3643  0.0456
  424loPI   C5A 6779  16.752  15.448   7.923  0.1843 -0.0384  0.0872
  424loPI   C6A 6780  17.028  15.244   7.741  0.2198  0.1012  0.0366
  424loPI   C1B 6781  16.413  15.556   9.304  0.1331  0.0152  0.0310
  424loPI   C2B 6782  16.155  15.722   9.005  0.1762  0.0455  0.0536
  424loPI   C3B 6783  16.054  15.904   8.660  0.2244  0.1903 -0.1423
  424loPI   C4B 6784  16.175  15.705   8.324  0.0023 -0.2169 -0.1303
  425loPI    C1 6785  13.393  16.259  10.255 -0.0228  0.1956  0.0705
  425loPI    C2 6786  13.704  16.301  10.503  0.0292 -0.0152  0.0432
  425loPI    C3 6787  13.386  16.540  10.540  0.1497  0.1330  0.1386
  425loPI   PO4 6788  13.470  16.220   9.975  0.0334  0.2186  0.1292
  425loPI   GL1 6789  13.796  16.329   9.687 -0.1124 -0.0098 -0.3236
  425loPI   GL2 6790  14.031  16.436   9.731 -0.2307 -0.1540 -0.0619
  425loPI   C1A 6791  13.745  16.265   9.242 -0.0703  0.0295  0.0544
  425loPI   C2A 6792  13.841  16.228   8.811 -0.0259  0.0987  0.0101
  425loPI   C3A 6793  13.889  16.072   8.489 -0.0902 -0.0100  0.0629
  425loPI   C4A 6794  14.037  15.930   8.119  0.2166  0.0409 -0.1178
  425loPI   C5A 6795  14.421  15.759   8.037  0.1234 -0.0352 -0.0990
  425loPI   C6A 6796  14.615  15.453   7.884 -0.0614 -0.3198 -0.0679
  425loPI   C1B 6797  14.150  16.073   9.377  0.0511  0.0684  0.0773
  425loPI   C2B 6798  14.341  16.143   8.932  0.2324  0.5197  0.0865
  425loPI   C3B 6799  14.719  16.321   8.868  0.4809 -0.1617  0.1360
  425loPI   C4B 6800  15.051  16.146   8.517  0.0240  0.0006 -0.1511
  426loPI    C1 6801  17.790   1.363  10.785  0.0093 -0.1062  0.0373
  426loPI    C2 6802  17.913   1.718  10.920 -0.0166 -0.0899  0.0178
  426loPI    C3 6803  18.101   1.385  11.036 -0.0265 -0.0742  0.0788
  426loPI   PO4 6804  17.735   1.409  10.489 -0.2773 -0.1077 -0.0931
  426loPI   GL1 6805  17.508   1.349  10.064 -0.3212  0.1231 -0.1183
  426loPI   GL2 6806  17.481   0.998  10.152 -0.4534 -0.3604  0.1057
  426loPI   C1A 6807  17.682   1.163   9.668 -0.1611  0.5130  0.3402
  426loPI   C2A 6808  17.758   1.258   9.233  0.1609  0.0334  0.2361
  426loPI   C3A 6809  17.770   1.301   8.797  0.4549  0.0975  0.0991
  426loPI   C4A 6810  17.844   1.238   8.506  0.1526  0.0396 -0.2043
  426loPI   C5A 6811  18.242   1.411   8.368  0.0766 -0.1543 -0.0586
  426loPI   C6A 6812  18.615   1.413   8.284  0.0802 -0.2160  0.0851
  426loPI   C1B 6813  17.449   0.700   9.717  0.0767  0.3366 -0.2867
  426loPI   C2B 6814  17.466   0.475   9.286  0.0903 -0.1833 -0.4364
  426loPI   C3B 6815  17.459   0.337   8.879 -0.0884  0.0935 -0.1031
  426loPI   C4B 6816  17.343   0.558   8.396 -0.0621 -0.3887 -0.0055
  427loPI    C1 6817   3.287  12.633   9.946 -0.2287 -0.2230  0.0003
  427loPI    C2 6818   2.916  12.513  10.035 -0.3195 -0.0368 -0.1193
  427loPI    C3 6819   3.007  12.902  10.042 -0.0203 -0.1070  0.2980
  427loPI   PO4 6820   3.305  12.539   9.669 -0.1316 -0.0349 -0.0833
  427loPI   GL1 6821   3.208  12.668   9.214 -0.0659 -0.0050  0.1653
  427loPI   GL2 6822   3.424  12.383   9.161  0.1270 -0.1812  0.0948
  427loPI   C1A 6823   3.388  12.770   8.800  0.3139 -0.1914 -0.5166
  427loPI   C2A 6824   3.339  12.944   8.398 -0.3122 -0.1044 -0.2037
  427loPI   C3A 6825   3.016  12.749   8.100 -0.1981 -0.1999 -0.0454
  427loPI   C4A 6826   3.019  12.544   7.698 -0.1543  0.2844 -0.2770
  427loPI   C5A 6827   2.747  12.311   7.572  0.1716  0.1292  0.2658
  427loPI   C6A 6828   2.759  11.767   7.594 -0.3485  0.2613  0.0295
  427loPI   C1B 6829   3.495  12.196   8.704 -0.2152 -0.0759  0.1693
  427loPI   C2B 6830   3.592  12.104   8.244  0.4687  0.3892 -0.0783
  427loPI   C3B 6831   3.754  11.840   7.940 -0.0589 -0.3586 -0.0981
  427loPI   C4B 6832   3.809  11.322   7.998 -0.2489  0.0553 -0.3391
  428loPI    C1 6833  11.862   1.653  10.348 -0.0481  0.2871 -0.3274
  428loPI    C2 6834  11.558   1.889  10.456 -0.0114  0.1713  0.0450
  428loPI    C3 6835  11.687   1.603  10.704  0.0514 -0.1364 -0.3324
  428loPI   PO4 6836  12.018   1.802  10.222  0.0989  0.3225  0.2298
  428loPI   GL1 6837  12.109   1.950   9.875 -0.0784 -0.3578  0.0322
  428loPI   GL2 6838  12.356   1.874   9.656  0.0806 -0.3401 -0.1615
  428loPI   C1A 6839  11.830   2.045   9.488 -0.2263 -0.1573  0.0479
  428loPI   C2A 6840  11.788   1.966   9.121  0.3343 -0.0066 -0.0583
  428loPI   C3A 6841  11.778   1.785   8.878 -0.0867  0.4336 -0.3564
  428loPI   C4A 6842  11.700   1.489   8.470  0.1200  0.0340 -0.0407
  428loPI   C5A 6843  11.742   1.218   8.040  0.1475  0.0248 -0.1484
  428loPI   C6A 6844  11.488   1.155   7.707 -0.0255  0.0503  0.0909
  428loPI   C1B 6845  12.226   2.117   9.236 -0.3953  0.2688  0.1440
  428loPI   C2B 6846  12.144   2.133   8.784 -0.1955  0.0802 -0.1958
  428loPI   C3B 6847  12.293   2.260   8.411 -0.4646  0.1830 -0.1439
  428loPI   C4B 6848  12.249   2.235   8.002  0.0987 -0.0388 -0.1116
  429loPI    C1 6849  11.235   0.771  10.216  0.0829 -0.2129  0.0392
  429loPI    C2 6850  11.231   0.390  10.095 -0.1576 -0.2186  0.0608
  429loPI    C3 6851  10.926   0.535  10.310 -0.2243  0.0744 -0.2235
  429loPI   PO4 6852  11.188   0.921   9.988 -0.1368  0.2871 -0.2085
  429loPI   GL1 6853  10.733   0.947   9.838  0.0987 -0.4273  0.1467
  429loPI   GL2 6854  10.513   1.031   9.760  0.1498 -0.0851 -0.0955
  429loPI   C1A 6855  10.859   0.691   9.567  0.0331 -0.1653  0.1623
  429loPI   C2A 6856  10.925   0.561   9.135  0.0235  0.2528 -0.0098
  429loPI   C3A 6857  10.907   0.246   8.726 -0.0559  0.1123  0.0368
  429loPI   C4A 6858  10.983  -0.022   8.353 -0.0361  0.1150 -0.3102
  429loPI   C5A 6859  11.397  -0.223   8.142 -0.2316 -0.5388  0.0324
  429loPI   C6A 6860  11.718  -0.325   7.833  0.2133 -0.1526  0.0864
  429loPI   C1B 6861  10.378   0.852   9.453 -0.0221 -0.1120  0.1190
  429loPI   C2B 6862  10.421   0.587   9.135  0.2213  0.2754 -0.3090
  429loPI   C3B 6863  10.446   0.628   8.866 -0.0689  0.1687  0.0669
  429loPI   C4B 6864  10.519   0.570   8.424 -0.3176  0.0862 -0.1687
  430loPI    C1 6865  14.699  15.082  10.108  0.0738  0.2994 -0.0476
  430loPI    C2 6866  14.547  14.917  10.439  0.0271 -0.1256 -0.2742
  430loPI    C3 6867  14.443  15.289  10.335 -0.2752 -0.1375 -0.0282
  430loPI   PO4 6868  14.555  14.887   9.964  0.0712  0.0469 -0.1709
  430loPI   GL1 6869  14.479  14.655   9.625 -0.0391 -0.3732 -0.2021
  430loPI   GL2 6870  14.180  14.762   9.556 -0.1260  0.2725 -0.0264
  430loPI   C1A 6871  14.680  14.613   9.210 -0.1185 -0.1529 -0.0477
  430loPI   C2A 6872  14.484  14.672   8.804  0.2665  0.1167 -0.2943
  430loPI   C3A 6873  14.368  14.576   8.313  0.0079 -0.0134 -0.2211
  430loPI   C4A 6874  14.643  14.318   8.167  0.0172 -0.0742 -0.0391
  430loPI   C5A 6875  14.985  14.220   8.002 -0.1293  0.1776  0.0338
  430loPI   C6A 6876  15.048  14.031   7.577 -0.2635 -0.0341 -0.2689
  430loPI   C1B 6877  14.210  14.972   9.143 -0.1872 -0.0520 -0.2776
  430loPI   C2B 6878  14.404  15.209   8.739  0.0365  0.0665 -0.2251
  430loPI   C3B 6879  14.590  15.367   8.385  0.1319 -0.0267 -0.0612
  430loPI   C4B 6880  14.892  15.746   8.207 -0.2540  0.0863  0.0595
  431loPI    C1 6881   5.488  17.620   9.680 -0.1544  0.0646 -0.0561
  431loPI    C2 6882   5.787  17.593   9.944 -0.0456 -0.0035 -0.1852
  431loPI    C3 6883   5.411  17.524  10.061 -0.0228  0.1739 -0.0013
  431loPI   PO4 6884   5.573  17.603   9.431  0.1616  0.0098  0.1013
  431loPI   GL1 6885   5.768  17.427   9.139  0.0756 -0.0171  0.1360
  431loPI   GL2 6886   5.665  17.058   9.257 -0.1901 -0.0646  0.3934
  431loPI   C1A 6887   5.969  17.281   8.827  0.1143 -0.3262 -0.1363
  431loPI   C2A 6888   6.114  17.358   8.458  0.0217 -0.0639  0.0681
  431loPI   C3A 6889   6.218  17.396   7.967 -0.0487  0.0712  0.0557
  431loPI   C4A 6890   6.143  17.571   7.629 -0.2553  0.3338 -0.1386
  431loPI   C5A 6891   5.927  17.827   7.319 -0.1031  0.1530  0.2433
  431loPI   C6A 6892   6.244  18.060   7.108 -0.2207  0.2060 -0.1194
  431loPI   C1B 6893   5.484  17.106   8.815 -0.4471 -0.2666  0.0451
  431loPI   C2B 6894   5.400  17.253   8.519 -0.1043 -0.0457 -0.1738
  431loPI   C3B 6895   5.445  17.410   8.170  0.1685  0.2679 -0.0081
  431loPI   C4B 6896   5.651  17.615   7.865  0.2297  0.1863 -0.4363
  432loPI    C1 6897   1.758   7.834  10.663 -0.2246  0.1036  0.1765
  432loPI    C2 6898   1.703   7.636  11.007 -0.1878  0.0086  0.1281
  432loPI    C3 6899   2.011   7.543  10.769 -0.2572  0.0218  0.0322
  432loPI   PO4 6900   1.562   7.796  10.477  0.0071  0.3194  0.2928
  432loPI   GL1 6901   1.346   7.466  10.098  0.0968 -0.0038  0.1048
  432loPI   GL2 6902   1.211   7.194  10.238  0.1684  0.2264  0.0423
  432loPI   C1A 6903   1.396   7.261   9.710  0.1104  0.0674  0.0281
  432loPI   C2A 6904   1.387   7.179   9.296 -0.1007  0.0561  0.0931
  432loPI   C3A 6905   1.426   7.344   8.923 -0.1380 -0.1724  0.0540
  432loPI   C4A 6906   1.312   7.656   8.705 -0.0142 -0.0502 -0.0577
  432loPI   C5A 6907   1.170   7.685   8.330  0.0377 -0.2032  0.1873
  432loPI   C6A 6908   1.079   7.637   7.951  0.2812  0.2269 -0.2304
  432loPI   C1B 6909   0.984   6.975   9.926  0.0891 -0.1761  0.1726
  432loPI   C2B 6910   0.867   6.597   9.864  0.0222  0.0937  0.0934
  432loPI   C3B 6911   0.913   6.496   9.397 -0.0242  0.3999 -0.0515
  432loPI   C4B 6912   0.883   6.162   9.184  0.0545  0.0829 -0.0286
  433loPI    C1 6913  13.127   2.389  10.166 -0.1486  0.1662  0.2490
  433loPI    C2 6914  13.484   2.495  10.310 -0.0434  0.1287  0.0202
  433loPI    C3 6915  13.388   2.108  10.280  0.0820  0.1225 -0.3508
  433loPI   PO4 6916  13.154   2.474   9.956  0.0820  0.1099 -0.2048
  433loPI   GL1 6917  12.991   2.927   9.676  0.1998  0.0834  0.0613
  433loPI   GL2 6918  13.253   2.805   9.530 -0.5272  0.2930 -0.1414
  433loPI   C1A 6919  12.867   2.878   9.219  0.1161  0.1179  0.0288
  433loPI   C2A 6920  12.767   2.913   8.814 -0.0076  0.0606  0.1556
  433loPI   C3A 6921  12.520   3.083   8.423  0.1353  0.2452  0.1741
  433loPI   C4A 6922  12.642   3.009   8.024  0.0336 -0.0367  0.1539
  433loPI   C5A 6923  12.837   3.284   7.733 -0.2335 -0.1465  0.0666
  433loPI   C6A 6924  13.007   3.690   7.544  0.1917  0.0311 -0.0844
  433loPI   C1B 6925  13.310   2.855   9.054 -0.1200 -0.0058  0.1999
  433loPI   C2B 6926  13.284   2.751   8.583  0.1930 -0.0377  0.1123
  433loPI   C3B 6927  13.129   2.717   8.170  0.2995 -0.1488 -0.0527
  433loPI   C4B 6928  13.273   2.937   7.912 -0.0613  0.0649  0.0851
  434loPI    C1 6929  13.038   5.279  10.449  0.1984  0.1008  0.1525
  434loPI    C2 6930  13.419   5.208  10.351  0.1171 -0.1747  0.0278
  434loPI    C3 6931  13.327   5.521  10.582  0.3846  0.0790 -0.2024
  434loPI   PO4 6932  12.887   5.343  10.269 -0.0805 -0.1871 -0.2102
  434loPI   GL1 6933  12.609   5.198   9.914  0.0287  0.1276  0.2552
  434loPI   GL2 6934  12.550   4.894   9.859 -0.2553  0.1612 -0.1507
  434loPI   C1A 6935  12.720   5.283   9.412 -0.0207  0.1005 -0.0558
  434loPI   C2A 6936  12.881   5.658   9.153 -0.0853 -0.1247  0.2108
  434loPI   C3A 6937  12.932   6.016   8.987 -0.5046 -0.0705  0.3232
  434loPI   C4A 6938  13.004   5.968   8.583  0.0631  0.1118  0.0917
  434loPI   C5A 6939  13.241   6.138   8.341  0.0639 -0.2440 -0.0299
  434loPI   C6A 6940  13.606   5.858   8.351 -0.1316  0.0469 -0.1306
  434loPI   C1B 6941  12.554   4.810   9.416  0.3513  0.2480 -0.2001
  434loPI   C2B 6942  12.705   4.975   8.981 -0.0385 -0.0242  0.1356
  434loPI   C3B 6943  12.576   5.012   8.540 -0.0954 -0.0854 -0.1918
  434loPI   C4B 6944  12.512   5.398   8.309 -0.1425  0.4693  0.1483
  435loPI    C1 6945   9.997  18.473  10.451 -0.0199  0.0425  0.2168
  435loPI    C2 6946  10.275  18.592  10.712 -0.0933  0.1730  0.2365
  435loPI    C3 6947   9.932  18.434  10.844 -0.2303  0.4581  0.2288
  435loPI   PO4 6948  10.057  18.620  10.233 -0.1847 -0.0029  0.0678
  435loPI   GL1 6949   9.916  18.729   9.764  0.1564 -0.0193 -0.2237
  435loPI   GL2 6950  10.267  18.788   9.709  0.0890 -0.2918 -0.0220
  435loPI   C1A 6951   9.747  18.463   9.411 -0.2122 -0.0726  0.2854
  435loPI   C2A 6952   9.949  18.436   9.000 -0.0628  0.0999 -0.1458
  435loPI   C3A 6953   9.996  18.414   8.608  0.3030  0.1561 -0.1413
  435loPI   C4A 6954  10.163  18.375   8.189  0.0163  0.0952 -0.2597
  435loPI   C5A 6955  10.540  18.458   7.909  0.1895 -0.0471 -0.0711
  435loPI   C6A 6956  10.473  18.744   7.566 -0.4713 -0.0785  0.1585
  435loPI   C1B 6957  10.031  18.935   9.286 -0.3147 -0.0760 -0.1178
  435loPI   C2B 6958   9.959  19.160   8.955  0.0670  0.1803  0.0645
  435loPI   C3B 6959  10.081  19.083   8.545 -0.2716  0.3023 -0.0049
  435loPI   C4B 6960  10.041  19.146   8.062  0.0677  0.1476 -0.0664
  436loPI    C1 6961   0.084  16.017  10.356  0.1359 -0.0706 -0.0713
  436loPI    C2 6962   0.443  15.887  10.475 -0.0028 -0.1214  0.3019
  436loPI    C3 6963   0.125  15.844  10.714 -0.2586 -0.0733 -0.0237
  436loPI   PO4 6964   0.211  16.077  10.059 -0.0233  0.1451 -0.0399
  436loPI   GL1 6965   0.532  16.027   9.809 -0.1959  0.2065 -0.1264
  436loPI   GL2 6966   0.558  15.647   9.984 -0.3329  0.1198  0.2050
  436loPI   C1A 6967   0.634  15.994   9.414  0.3728 -0.2532  0.2993
  436loPI   C2A 6968   0.597  16.013   8.923 -0.1982  0.1544 -0.0693
  436loPI   C3A 6969   0.653  15.932   8.473  0.3103 -0.0905 -0.2303
  436loPI   C4A 6970   0.570  15.803   8.022 -0.1259  0.1868 -0.2745
  436loPI   C5A 6971   0.313  15.863   7.595 -0.0950  0.3191 -0.1049
  436loPI   C6A 6972  -0.045  16.107   7.612 -0.1927 -0.1351  0.3094
  436loPI   C1B 6973   0.770  15.583   9.573  0.1229 -0.0851 -0.0322
  436loPI   C2B 6974   0.643  15.602   9.130 -0.1438  0.0871 -0.0782
  436loPI   C3B 6975   0.611  15.454   8.735 -0.0615  0.0887  0.1761
  436loPI   C4B 6976   0.470  15.450   8.334  0.1641 -0.0768  0.1841
  437loPI    C1 6977   9.853  12.896  10.310 -0.0287  0.1962 -0.1382
  437loPI    C2 6978   9.754  12.632  10.594 -0.1712  0.2382 -0.1479
  437loPI    C3 6979   9.925  12.980  10.695 -0.1251  0.2082 -0.1225
  437loPI   PO4 6980   9.977  12.768  10.176  0.2714 -0.1957  0.3813
  437loPI   GL1 6981  10.151  12.941   9.829  0.1978  0.2700 -0.1576
  437loPI   GL2 6982   9.892  13.209   9.864  0.3219 -0.0569  0.1340
  437loPI   C1A 6983  10.101  13.061   9.444 -0.5268  0.2426  0.0211
  437loPI   C2A 6984  10.103  13.117   8.934  0.2488 -0.1151 -0.1984
  437loPI   C3A 6985  10.146  13.088   8.523  0.2001  0.1365 -0.1605
  437loPI   C4A 6986   9.983  13.112   8.108  0.0347  0.0936  0.0310
  437loPI   C5A 6987   9.725  13.057   7.749 -0.3763  0.1796 -0.4645
  437loPI   C6A 6988   9.398  12.894   7.546  0.0498  0.2347  0.0205
  437loPI   C1B 6989   9.558  13.190   9.596  0.0293 -0.2190 -0.3328
  437loPI   C2B 6990   9.314  13.382   9.283 -0.0526  0.0079  0.2151
  437loPI   C3B 6991   9.344  13.327   8.885 -0.1626 -0.1435 -0.0942
  437loPI   C4B 6992   9.322  13.526   8.550 -0.2518 -0.1498  0.2119
  438loPI    C1 6993   8.136  10.146  10.886 -0.0185  0.1438  0.0123
  438loPI    C2 6994   8.295  10.308  11.216 -0.0755  0.0800  0.0715
  438loPI    C3 6995   8.127   9.945  11.233  0.2044 -0.0604 -0.0974
  438loPI   PO4 6996   8.132  10.297  10.695 -0.2681 -0.1571 -0.2905
  438loPI   GL1 6997   8.236  10.187  10.221  0.3842 -0.0844  0.0002
  438loPI   GL2 6998   8.272   9.843  10.029 -0.0760 -0.0531  0.3345
  438loPI   C1A 6999   8.144  10.286   9.726  0.0698 -0.1986 -0.0224
  438loPI   C2A 7000   7.849  10.275   9.465 -0.0169  0.1896 -0.0978
  438loPI   C3A 7001   7.837  10.445   9.077  0.1577 -0.0135  0.1066
  438loPI   C4A 7002   7.838  10.620   8.673 -0.0306 -0.3338  0.1125
  438loPI   C5A 7003   8.035  10.584   8.228  0.1290  0.1005  0.1308
  438loPI   C6A 7004   8.245  10.196   7.970 -0.1386 -0.0175 -0.0854
  438loPI   C1B 7005   8.415   9.891   9.630  0.0980 -0.2161 -0.1612
  438loPI   C2B 7006   8.227  10.053   9.168  0.0687 -0.0804 -0.2973
  438loPI   C3B 7007   8.075  10.130   8.799 -0.0046  0.1617 -0.0771
  438loPI   C4B 7008   7.888  10.120   8.342 -0.0509 -0.1028  0.1987
  439loPI    C1 7009  11.972  11.119  10.233 -0.1097 -0.0090  0.1028
  439loPI    C2 7010  11.959  10.827  10.506  0.1014  0.0101  0.1348
  439loPI    C3 7011  12.304  11.017  10.432  0.0002  0.1440  0.0008
  439loPI   PO4 7012  11.973  10.979  10.016 -0.0954 -0.0474  0.1406
  439loPI   GL1 7013  12.184  11.017   9.604  0.0152 -0.0926 -0.1408
  439loPI   GL2 7014  12.106  10.695   9.396  0.0587  0.0249 -0.0801
  439loPI   C1A 7015  12.093  11.105   9.148 -0.2818  0.0358 -0.2231
  439loPI   C2A 7016  12.164  11.151   8.733 -0.0574 -0.0327  0.1868
  439loPI   C3A 7017  12.307  10.970   8.399 -0.1243 -0.0780 -0.1540
  439loPI   C4A 7018  12.586  11.080   8.053  0.1093  0.1062  0.0025
  439loPI   C5A 7019  12.689  11.187   7.659  0.3085  0.3995 -0.0108
  439loPI   C6A 7020  12.558  11.167   7.300 -0.1846  0.2933 -0.1184
  439loPI   C1B 7021  12.271  10.686   8.954 -0.1210 -0.1494 -0.1474
  439loPI   C2B 7022  12.566  10.552   8.588  0.1690  0.1636 -0.4943
  439loPI   C3B 7023  12.813  10.791   8.346 -0.2946  0.0554  0.1964
  439loPI   C4B 7024  13.294  10.752   8.328  0.3641 -0.3737 -0.2986
  440loPI    C1 7025   4.780  17.815   9.620  0.0090 -0.0804  0.1270
  440loPI    C2 7026   5.128  17.978   9.511  0.0706 -0.1330  0.2433
  440loPI    C3 7027   5.077  17.848   9.886 -0.0483 -0.1948  0.2063
  440loPI   PO4 7028   4.645  17.885   9.450 -0.2625  0.0100  0.1232
  440loPI   GL1 7029   4.625  17.922   9.048  0.1647 -0.2147  0.3003
  440loPI   GL2 7030   4.904  17.852   9.054 -0.0541 -0.1719 -0.0860
  440loPI   C1A 7031   4.327  17.921   8.676  0.2514 -0.0181  0.1393
  440loPI   C2A 7032   4.193  17.784   8.215  0.1761 -0.2218  0.2950
  440loPI   C3A 7033   4.123  17.643   7.824  0.0186 -0.1661 -0.1583
  440loPI   C4A 7034   4.379  17.720   7.488 -0.2692 -0.3203 -0.2336
  440loPI   C5A 7035   4.847  17.730   7.394  0.1926 -0.2112  0.1763
  440loPI   C6A 7036   5.167  17.478   7.158  0.1598  0.0844  0.0951
  440loPI   C1B 7037   4.828  17.714   8.680 -0.0227 -0.0143 -0.0643
  440loPI   C2B 7038   5.011  17.564   8.401  0.0167 -0.0580 -0.0455
  440loPI   C3B 7039   5.051  17.727   7.921  0.1075 -0.1083 -0.0704
  440loPI   C4B 7040   5.018  18.072   7.691  0.0500  0.3890  0.0153
  441loPI    C1 7041   4.078  13.393  10.532 -0.0600  0.1999  0.1467
  441loPI    C2 7042   4.311  13.131  10.725 -0.1025 -0.1685 -0.2854
  441loPI    C3 7043   4.390  13.523  10.745  0.2408 -0.2476 -0.0078
  441loPI   PO4 7044   4.069  13.253  10.262  0.0730  0.1181  0.2286
  441loPI   GL1 7045   3.849  13.148   9.852  0.0924 -0.1730 -0.1224
  441loPI   GL2 7046   3.765  12.781   9.769 -0.0215 -0.4921 -0.0036
  441loPI   C1A 7047   3.785  13.313   9.345 -0.2763  0.1712 -0.0339
  441loPI   C2A 7048   3.696  13.304   8.873 -0.1640  0.0350  0.0781
  441loPI   C3A 7049   3.758  13.147   8.452 -0.0080  0.0702 -0.1003
  441loPI   C4A 7050   3.970  12.984   8.119  0.2250 -0.1268  0.0836
  441loPI   C5A 7051   4.143  12.969   7.683 -0.1190  0.0381  0.3164
  441loPI   C6A 7052   4.010  12.760   7.374 -0.0633  0.1897 -0.0764
  441loPI   C1B 7053   3.785  12.830   9.340 -0.1287 -0.0627  0.3805
  441loPI   C2B 7054   3.852  12.824   8.907  0.1583 -0.2384  0.0198
  441loPI   C3B 7055   3.754  12.593   8.466  0.2779 -0.0520 -0.2791
  441loPI   C4B 7056   3.474  12.595   8.094  0.0899 -0.0823 -0.0586
  442loPI    C1 7057   0.639  14.576  10.559  0.2733 -0.0829  0.0373
  442loPI    C2 7058   0.367  14.839  10.687 -0.1357 -0.3878 -0.1833
  442loPI    C3 7059   0.608  14.657  10.949  0.1362  0.1776 -0.0255
  442loPI   PO4 7060   0.703  14.701  10.335  0.1144 -0.0743  0.2639
  442loPI   GL1 7061   0.705  14.833   9.939 -0.1416 -0.1061 -0.1306
  442loPI   GL2 7062   0.479  14.606   9.854  0.2029 -0.3214 -0.0365
  442loPI   C1A 7063   0.502  15.185   9.793  0.0654  0.1047  0.0650
  442loPI   C2A 7064   0.278  15.309   9.433  0.1159  0.1713 -0.1025
  442loPI   C3A 7065   0.196  15.302   9.125 -0.0523  0.2894  0.0347
  442loPI   C4A 7066   0.137  15.262   8.683  0.0592  0.0596  0.1689
  442loPI   C5A 7067   0.037  15.202   8.248 -0.2767  0.1098  0.2886
  442loPI   C6A 7068  -0.304  15.214   7.931  0.0325  0.0978  0.1388
  442loPI   C1B 7069   0.406  14.813   9.403  0.2318 -0.0705  0.0162
  442loPI   C2B 7070   0.208  14.750   8.915  0.0330 -0.0993  0.1066
  442loPI   C3B 7071   0.017  14.767   8.451 -0.0684  0.0242  0.2820
  442loPI   C4B 7072   0.169  14.789   8.016 -0.1039  0.2763  0.0733
  443loPI    C1 7073   8.666   2.711  10.388 -0.0948  0.1281  0.0026
  443loPI    C2 7074   8.374   2.514  10.198 -0.0402  0.1422 -0.0962
  443loPI    C3 7075   8.365   2.548  10.596 -0.1957  0.1790 -0.1021
  443loPI   PO4 7076   8.827   2.655  10.317 -0.0767 -0.4925  0.1060
  443loPI   GL1 7077   9.017   2.662   9.820  0.1750  0.1330 -0.2155
  443loPI   GL2 7078   8.763   2.520   9.804 -0.0381  0.0904  0.0356
  443loPI   C1A 7079   9.040   2.651   9.442 -0.0100  0.1676  0.1401
  443loPI   C2A 7080   9.109   2.690   8.916  0.2114  0.0115 -0.1822
  443loPI   C3A 7081   9.190   2.617   8.475  0.0140  0.1428 -0.1797
  443loPI   C4A 7082   9.174   2.581   8.034  0.2200 -0.0965  0.0952
  443loPI   C5A 7083   9.108   2.528   7.601 -0.0861 -0.0719  0.1783
  443loPI   C6A 7084   9.152   2.186   7.278  0.2072 -0.2712 -0.1730
  443loPI   C1B 7085   8.610   2.408   9.324  0.0920 -0.1689 -0.1080
  443loPI   C2B 7086   8.616   2.223   8.999  0.1218  0.1497  0.3704
  443loPI   C3B 7087   8.744   2.146   8.564  0.1126  0.2012 -0.0643
  443loPI   C4B 7088   8.990   2.078   8.228  0.0977 -0.2342 -0.0650
  444loPI    C1 7089  11.738  16.484  10.291 -0.1359  0.0573 -0.0173
  444loPI    C2 7090  11.833  16.523  10.678  0.0133  0.1221 -0.0597
  444loPI    C3 7091  11.453  16.564  10.560  0.0165  0.4546  0.0333
  444loPI   PO4 7092  11.764  16.188  10.162 -0.2184 -0.0150  0.6174
  444loPI   GL1 7093  11.796  16.005   9.667  0.1746 -0.1081  0.1061
  444loPI   GL2 7094  12.106  16.091   9.719  0.0148  0.1374 -0.0794
  444loPI   C1A 7095  11.904  16.076   9.208 -0.0022  0.0007  0.0602
  444loPI   C2A 7096  11.932  15.984   8.771 -0.2069  0.2502 -0.0412
  444loPI   C3A 7097  11.899  15.838   8.366  0.0056  0.1514  0.1870
  444loPI   C4A 7098  12.097  16.048   7.911  0.0049  0.1417 -0.1107
  444loPI   C5A 7099  12.483  16.087   7.707  0.2460  0.1246  0.0131
  444loPI   C6A 7100  12.901  16.020   7.493  0.1331 -0.1072  0.1567
  444loPI   C1B 7101  12.384  15.866   9.396  0.0883 -0.1800  0.1887
  444loPI   C2B 7102  12.427  15.825   8.878  0.1335  0.0686 -0.0306
  444loPI   C3B 7103  12.460  15.670   8.521  0.2452  0.4601 -0.2781
  444loPI   C4B 7104  12.660  15.582   8.142  0.7619  0.2207 -0.0823
  445loPI    C1 7105   2.851   8.373  10.278 -0.0083 -0.0335 -0.1043
  445loPI    C2 7106   2.773   8.075  10.533 -0.0455  0.0170 -0.0565
  445loPI    C3 7107   2.982   8.394  10.655 -0.0779  0.0490 -0.0842
  445loPI   PO4 7108   2.731   8.255  10.101 -0.0465 -0.2437 -0.0214
  445loPI   GL1 7109   2.536   8.164   9.761 -0.5143  0.0161 -0.2749
  445loPI   GL2 7110   2.389   7.858   9.840 -0.1434  0.0511  0.0382
  445loPI   C1A 7111   2.704   7.926   9.352  0.0207 -0.0362 -0.1709
  445loPI   C2A 7112   2.942   7.789   9.099  0.2821 -0.4996  0.1892
  445loPI   C3A 7113   3.375   7.786   8.848 -0.0021  0.0283  0.0449
  445loPI   C4A 7114   3.635   7.995   8.568 -0.1174 -0.2556 -0.0067
  445loPI   C5A 7115   3.586   8.100   8.173 -0.2749 -0.1756 -0.2104
  445loPI   C6A 7116   3.493   7.754   7.787 -0.0165  0.4102 -0.1874
  445loPI   C1B 7117   2.304   7.666   9.461 -0.1322 -0.0309  0.1050
  445loPI   C2B 7118   2.318   7.757   9.103 -0.0766 -0.0289  0.1699
  445loPI   C3B 7119   2.502   7.810   8.787  0.1734  0.1788  0.1212
  445loPI   C4B 7120   2.569   7.915   8.364  0.0407 -0.1669 -0.0822
  446loPI    C1 7121   6.394   6.979  10.392  0.0281 -0.1255 -0.0777
  446loPI    C2 7122   6.304   6.807  10.042  0.0103 -0.1435 -0.0643
  446loPI    C3 7123   6.305   6.589  10.378  0.1395 -0.1515 -0.0696
  446loPI   PO4 7124   6.599   7.110  10.350  0.0526 -0.2490  0.2709
  446loPI   GL1 7125   6.996   7.381  10.057  0.1925 -0.1885  0.2327
  446loPI   GL2 7126   6.775   7.198   9.925 -0.0368 -0.1996 -0.1931
  446loPI   C1A 7127   7.209   7.198   9.703 -0.3474 -0.0122 -0.0998
  446loPI   C2A 7128   7.339   7.222   9.310  0.1014 -0.2026 -0.4156
  446loPI   C3A 7129   7.295   7.442   8.907  0.1401  0.1899 -0.1726
  446loPI   C4A 7130   7.450   7.669   8.559 -0.0218 -0.3387  0.5262
  446loPI   C5A 7131   7.357   7.846   8.190  0.0503  0.2800  0.2150
  446loPI   C6A 7132   7.295   8.227   7.996 -0.0303 -0.1622  0.1142
  446loPI   C1B 7133   6.742   7.248   9.426 -0.0015  0.2401  0.0005
  446loPI   C2B 7134   6.749   7.326   9.005 -0.0337 -0.2827 -0.1270
  446loPI   C3B 7135   6.519   7.366   8.688  0.0796 -0.0674  0.2658
  446loPI   C4B 7136   6.606   7.278   8.357  0.4482  0.3087 -0.1015
  447loPI    C1 7137   9.489  13.677  10.514 -0.1027  0.2786  0.1171
  447loPI    C2 7138   9.481  13.653  10.913 -0.3308 -0.1043  0.0951
  447loPI    C3 7139   9.521  13.321  10.694  0.0366  0.1265 -0.2001
  447loPI   PO4 7140   9.643  13.869  10.388 -0.2525 -0.0841  0.0432
  447loPI   GL1 7141   9.752  13.811   9.954 -0.2098 -0.1889 -0.0084
  447loPI   GL2 7142   9.472  14.014   9.866 -0.1035  0.0315 -0.1550
  447loPI   C1A 7143   9.830  13.622   9.585  0.1342 -0.1015 -0.0248
  447loPI   C2A 7144   9.804  13.474   9.239 -0.0201 -0.0068 -0.2454
  447loPI   C3A 7145   9.789  13.453   8.747 -0.1264  0.3851  0.1373
  447loPI   C4A 7146   9.784  13.513   8.356 -0.0552  0.0563 -0.3314
  447loPI   C5A 7147   9.584  13.513   8.039  0.2657  0.1553 -0.0510
  447loPI   C6A 7148   9.462  13.877   7.761 -0.2663 -0.2474 -0.0931
  447loPI   C1B 7149   9.312  13.881   9.478  0.0548 -0.2103 -0.0649
  447loPI   C2B 7150   9.467  13.831   9.067  0.1066  0.1464  0.0994
  447loPI   C3B 7151   9.339  13.971   8.676  0.1036 -0.0443  0.3381
  447loPI   C4B 7152   9.373  13.975   8.274 -0.1650 -0.0082 -0.0021
  448loPI    C1 7153   7.860   1.820  10.155 -0.1332 -0.0001 -0.0291
  448loPI    C2 7154   7.464   1.840  10.100 -0.1771 -0.0318  0.2619
  448loPI    C3 7155   7.615   1.604  10.386  0.0663 -0.1977  0.0017
  448loPI   PO4 7156   7.945   1.853   9.951  0.1303 -0.1187 -0.4205
  448loPI   GL1 7157   7.968   1.693   9.535 -0.3053 -0.0047  0.1525
  448loPI   GL2 7158   8.279   1.530   9.407  0.0622  0.1807  0.0544
  448loPI   C1A 7159   7.890   1.607   9.070 -0.2396  0.1090 -0.2130
  448loPI   C2A 7160   7.878   1.719   8.666  0.1017 -0.0011 -0.2162
  448loPI   C3A 7161   7.820   1.420   8.407 -0.0158  0.0552 -0.3116
  448loPI   C4A 7162   7.724   1.368   8.002  0.0621 -0.2118  0.0918
  448loPI   C5A 7163   7.882   1.684   7.724  0.3100 -0.3363  0.1147
  448loPI   C6A 7164   7.987   2.116   7.630 -0.2558 -0.1462 -0.2366
  448loPI   C1B 7165   8.446   1.447   9.003 -0.0353 -0.0029  0.0397
  448loPI   C2B 7166   8.378   1.404   8.616 -0.1947  0.0746  0.1646
  448loPI   C3B 7167   8.252   1.431   8.162  0.0290  0.2042  0.0992
  448loPI   C4B 7168   8.139   1.232   7.782 -0.3258  0.0138  0.0045
  449loPI    C1 7169   5.660  12.303  10.455  0.1231 -0.0512  0.0229
  449loPI    C2 7170   5.580  11.924  10.552  0.3205 -0.1061 -0.0238
  449loPI    C3 7171   5.734  12.172  10.825 -0.0451  0.0131  0.0803
  449loPI   PO4 7172   5.769  12.219  10.062 -0.2236 -0.1405  0.0822
  449loPI   GL1 7173   5.876  11.998   9.708 -0.0007 -0.0963 -0.1793
  449loPI   GL2 7174   5.651  12.302   9.542  0.5692 -0.0219 -0.0808
  449loPI   C1A 7175   6.066  11.915   9.321  0.1989  0.0425  0.1105
  449loPI   C2A 7176   5.982  12.026   8.946 -0.0921 -0.1772 -0.0946
  449loPI   C3A 7177   6.017  11.851   8.501 -0.2406 -0.1989 -0.3044
  449loPI   C4A 7178   5.993  11.926   8.067  0.0531  0.0834  0.1114
  449loPI   C5A 7179   5.705  12.095   7.806 -0.2419 -0.0868  0.0182
  449loPI   C6A 7180   5.574  12.338   7.506 -0.0557  0.2705 -0.0451
  449loPI   C1B 7181   5.620  12.305   9.138  0.2078 -0.1235 -0.0698
  449loPI   C2B 7182   5.560  12.221   8.747 -0.0511 -0.0409  0.0917
  449loPI   C3B 7183   5.632  12.339   8.255 -0.1371  0.1406 -0.1621
  449loPI   C4B 7184   5.443  12.664   7.912 -0.1784  0.1971  0.2529
  450loPI    C1 7185   4.859  13.801  10.297  0.2793  0.0119  0.2840
  450loPI    C2 7186   4.953  14.186  10.347  0.2432  0.0416  0.1296
  450loPI    C3 7187   4.632  14.034  10.531  0.1704  0.1230  0.0710
  450loPI   PO4 7188   4.831  13.777  10.087 -0.0092  0.1769  0.0139
  450loPI   GL1 7189   4.815  13.756   9.597  0.1203  0.3111  0.0195
  450loPI   GL2 7190   4.724  14.075   9.571  0.0870  0.2752  0.3436
  450loPI   C1A 7191   4.617  13.805   9.125  0.2232 -0.2345 -0.1351
  450loPI   C2A 7192   4.667  13.685   8.665  0.1043  0.0820  0.1135
  450loPI   C3A 7193   4.953  13.575   8.351 -0.4164  0.2692 -0.1137
  450loPI   C4A 7194   5.218  13.603   8.122  0.0308 -0.1924 -0.1114
  450loPI   C5A 7195   5.050  13.846   7.712 -0.1550 -0.1270 -0.0284
  450loPI   C6A 7196   5.036  13.542   7.461 -0.2994 -0.2472  0.1189
  450loPI   C1B 7197   4.285  14.133   9.461 -0.2765  0.7134  0.3171
  450loPI   C2B 7198   4.024  14.088   9.099  0.0549 -0.2674 -0.1435
  450loPI   C3B 7199   3.972  14.102   8.676  0.2520 -0.1974 -0.0856
  450loPI   C4B 7200   3.973  13.997   8.165 -0.0392  0.0477  0.2944
  451loPI    C1 7201  13.154   4.357  10.220 -0.2427 -0.0113 -0.1099
  451loPI    C2 7202  13.268   4.604  10.514 -0.0599 -0.1390 -0.0717
  451loPI    C3 7203  13.177   4.223  10.596 -0.2912 -0.0999 -0.1380
  451loPI   PO4 7204  13.350   4.395  10.061 -0.0146 -0.0606 -0.0428
  451loPI   GL1 7205  13.456   4.291   9.569  0.1242 -0.1748 -0.0944
  451loPI   GL2 7206  13.436   4.566   9.571  0.1747  0.3097  0.2193
  451loPI   C1A 7207  13.274   4.157   9.166  0.0956 -0.0906 -0.2697
  451loPI   C2A 7208  13.080   4.284   8.780 -0.1271  0.1466  0.2715
  451loPI   C3A 7209  13.348   4.445   8.441  0.0726 -0.1413  0.0993
  451loPI   C4A 7210  13.357   4.380   7.980 -0.2947 -0.3886 -0.0864
  451loPI   C5A 7211  13.413   4.055   7.516 -0.2466  0.0353 -0.1386
  451loPI   C6A 7212  13.653   3.675   7.491 -0.0350 -0.3718 -0.0480
  451loPI   C1B 7213  13.619   4.891   9.203 -0.1492 -0.1504 -0.0734
  451loPI   C2B 7214  13.656   5.237   8.790 -0.2784 -0.1629 -0.2030
  451loPI   C3B 7215  13.812   5.605   8.744 -0.0295  0.0833  0.0252
  451loPI   C4B 7216  14.172   5.821   8.654 -0.0726  0.0357 -0.1552
  452loPI    C1 7217  12.349   3.962  10.275  0.4131 -0.0433 -0.2339
  452loPI    C2 7218  12.698   4.142  10.351  0.2210  0.0890  0.3882
  452loPI    C3 7219  12.367   4.256  10.546 -0.1392 -0.1586 -0.0586
  452loPI   PO4 7220  12.181   3.866   9.967 -0.0336  0.0535  0.0325
  452loPI   GL1 7221  12.005   3.806   9.570  0.3932 -0.0673 -0.2649
  452loPI   GL2 7222  11.754   3.929   9.717  0.0907 -0.2055  0.2837
  452loPI   C1A 7223  12.239   3.641   9.142 -0.3367  0.3866 -0.2288
  452loPI   C2A 7224  12.216   3.626   8.728 -0.1485  0.1410 -0.0018
  452loPI   C3A 7225  12.148   3.460   8.356 -0.1239 -0.0073 -0.0338
  452loPI   C4A 7226  12.625   3.479   8.146 -0.0188  0.2097  0.0795
  452loPI   C5A 7227  12.977   3.748   8.096  0.0689 -0.0767  0.0688
  452loPI   C6A 7228  13.089   4.070   8.349  0.1187  0.3054 -0.0790
  452loPI   C1B 7229  11.463   3.811   9.451  0.1902  0.2198 -0.1718
  452loPI   C2B 7230  11.295   3.868   9.008  0.2415 -0.0332  0.1014
  452loPI   C3B 7231  11.310   3.848   8.596  0.1197  0.0482  0.1547
  452loPI   C4B 7232  11.377   3.978   8.158  0.1149  0.0318  0.2584
  453loPI    C1 7233   3.215   7.920  10.349  0.3445 -0.1561 -0.0820
  453loPI    C2 7234   3.264   7.903  10.746  0.1569  0.2243 -0.0387
  453loPI    C3 7235   3.054   7.619  10.558  0.0625  0.1583  0.1641
  453loPI   PO4 7236   3.240   8.024  10.136  0.0861  0.1811  0.0982
  453loPI   GL1 7237   3.231   7.657   9.742 -0.2114 -0.2662  0.0453
  453loPI   GL2 7238   2.917   7.631   9.694  0.0915  0.1717  0.1337
  453loPI   C1A 7239   3.395   7.507   9.352  0.3292  0.2177  0.1404
  453loPI   C2A 7240   3.250   7.337   8.991  0.0599 -0.0731  0.2688
  453loPI   C3A 7241   3.024   7.457   8.697  0.0763  0.1331 -0.0475
  453loPI   C4A 7242   2.852   7.506   8.291  0.1101  0.0531  0.3838
  453loPI   C5A 7243   2.667   7.578   7.887 -0.1149 -0.0018 -0.2428
  453loPI   C6A 7244   2.244   7.742   7.792  0.2562 -0.1381 -0.2559
  453loPI   C1B 7245   2.804   7.377   9.376 -0.2281  0.1023  0.0055
  453loPI   C2B 7246   2.617   7.305   8.966  0.1711 -0.1853 -0.0867
  453loPI   C3B 7247   2.185   7.158   8.829 -0.0038 -0.1323  0.0358
  453loPI   C4B 7248   2.064   7.014   8.445  0.2224 -0.5212  0.5016
  454loPI    C1 7249   8.047  13.508  10.218  0.2297 -0.0299  0.1790
  454loPI    C2 7250   7.989  13.139  10.361  0.1438 -0.1049 -0.0453
  454loPI    C3 7251   7.679  13.387  10.318  0.1955 -0.0204  0.0664
  454loPI   PO4 7252   8.138  13.535  10.024 -0.0209 -0.1954  0.0356
  454loPI   GL1 7253   8.480  13.606   9.854 -0.1762 -0.1123  0.0955
  454loPI   GL2 7254   8.696  13.543   9.965 -0.3126 -0.0091 -0.1801
  454loPI   C1A 7255   8.458  13.653   9.388 -0.1850 -0.3241  0.0514
  454loPI   C2A 7256   8.431  13.600   8.951 -0.0180  0.1511  0.0038
  454loPI   C3A 7257   8.447  13.656   8.563  0.0924 -0.1610 -0.3211
  454loPI   C4A 7258   8.483  13.696   8.188 -0.0682 -0.0792 -0.0685
  454loPI   C5A 7259   8.519  13.702   7.797  0.0252 -0.0050  0.2327
  454loPI   C6A 7260   8.372  13.744   7.370 -0.2089  0.2573 -0.2464
  454loPI   C1B 7261   9.019  13.484   9.689  0.2870  0.3358 -0.1297
  454loPI   C2B 7262   8.790  13.266   9.487  0.0120 -0.0824  0.0633
  454loPI   C3B 7263   8.791  13.332   9.100  0.1835  0.1969  0.2990
  454loPI   C4B 7264   8.814  13.296   8.713 -0.1193  0.0162  0.3329
  455loPI    C1 7265   3.571  17.460  10.274  0.1905 -0.2162  0.4153
  455loPI    C2 7266   3.641  17.115  10.084 -0.2235  0.0415 -0.2436
  455loPI    C3 7267   3.367  17.132  10.376 -0.0604 -0.2205 -0.0706
  455loPI   PO4 7268   3.465  17.618  10.084 -0.0013 -0.1243 -0.0838
  455loPI   GL1 7269   3.285  17.579   9.658  0.0331 -0.2104 -0.0523
  455loPI   GL2 7270   2.979  17.735   9.596 -0.0923 -0.2231 -0.2311
  455loPI   C1A 7271   3.243  17.542   9.099 -0.0587 -0.0904 -0.0605
  455loPI   C2A 7272   3.163  17.771   8.738  0.1438  0.2800 -0.0080
  455loPI   C3A 7273   2.864  17.619   8.314  0.0713  0.0404  0.1085
  455loPI   C4A 7274   2.695  17.669   7.887  0.0613  0.3510 -0.1824
  455loPI   C5A 7275   2.404  17.486   7.643 -0.1060  0.3041 -0.0137
  455loPI   C6A 7276   2.185  17.145   7.564 -0.0715 -0.1878  0.0664
  455loPI   C1B 7277   2.831  17.776   9.127 -0.3998  0.2548 -0.1105
  455loPI   C2B 7278   2.614  17.784   8.741 -0.1144 -0.2707  0.2345
  455loPI   C3B 7279   2.398  17.924   8.397 -0.0351  0.1185 -0.2608
  455loPI   C4B 7280   2.222  17.848   7.922 -0.2372  0.2332  0.0552
  456loPI    C1 7281  13.080   3.300  10.251 -0.0948  0.2186  0.1792
  456loPI    C2 7282  12.985   2.912  10.254 -0.1000  0.2188  0.0838
  456loPI    C3 7283  13.306   3.041  10.456  0.1441  0.1018 -0.2208
  456loPI   PO4 7284  13.069   3.329   9.990  0.0889  0.1317  0.0805
  456loPI   GL1 7285  13.070   3.574   9.713  0.1633  0.1249 -0.1425
  456loPI   GL2 7286  13.271   3.343   9.490 -0.1751  0.0443  0.0399
  456loPI   C1A 7287  12.977   3.752   9.358 -0.0750  0.2005 -0.0982
  456loPI   C2A 7288  12.753   3.928   9.009 -0.0992 -0.0808  0.3698
  456loPI   C3A 7289  12.364   4.081   8.700 -0.0548  0.0047 -0.0626
  456loPI   C4A 7290  12.133   4.037   8.388 -0.1407  0.1390  0.1384
  456loPI   C5A 7291  12.199   3.766   7.978 -0.1746 -0.2180 -0.0906
  456loPI   C6A 7292  12.105   3.374   7.862  0.0687  0.2867  0.3226
  456loPI   C1B 7293  13.116   3.300   9.036  0.0095  0.2168 -0.2430
  456loPI   C2B 7294  13.094   3.231   8.656  0.0111  0.0492 -0.0414
  456loPI   C3B 7295  13.108   3.283   8.270 -0.2765 -0.1154 -0.1858
  456loPI   C4B 7296  13.271   3.423   7.862 -0.0088 -0.0358  0.0724
  457loPI    C1 7297   0.221  17.823  10.130  0.1968 -0.0834 -0.0845
  457loPI    C2 7298   0.207  18.144  10.368  0.1120 -0.0372 -0.1516
  457loPI    C3 7299  -0.120  17.920  10.314  0.1987 -0.1974 -0.0198
  457loPI   PO4 7300   0.462  17.841  10.016 -0.1694  0.0941 -0.1954
  457loPI   GL1 7301   0.501  17.774   9.672 -0.1438  0.1572  0.1547
  457loPI   GL2 7302   0.774  17.576   9.652  0.1323 -0.3437  0.1601
  457loPI   C1A 7303   0.510  17.843   9.170 -0.1781 -0.1705  0.1506
  457loPI   C2A 7304   0.311  17.976   8.869 -0.0007 -0.0447 -0.2618
  457loPI   C3A 7305   0.051  18.192   8.501  0.0793 -0.1736 -0.0778
  457loPI   C4A 7306  -0.183  18.476   8.248  0.1985  0.1734 -0.1303
  457loPI   C5A 7307   0.100  18.798   7.893 -0.1829 -0.2342  0.0166
  457loPI   C6A 7308   0.567  19.020   8.000  0.5303  0.0916 -0.1077
  457loPI   C1B 7309   0.654  17.392   9.265 -0.0050  0.1427 -0.0627
  457loPI   C2B 7310   0.501  17.345   8.924 -0.1762 -0.3256 -0.1206
  457loPI   C3B 7311   0.390  17.468   8.610 -0.1053 -0.0717  0.2729
  457loPI   C4B 7312   0.208  17.551   8.206 -0.0803  0.2934  0.0370
  458loPI    C1 7313  14.050   7.316  10.434 -0.0599  0.1507  0.0995
  458loPI    C2 7314  13.863   7.038  10.216 -0.0705  0.1316  0.1329
  458loPI    C3 7315  13.852   7.019  10.615 -0.0619  0.1737  0.1352
  458loPI   PO4 7316  14.239   7.462  10.199  0.2007 -0.0037 -0.0842
  458loPI   GL1 7317  14.306   7.737   9.765 -0.3533  0.1756 -0.1423
  458loPI   GL2 7318  14.222   8.139   9.831 -0.4982 -0.1692  0.1361
  458loPI   C1A 7319  14.195   7.928   9.440  0.0657 -0.1904 -0.0906
  458loPI   C2A 7320  14.567   7.901   9.098 -0.0444  0.1532  0.0151
  458loPI   C3A 7321  14.549   7.564   8.754  0.0082 -0.0476 -0.0670
  458loPI   C4A 7322  14.659   7.252   8.409  0.2364 -0.0361 -0.1124
  458loPI   C5A 7323  14.849   7.130   8.013 -0.0689  0.0239 -0.1283
  458loPI   C6A 7324  14.884   6.974   7.620  0.0307 -0.0375 -0.1287
  458loPI   C1B 7325  14.571   8.268   9.499 -0.0058  0.2294 -0.3815
  458loPI   C2B 7326  14.780   8.401   9.084 -0.0564  0.0941 -0.3656
  458loPI   C3B 7327  14.901   8.323   8.673  0.0541 -0.1901  0.5132
  458loPI   C4B 7328  14.846   8.225   8.258 -0.1020  0.0232 -0.2056
  459loPI    C1 7329   0.015   8.667  10.121  0.0965  0.0859 -0.0728
  459loPI    C2 7330  -0.210   8.521  10.419  0.0517 -0.1802 -0.2335
  459loPI    C3 7331   0.148   8.682  10.498 -0.0723 -0.0091 -0.0083
  459loPI   PO4 7332  -0.168   8.774   9.937 -0.1488  0.0841 -0.3023
  459loPI   GL1 7333  -0.253   8.775   9.522 -0.2603 -0.2908  0.0345
  459loPI   GL2 7334  -0.243   8.978   9.342  0.0207 -0.2190 -0.3107
  459loPI   C1A 7335  -0.096   8.477   9.227 -0.1751 -0.1475 -0.0592
  459loPI   C2A 7336  -0.143   8.442   8.811  0.3479  0.0844 -0.4324
  459loPI   C3A 7337  -0.153   8.065   8.642 -0.0081  0.2599  0.4108
  459loPI   C4A 7338  -0.112   7.805   8.254 -0.3863 -0.2908  0.0952
  459loPI   C5A 7339   0.176   7.436   7.996 -0.0801  0.0763  0.3776
  459loPI   C6A 7340   0.203   7.423   7.485 -0.2490  0.0254  0.1595
  459loPI   C1B 7341  -0.417   8.831   8.978 -0.2691  0.0504 -0.1246
  459loPI   C2B 7342  -0.420   8.745   8.538  0.2224 -0.3736 -0.0111
  459loPI   C3B 7343  -0.466   9.085   8.258  0.0514 -0.2684  0.0410
  459loPI   C4B 7344  -0.282   9.410   7.959  0.0722  0.1691 -0.0586
  460loPI    C1 7345   6.461   8.241  10.646 -0.1006 -0.2895  0.0667
  460loPI    C2 7346   6.423   8.346  11.030  0.0222 -0.1131  0.0319
  460loPI    C3 7347   6.187   8.063  10.876 -0.0771 -0.1332  0.2181
  460loPI   PO4 7348   6.806   8.340  10.603  0.3774 -0.0603  0.0493
  460loPI   GL1 7349   7.013   8.261  10.138 -0.0637  0.0726 -0.2819
  460loPI   GL2 7350   7.240   8.369  10.142 -0.0377  0.1956  0.0755
  460loPI   C1A 7351   7.058   8.242   9.648 -0.3651  0.0388  0.0835
  460loPI   C2A 7352   6.791   8.163   9.343  0.3244 -0.0023 -0.1321
  460loPI   C3A 7353   6.757   8.261   8.913 -0.0232  0.1850  0.1406
  460loPI   C4A 7354   6.791   8.231   8.449  0.0273 -0.3256 -0.2011
  460loPI   C5A 7355   6.703   8.212   8.015 -0.1148 -0.2435 -0.0673
  460loPI   C6A 7356   6.749   8.598   7.829 -0.1336  0.0723  0.2282
  460loPI   C1B 7357   7.309   8.724   9.821  0.0151  0.1179  0.1728
  460loPI   C2B 7358   7.368   8.900   9.421 -0.1104  0.2831  0.1557
  460loPI   C3B 7359   7.397   9.074   9.107  0.4881 -0.0149  0.0373
  460loPI   C4B 7360   7.268   8.987   8.654  0.0959  0.1230  0.1155
  461loPI    C1 7361   1.147  18.505  10.350 -0.1948  0.1171 -0.0119
  461loPI    C2 7362   1.056  18.357  10.710  0.0276 -0.0374 -0.0168
  461loPI    C3 7363   0.978  18.740  10.625  0.3919  0.1273  0.3575
  461loPI   PO4 7364   0.998  18.263  10.183 -0.1346 -0.1849  0.3052
  461loPI   GL1 7365   0.868  18.152   9.794 -0.2938  0.3006 -0.2149
  461loPI   GL2 7366   0.655  18.381   9.871 -0.1186  0.0963 -0.2166
  461loPI   C1A 7367   0.904  17.957   9.421 -0.0982 -0.1320 -0.0433
  461loPI   C2A 7368   0.971  17.771   8.939 -0.0012 -0.1128 -0.1162
  461loPI   C3A 7369   0.756  17.801   8.648 -0.0703 -0.1034 -0.3878
  461loPI   C4A 7370   0.566  17.982   8.322 -0.2496 -0.4042 -0.0057
  461loPI   C5A 7371   0.741  18.001   7.961  0.1810 -0.0628 -0.2189
  461loPI   C6A 7372   0.728  18.278   7.535  0.0302 -0.1478  0.3152
  461loPI   C1B 7373   0.533  18.319   9.490 -0.1058  0.1298 -0.1433
  461loPI   C2B 7374   0.335  18.407   9.066  0.4803 -0.1324  0.1661
  461loPI   C3B 7375   0.159  18.590   8.780  0.1409  0.1864 -0.0658
  461loPI   C4B 7376  -0.076  18.872   8.577  0.1952 -0.3410 -0.1677
  462loPI    C1 7377   8.725  12.247  10.488 -0.0831  0.1637  0.0754
  462loPI    C2 7378   8.494  11.979  10.675 -0.0979  0.2859  0.2345
  462loPI    C3 7379   8.778  12.174  10.878  0.2448  0.0330  0.0099
  462loPI   PO4 7380   8.802  12.219  10.279  0.0471  0.2102 -0.0668
  462loPI   GL1 7381   8.792  12.205   9.916 -0.0658 -0.2475 -0.0055
  462loPI   GL2 7382   8.992  11.913   9.891  0.1820 -0.0261 -0.0231
  462loPI   C1A 7383   9.080  12.386   9.702 -0.2361  0.1857  0.0105
  462loPI   C2A 7384   9.167  12.372   9.278  0.1453  0.1429 -0.1583
  462loPI   C3A 7385   9.234  12.408   8.946  0.0629  0.1734 -0.0418
  462loPI   C4A 7386   9.333  12.579   8.574  0.0573  0.4070  0.1923
  462loPI   C5A 7387   9.375  12.725   8.088  0.1250 -0.0072  0.2495
  462loPI   C6A 7388   8.913  12.868   7.900  0.0496 -0.1613 -0.2000
  462loPI   C1B 7389   8.865  11.967   9.496 -0.2613 -0.0521  0.3006
  462loPI   C2B 7390   8.813  11.729   9.145 -0.0748 -0.0543 -0.0548
  462loPI   C3B 7391   9.008  11.468   8.857 -0.3743  0.0726  0.1230
  462loPI   C4B 7392   9.119  11.035   8.816  0.0785  0.1751  0.2550
  463loPI    C1 7393   4.748  11.405  10.532  0.0366  0.0501 -0.1380
  463loPI    C2 7394   4.931  11.180  10.807  0.0475 -0.1193 -0.2823
  463loPI    C3 7395   4.532  11.210  10.807  0.0609  0.0879 -0.0920
  463loPI   PO4 7396   4.884  11.259  10.360  0.0297  0.0516  0.2436
  463loPI   GL1 7397   5.190  11.251   9.983  0.0697  0.0634  0.1637
  463loPI   GL2 7398   5.039  11.080   9.879  0.0018 -0.1150 -0.0101
  463loPI   C1A 7399   5.505  11.122   9.645 -0.2258  0.0645 -0.4099
  463loPI   C2A 7400   5.622  10.961   9.300  0.3917  0.0913 -0.0968
  463loPI   C3A 7401   5.521  10.739   8.931 -0.0351 -0.1096  0.0564
  463loPI   C4A 7402   5.538  10.689   8.460 -0.0690  0.2028  0.1760
  463loPI   C5A 7403   5.816  10.876   8.211  0.1001  0.3635  0.2864
  463loPI   C6A 7404   5.753  11.044   7.833  0.2318  0.1731 -0.3053
  463loPI   C1B 7405   4.758  11.028   9.451  0.0089  0.0904  0.1886
  463loPI   C2B 7406   4.386  10.920   9.133 -0.2250 -0.0620 -0.3121
  463loPI   C3B 7407   4.289  10.583   8.875 -0.1148  0.0348 -0.0609
  463loPI   C4B 7408   4.046  10.568   8.462 -0.0974  0.2855  0.1250
  464loPI    C1 7409   3.347   4.862  10.264 -0.1090  0.1305  0.0899
  464loPI    C2 7410   3.069   4.634  10.440 -0.1829  0.0593 -0.1162
  464loPI    C3 7411   3.007   5.027  10.397 -0.1071  0.1007  0.1322
  464loPI   PO4 7412   3.362   4.789   9.986 -0.0722  0.0373  0.0224
  464loPI   GL1 7413   3.560   4.986   9.630  0.1602 -0.0954  0.1956
  464loPI   GL2 7414   3.862   4.975   9.526 -0.0189 -0.2651 -0.2060
  464loPI   C1A 7415   3.307   4.998   9.301  0.1942  0.0192 -0.0830
  464loPI   C2A 7416   3.397   5.305   8.971  0.2798  0.1056 -0.1015
  464loPI   C3A 7417   3.414   5.650   8.580  0.0442 -0.2700 -0.1887
  464loPI   C4A 7418   3.420   5.552   8.156  0.0403 -0.0711 -0.1055
  464loPI   C5A 7419   3.680   5.205   7.978  0.1562 -0.1877 -0.1560
  464loPI   C6A 7420   3.798   5.075   7.611 -0.1545  0.2514 -0.1058
  464loPI   C1B 7421   3.763   5.040   9.089  0.1185 -0.1519  0.0598
  464loPI   C2B 7422   3.590   5.077   8.556 -0.0295 -0.0970 -0.0232
  464loPI   C3B 7423   3.119   5.231   8.528 -0.1437  0.0824 -0.1226
  464loPI   C4B 7424   2.971   5.574   8.308  0.1265 -0.2583  0.1150
  465loPI    C1 7425  14.999  17.062  10.478  0.3008  0.2749  0.1173
  465loPI    C2 7426  15.219  17.068  10.812  0.1076 -0.0254  0.2535
  465loPI    C3 7427  14.848  16.918  10.819  0.0740  0.0359 -0.0802
  465loPI   PO4 7428  15.130  16.986  10.322 -0.0482  0.0674 -0.1317
  465loPI   GL1 7429  15.201  16.909   9.911 -0.0266  0.4430  0.0184
  465loPI   GL2 7430  15.386  17.183   9.900 -0.3158  0.0709  0.1249
  465loPI   C1A 7431  15.306  16.912   9.515 -0.3366 -0.0659  0.4035
  465loPI   C2A 7432  15.251  17.026   9.100  0.0173 -0.0022 -0.2721
  465loPI   C3A 7433  15.234  17.028   8.744  0.0320  0.0267  0.0516
  465loPI   C4A 7434  15.226  17.332   8.342  0.1804 -0.0576 -0.3603
  465loPI   C5A 7435  15.044  17.585   8.008  0.0408  0.1521  0.0402
  465loPI   C6A 7436  15.265  17.998   7.848  0.0680  0.1506  0.1448
  465loPI   C1B 7437  15.124  17.348   9.650 -0.0968 -0.0450 -0.3141
  465loPI   C2B 7438  14.935  17.398   9.280  0.0900  0.0012  0.1200
  465loPI   C3B 7439  14.797  17.272   8.873 -0.4113 -0.1187 -0.0270
  465loPI   C4B 7440  14.781  17.204   8.452  0.0749 -0.2958 -0.0055
  466loPI    C1 7441  16.105   9.780  11.049 -0.0261  0.0200  0.0939
  466loPI    C2 7442  16.409   9.540  11.148 -0.0928 -0.1372 -0.0762
  466loPI    C3 7443  16.117   9.612  11.412 -0.1564 -0.3761 -0.0787
  466loPI   PO4 7444  16.313   9.953  10.741  0.2720 -0.3814  0.0532
  466loPI   GL1 7445  16.163  10.166  10.397  0.0743 -0.0333 -0.0646
  466loPI   GL2 7446  15.992  10.174  10.121  0.2239  0.3163 -0.0119
  466loPI   C1A 7447  16.425  10.457  10.145 -0.1013  0.0574 -0.0063
  466loPI   C2A 7448  16.433  10.447   9.644  0.0765 -0.1233  0.0164
  466loPI   C3A 7449  16.502  10.673   9.276  0.0161  0.2248  0.2693
  466loPI   C4A 7450  16.492  10.776   8.882  0.0210 -0.0689  0.0719
  466loPI   C5A 7451  16.638  10.702   8.396 -0.0550 -0.0455  0.1858
  466loPI   C6A 7452  16.680  10.707   7.966  0.0162  0.3736  0.1106
  466loPI   C1B 7453  15.945  10.624   9.740 -0.1428  0.4599  0.1773
  466loPI   C2B 7454  15.876  10.701   9.327 -0.0750 -0.2888 -0.3696
  466loPI   C3B 7455  15.846  10.770   8.886 -0.1850  0.3777  0.2683
  466loPI   C4B 7456  16.106  10.803   8.560 -0.3223  0.0375 -0.0663
  467loPI    C1 7457   6.145  10.444  10.645 -0.2496  0.0570  0.0601
  467loPI    C2 7458   6.042  10.795  10.808 -0.1392  0.0083  0.2373
  467loPI    C3 7459   6.292  10.549  11.002 -0.0182 -0.0584  0.0009
  467loPI   PO4 7460   6.258  10.551  10.358  0.0059 -0.0827  0.1439
  467loPI   GL1 7461   6.126  10.569   9.843 -0.0569  0.0323 -0.0391
  467loPI   GL2 7462   5.902  10.595   9.593 -0.1400 -0.0948 -0.1886
  467loPI   C1A 7463   6.391  10.377   9.430 -0.1578 -0.1897  0.0110
  467loPI   C2A 7464   6.418  10.490   9.005  0.0766  0.1084  0.0303
  467loPI   C3A 7465   6.661  10.616   8.651  0.0860 -0.1323  0.0457
  467loPI   C4A 7466   6.973  10.783   8.358  0.1262 -0.2274  0.1693
  467loPI   C5A 7467   7.296  10.801   8.076 -0.1733 -0.0457  0.1999
  467loPI   C6A 7468   7.521  10.944   7.772  0.2176 -0.2590 -0.2029
  467loPI   C1B 7469   5.970  10.566   9.200 -0.0732 -0.0356  0.0772
  467loPI   C2B 7470   5.943  10.553   8.851 -0.4417  0.4106  0.1592
  467loPI   C3B 7471   6.138  10.606   8.538  0.0532  0.1950  0.4643
  467loPI   C4B 7472   6.385  10.677   8.135 -0.0460 -0.2798  0.3651
  468loPI    C1 7473   1.590   6.472  10.678 -0.1829  0.3437 -0.0555
  468loPI    C2 7474   1.281   6.338  10.894  0.1062 -0.0543  0.1245
  468loPI    C3 7475   1.478   6.667  11.009  0.0114 -0.0387  0.2443
  468loPI   PO4 7476   1.553   6.289  10.364  0.1462 -0.2101 -0.2954
  468loPI   GL1 7477   1.201   6.197  10.017  0.1806 -0.0084  0.1743
  468loPI   GL2 7478   0.838   6.059  10.004  0.0427 -0.3295  0.1868
  468loPI   C1A 7479   1.245   6.213   9.636  0.0413 -0.3510 -0.0456
  468loPI   C2A 7480   1.398   5.973   9.267  0.4210 -0.2722  0.0464
  468loPI   C3A 7481   1.229   5.987   8.915 -0.3333 -0.0581 -0.0418
  468loPI   C4A 7482   0.823   6.138   8.703 -0.0934  0.3198 -0.0703
  468loPI   C5A 7483   0.475   6.447   8.463 -0.1678  0.1939 -0.0765
  468loPI   C6A 7484   0.159   6.513   8.232 -0.0323  0.3040 -0.1344
  468loPI   C1B 7485   0.643   6.114   9.596 -0.0364  0.0934  0.2768
  468loPI   C2B 7486   0.467   5.789   9.371 -0.3125  0.0656 -0.0537
  468loPI   C3B 7487   0.355   5.593   8.862 -0.0291 -0.1106  0.2195
  468loPI   C4B 7488   0.527   5.398   8.568  0.1315  0.0445 -0.1344
  469loPI    C1 7489   5.663   7.830  10.490 -0.0178 -0.4894 -0.1074
  469loPI    C2 7490   5.837   7.635  10.793  0.0608 -0.0848  0.1149
  469loPI    C3 7491   5.464   7.773  10.833  0.2144  0.3231  0.1850
  469loPI   PO4 7492   5.798   7.720  10.241  0.0691 -0.0435  0.2075
  469loPI   GL1 7493   5.960   7.767   9.829  0.2898 -0.0978  0.0718
  469loPI   GL2 7494   5.592   7.688   9.715  0.0685  0.0052  0.1559
  469loPI   C1A 7495   6.282   7.702   9.567  0.1358  0.0552 -0.0228
  469loPI   C2A 7496   6.387   7.780   9.161  0.0133 -0.2269  0.0819
  469loPI   C3A 7497   6.360   7.869   8.808  0.1714  0.0111  0.3853
  469loPI   C4A 7498   6.475   7.856   8.336 -0.2477  0.3267 -0.1785
  469loPI   C5A 7499   6.886   7.703   8.028  0.3082  0.0017 -0.0300
  469loPI   C6A 7500   7.026   7.495   7.804 -0.4329  0.3281  0.0430
  469loPI   C1B 7501   5.836   7.654   9.381 -0.0955  0.0997  0.2664
  469loPI   C2B 7502   5.680   7.669   8.923 -0.1328  0.1375  0.0177
  469loPI   C3B 7503   5.547   7.684   8.502 -0.1901 -0.1643 -0.2160
  469loPI   C4B 7504   5.231   7.536   8.212  0.1454 -0.2417  0.0559
  470loPI    C1 7505   4.393  15.447  10.222 -0.0337 -0.1188 -0.0312
  470loPI    C2 7506   4.189  15.245  10.500 -0.1560 -0.0245 -0.0511
  470loPI    C3 7507   4.115  15.633  10.442  0.3446  0.1253  0.2525
  470loPI   PO4 7508   4.318  15.343   9.980 -0.1906  0.0008  0.0791
  470loPI   GL1 7509   4.143  15.463   9.589 -0.4658 -0.1569  0.0480
  470loPI   GL2 7510   3.910  15.388   9.365  0.0944 -0.0242  0.2399
  470loPI   C1A 7511   4.408  15.565   9.295  0.0561  0.1234 -0.2359
  470loPI   C2A 7512   4.443  15.750   8.910  0.2710 -0.3295 -0.1385
  470loPI   C3A 7513   4.529  15.864   8.462  0.1696 -0.1448  0.2061
  470loPI   C4A 7514   4.671  15.922   8.057  0.0259  0.5164  0.1686
  470loPI   C5A 7515   5.036  15.955   7.718  0.1326 -0.1260  0.0453
  470loPI   C6A 7516   5.155  16.032   7.263  0.1926 -0.4865 -0.0369
  470loPI   C1B 7517   3.995  15.556   9.022  0.0361 -0.0852  0.0067
  470loPI   C2B 7518   4.083  15.572   8.568  0.1419 -0.0316  0.2583
  470loPI   C3B 7519   4.235  15.642   8.135 -0.0337  0.0065  0.1493
  470loPI   C4B 7520   4.411  15.690   7.701  0.0138 -0.3175  0.0899
  471loPI    C1 7521  17.329   9.254  10.362  0.1146 -0.0661 -0.1293
  471loPI    C2 7522  17.074   9.006  10.544  0.1304 -0.0198 -0.0438
  471loPI    C3 7523  17.138   9.372  10.693 -0.0646  0.1204 -0.2968
  471loPI   PO4 7524  17.302   9.261  10.054 -0.3440  0.3712 -0.0669
  471loPI   GL1 7525  17.052   9.292   9.608  0.1666  0.3503 -0.2043
  471loPI   GL2 7526  17.268   9.501   9.567  0.0805  0.0396  0.2068
  471loPI   C1A 7527  16.948   8.912   9.418 -0.0718 -0.8646  0.0319
  471loPI   C2A 7528  16.855   8.576   9.070 -0.1053 -0.1896  0.2497
  471loPI   C3A 7529  16.583   8.376   8.958 -0.1319  0.1265 -0.1861
  471loPI   C4A 7530  16.365   7.985   8.673 -0.3307 -0.1083 -0.0686
  471loPI   C5A 7531  16.287   7.663   8.478 -0.0459  0.1856  0.1467
  471loPI   C6A 7532  16.229   7.315   8.167 -0.0429 -0.0321  0.0693
  471loPI   C1B 7533  17.263   9.284   9.137  0.0134 -0.3242  0.2469
  471loPI   C2B 7534  17.019   8.970   8.784  0.1872 -0.2669 -0.1332
  471loPI   C3B 7535  17.012   8.578   8.579 -0.1044 -0.2086 -0.0645
  471loPI   C4B 7536  17.172   8.229   8.404 -0.1997  0.0327 -0.4167
  472loPI    C1 7537   5.051  16.543  10.108  0.1537  0.1094 -0.1067
  472loPI    C2 7538   5.441  16.540  10.200  0.1237 -0.0535  0.0214
  472loPI    C3 7539   5.167  16.551  10.491  0.0299 -0.2408 -0.0585
  472loPI   PO4 7540   4.991  16.307   9.959  0.4316 -0.0632 -0.0277
  472loPI   GL1 7541   4.950  16.424   9.563 -0.3672 -0.4842 -0.0066
  472loPI   GL2 7542   4.694  16.726   9.404  0.1036 -0.3766  0.2403
  472loPI   C1A 7543   4.935  16.405   8.997 -0.2529  0.0852  0.0071
  472loPI   C2A 7544   4.918  16.086   8.636  0.0917  0.0344  0.0035
  472loPI   C3A 7545   5.150  15.935   8.191  0.0601 -0.1097 -0.2449
  472loPI   C4A 7546   5.322  15.604   7.840 -0.0675  0.2683  0.1694
  472loPI   C5A 7547   5.659  15.498   7.616  0.0132 -0.0233 -0.0210
  472loPI   C6A 7548   5.803  15.690   7.270 -0.0818 -0.1435 -0.0793
  472loPI   C1B 7549   4.687  16.820   9.021  0.0933  0.2854 -0.3554
  472loPI   C2B 7550   4.796  16.636   8.538 -0.1693 -0.1244 -0.0704
  472loPI   C3B 7551   4.983  16.417   8.254  0.0953  0.1875  0.0879
  472loPI   C4B 7552   5.397  16.310   7.983 -0.0239  0.2759  0.0917
  473loPI    C1 7553  12.638  14.307  10.579 -0.0319 -0.1697 -0.0774
  473loPI    C2 7554  12.616  13.984  10.814 -0.1314  0.0192  0.1773
  473loPI    C3 7555  12.967  14.168  10.759 -0.1126 -0.0109  0.1976
  473loPI   PO4 7556  12.543  14.222  10.229  0.0972  0.0554 -0.0289
  473loPI   GL1 7557  12.511  14.325   9.795 -0.3442  0.5946 -0.2908
  473loPI   GL2 7558  12.584  14.558   9.643  0.2713  0.2227 -0.0193
  473loPI   C1A 7559  12.247  14.237   9.467 -0.1381  0.2277 -0.1465
  473loPI   C2A 7560  12.271  14.242   9.047  0.2040 -0.1845  0.1088
  473loPI   C3A 7561  12.284  14.429   8.545  0.1072  0.2258 -0.1867
  473loPI   C4A 7562  12.376  14.689   8.085 -0.1260 -0.1202 -0.3201
  473loPI   C5A 7563  12.423  15.101   7.874 -0.2923  0.2089  0.1272
  473loPI   C6A 7564  12.781  15.228   7.719  0.1834 -0.0611  0.1451
  473loPI   C1B 7565  12.637  14.561   9.167 -0.2004 -0.0861  0.0391
  473loPI   C2B 7566  12.703  14.667   8.706 -0.0732 -0.0119 -0.0477
  473loPI   C3B 7567  12.836  14.560   8.306 -0.1243 -0.1700  0.0125
  473loPI   C4B 7568  13.144  14.793   7.973  0.2658  0.0162  0.4752
  474POPI    C1 7569  14.566  12.042  10.435  0.0423 -0.1442  0.0386
  474POPI    C2 7570  14.557  11.746  10.704  0.0287 -0.0009  0.1973
  474POPI    C3 7571  14.215  11.905  10.571  0.0373 -0.0131  0.1607
  474POPI   PO4 7572  14.753  12.018  10.210  0.1046 -0.3991 -0.0801
  474POPI   GL1 7573  14.620  12.103   9.922  0.3661 -0.1575  0.0694
  474POPI   GL2 7574  14.830  11.773   9.785 -0.2367  0.0201 -0.0049
  474POPI   C1A 7575  14.545  12.026   9.431  0.2230 -0.0325 -0.5483
  474POPI   D2A 7576  14.391  12.047   9.236  0.2129 -0.2296  0.2919
  474POPI   C3A 7577  14.562  11.982   8.911 -0.1397 -0.0235  0.2084
  474POPI   C4A 7578  14.770  11.837   8.555 -0.2026 -0.0133  0.0194
  474POPI   C1B 7579  14.869  11.650   9.426  0.1068 -0.1211 -0.0858
  474POPI   C2B 7580  14.997  11.680   9.004  0.0330  0.2191  0.0373
  474POPI   C3B 7581  15.278  11.845   8.694 -0.1160 -0.0105 -0.0851
  474POPI   C4B 7582  15.221  11.958   8.384 -0.0943 -0.1472  0.0176
  475POPI    C1 7583   8.802   8.669  10.699 -0.0182 -0.0943  0.1438
  475POPI    C2 7584   8.775   8.962  10.970  0.2204  0.0109  0.0577
  475POPI    C3 7585   8.976   8.627  11.057 -0.2179 -0.2171  0.2280
  475POPI   PO4 7586   8.786   8.840  10.444 -0.0104  0.2420  0.0180
  475POPI   GL1 7587   8.720   8.788   9.969  0.2892  0.0003 -0.1269
  475POPI   GL2 7588   8.516   8.601   9.938 -0.0087  0.0873  0.1792
  475POPI   C1A 7589   8.819   9.022   9.550  0.0554 -0.0602 -0.1102
  475POPI   D2A 7590   9.119   9.091   9.322 -0.0743  0.1078 -0.2529
  475POPI   C3A 7591   9.159   9.183   8.878 -0.3944 -0.0804  0.0440
  475POPI   C4A 7592   9.462   9.020   8.529  0.1015 -0.1639 -0.1915
  475POPI   C1B 7593   8.375   8.860   9.579  0.2286  0.1497 -0.2232
  475POPI   C2B 7594   8.145   8.901   9.142  0.0047  0.2547  0.0068
  475POPI   C3B 7595   8.213   8.671   8.709 -0.0036  0.0544  0.2135
  475POPI   C4B 7596   8.191   8.308   8.477  0.1980  0.2444  0.0600
  476POPI    C1 7597  10.918  15.864  10.312 -0.2856  0.2441  0.0309
  476POPI    C2 7598  10.731  15.601  10.549 -0.3757  0.2865  0.0072
  476POPI    C3 7599  10.925  15.913  10.709 -0.2092  0.1681  0.0392
  476POPI   PO4 7600  10.970  15.647  10.047 -0.3637  0.2136 -0.3579
  476POPI   GL1 7601  10.903  15.546   9.647  0.0913  0.0925  0.2606
  476POPI   GL2 7602  11.241  15.619   9.578  0.1434 -0.4184 -0.1123
  476POPI   C1A 7603  10.628  15.551   9.290 -0.0902  0.2336 -0.0510
  476POPI   D2A 7604  10.390  15.038   9.186 -0.1140  0.2143 -0.6178
  476POPI   C3A 7605  10.307  14.902   8.799 -0.1176  0.0707  0.0742
  476POPI   C4A 7606  10.262  14.866   8.361  0.1623 -0.0548 -0.0042
  476POPI   C1B 7607  11.554  15.730   9.290  0.1496 -0.0040 -0.1105
  476POPI   C2B 7608  11.764  15.609   9.019  0.0765  0.2683 -0.2503
  476POPI   C3B 7609  12.051  15.417   8.662 -0.2502  0.1246 -0.0806
  476POPI   C4B 7610  12.210  15.396   8.237  0.2338 -0.5090 -0.2929
  477POPI    C1 7611   7.731  12.289  10.352 -0.2419 -0.0799 -0.2013
  477POPI    C2 7612   7.529  12.156  10.671  0.1634  0.1974  0.1825
  477POPI    C3 7613   7.375  12.447  10.445 -0.2103 -0.1278  0.0072
  477POPI   PO4 7614   7.799  12.031  10.169 -0.2349 -0.2478 -0.2421
  477POPI   GL1 7615   7.763  11.885   9.674  0.0353  0.1451 -0.1639
  477POPI   GL2 7616   7.428  11.826   9.662  0.0450  0.0061 -0.3727
  477POPI   C1A 7617   7.885  12.069   9.412  0.2363 -0.0915 -0.0825
  477POPI   D2A 7618   7.984  12.166   9.073 -0.0799  0.0407  0.1949
  477POPI   C3A 7619   8.006  12.061   8.591  0.3343  0.1057 -0.2004
  477POPI   C4A 7620   7.802  12.003   8.215 -0.0191 -0.0678  0.3147
  477POPI   C1B 7621   7.455  11.905   9.181  0.2282  0.0586  0.2185
  477POPI   C2B 7622   7.551  11.826   8.776  0.1600 -0.0779 -0.1060
  477POPI   C3B 7623   7.435  11.688   8.401  0.3715 -0.0927 -0.1102
  477POPI   C4B 7624   7.595  11.450   7.969  0.0995 -0.0867 -0.0957
  478POPI    C1 7625   9.684   6.846  10.324  0.0099 -0.0773 -0.1756
  478POPI    C2 7626   9.723   6.462  10.425  0.0350  0.0141  0.1741
  478POPI    C3 7627   9.611   6.730  10.699  0.0540  0.2633 -0.0583
  478POPI   PO4 7628   9.591   6.919  10.136  0.4300 -0.1834 -0.1311
  478POPI   GL1 7629   9.230   7.149   9.908  0.1123 -0.0393 -0.0003
  478POPI   GL2 7630   9.445   6.853   9.685 -0.2180  0.2087 -0.0386
  478POPI   C1A 7631   9.075   7.152   9.502  0.0942  0.2054  0.0833
  478POPI   D2A 7632   9.219   6.925   9.103 -0.0923  0.0005  0.0469
  478POPI   C3A 7633   9.034   7.230   8.881  0.0611  0.1274 -0.0099
  478POPI   C4A 7634   9.117   7.588   8.562 -0.3722 -0.0857 -0.1950
  478POPI   C1B 7635   9.303   6.506   9.454 -0.0925 -0.2757 -0.1478
  478POPI   C2B 7636   9.128   6.370   8.960  0.4022 -0.1098  0.1048
  478POPI   C3B 7637   9.398   6.098   8.823  0.1072 -0.1468  0.0736
  478POPI   C4B 7638   9.544   5.772   8.550  0.0607  0.1000  0.0183
  479POPI    C1 7639  17.009  12.206  10.512  0.0280 -0.3063  0.0813
  479POPI    C2 7640  16.921  11.912  10.768 -0.1801 -0.1328  0.2127
  479POPI    C3 7641  16.917  12.292  10.891  0.0725 -0.0713  0.0403
  479POPI   PO4 7642  17.081  12.083  10.336 -0.0513 -0.2041 -0.0831
  479POPI   GL1 7643  17.238  11.965   9.994 -0.0515  0.0262 -0.3897
  479POPI   GL2 7644  16.954  11.931   9.881 -0.0316 -0.0584  0.1912
  479POPI   C1A 7645  17.242  12.113   9.546 -0.0188 -0.0312  0.0048
  479POPI   D2A 7646  16.911  12.295   9.145 -0.0834 -0.0363  0.0139
  479POPI   C3A 7647  16.868  12.597   8.962  0.1019  0.0238 -0.2641
  479POPI   C4A 7648  17.220  12.841   8.958 -0.0422  0.0494  0.1915
  479POPI   C1B 7649  16.737  11.937   9.514  0.1849  0.2330  0.0581
  479POPI   C2B 7650  16.647  11.809   9.013 -0.2347  0.1139 -0.1903
  479POPI   C3B 7651  16.956  11.535   8.666  0.0952  0.4229 -0.1533
  479POPI   C4B 7652  17.022  11.489   8.251  0.0728  0.1664  0.1624
  480POPI    C1 7653  17.145  15.692  10.213  0.2237 -0.0953 -0.0694
  480POPI    C2 7654  17.270  15.385  10.436  0.1189 -0.0830  0.0073
  480POPI    C3 7655  17.125  15.714  10.611  0.2525  0.0203 -0.0739
  480POPI   PO4 7656  17.057  15.573   9.980 -0.0234 -0.2035 -0.0001
  480POPI   GL1 7657  16.918  15.518   9.600 -0.2397  0.0558 -0.6264
  480POPI   GL2 7658  17.312  15.461   9.596 -0.2252 -0.0515 -0.0973
  480POPI   C1A 7659  16.883  15.597   9.132 -0.1159 -0.0472  0.0457
  480POPI   D2A 7660  16.579  15.573   8.699 -0.0451 -0.2266  0.3343
  480POPI   C3A 7661  16.244  15.317   8.728  0.1950  0.1481  0.2941
  480POPI   C4A 7662  15.944  15.320   9.138  0.1999  0.0396  0.0432
  480POPI   C1B 7663  17.317  15.393   9.291  0.2954  0.2187 -0.1004
  480POPI   C2B 7664  17.255  15.363   8.908 -0.1716 -0.0913 -0.0668
  480POPI   C3B 7665  17.323  15.510   8.487  0.0198 -0.1342 -0.2868
  480POPI   C4B 7666  17.317  15.542   8.071 -0.1210 -0.1426  0.1701
  481POPI    C1 7667   2.907   9.465  10.018 -0.0859 -0.0023  0.1604
  481POPI    C2 7668   3.164   9.473   9.711 -0.2626 -0.1117  0.0076
  481POPI    C3 7669   3.291   9.368  10.075 -0.0842 -0.1327 -0.0598
  481POPI   PO4 7670   2.679   9.227   9.927 -0.0407 -0.0355  0.0762
  481POPI   GL1 7671   2.497   8.925   9.610  0.0118 -0.0895 -0.0191
  481POPI   GL2 7672   2.178   9.034   9.500  0.0134  0.1408  0.2500
  481POPI   C1A 7673   2.581   8.798   9.219 -0.2773  0.0744  0.2582
  481POPI   D2A 7674   2.665   8.579   8.725  0.0872  0.1729 -0.0525
  481POPI   C3A 7675   2.804   8.219   8.797 -0.1609  0.0756 -0.1219
  481POPI   C4A 7676   3.069   8.013   8.476 -0.2382 -0.3120  0.0244
  481POPI   C1B 7677   2.021   9.026   9.144 -0.0843 -0.4120 -0.1715
  481POPI   C2B 7678   2.180   8.773   8.806  0.0143  0.0686  0.1952
  481POPI   C3B 7679   2.320   8.560   8.348 -0.1146  0.1020 -0.0252
  481POPI   C4B 7680   2.792   8.439   8.229  0.3599  0.3391 -0.0646
  482POPI    C1 7681  15.423  15.250  10.452  0.0357  0.1177 -0.1848
  482POPI    C2 7682  15.048  15.113  10.467  0.1008 -0.0444  0.0245
  482POPI    C3 7683  15.238  15.212  10.804  0.2582  0.0055 -0.0774
  482POPI   PO4 7684  15.633  15.204  10.321  0.2133  0.2452  0.0712
  482POPI   GL1 7685  15.782  14.834  10.010 -0.0189  0.4448 -0.1976
  482POPI   GL2 7686  15.976  14.480  10.058 -0.0238 -0.1652 -0.1399
  482POPI   C1A 7687  15.694  14.749   9.561  0.2398 -0.0641  0.2791
  482POPI   D2A 7688  15.696  14.853   9.110  0.0359 -0.0185 -0.0862
  482POPI   C3A 7689  15.812  15.008   8.694 -0.1313  0.3075  0.2079
  482POPI   C4A 7690  16.004  14.934   8.224  0.1071  0.0365 -0.1237
  482POPI   C1B 7691  16.058  14.477   9.644 -0.0260 -0.3411  0.0499
  482POPI   C2B 7692  16.062  14.530   9.233 -0.1007 -0.0002  0.5355
  482POPI   C3B 7693  15.852  14.457   8.813  0.1110  0.0349  0.2799
  482POPI   C4B 7694  16.040  14.445   8.385  0.2139  0.0389 -0.3018
  483POPI    C1 7695  13.073   8.494  10.670  0.0977 -0.1575 -0.0159
  483POPI    C2 7696  13.319   8.772  10.819 -0.0226 -0.0547 -0.0081
  483POPI    C3 7697  13.317   8.404  10.975  0.3069 -0.1300 -0.1730
  483POPI   PO4 7698  12.954   8.670  10.406  0.1784  0.0696 -0.0841
  483POPI   GL1 7699  13.106   8.616   9.907 -0.2109  0.0674 -0.0992
  483POPI   GL2 7700  13.197   8.258   9.938  0.0919 -0.0006  0.0159
  483POPI   C1A 7701  13.070   8.734   9.480 -0.1241 -0.3383 -0.0175
  483POPI   D2A 7702  13.049   8.643   9.048 -0.3213 -0.0938 -0.1769
  483POPI   C3A 7703  12.913   9.006   8.845  0.3892 -0.1298 -0.0642
  483POPI   C4A 7704  12.705   9.341   8.437 -0.2145  0.2294  0.0011
  483POPI   C1B 7705  13.291   8.295   9.544 -0.0563 -0.0611  0.1312
  483POPI   C2B 7706  13.468   8.484   9.257  0.0551 -0.0731  0.1939
  483POPI   C3B 7707  13.473   8.597   8.826 -0.2375  0.0219  0.0712
  483POPI   C4B 7708  13.502   8.525   8.375  0.1421 -0.3965  0.1110
  484POPI    C1 7709   4.077  11.147   9.993 -0.0098 -0.0139  0.1055
  484POPI    C2 7710   3.737  10.983  10.127 -0.2005  0.2279 -0.0727
  484POPI    C3 7711   3.724  11.299   9.881  0.1511  0.1023 -0.2609
  484POPI   PO4 7712   4.188  10.988   9.852 -0.2751 -0.0097  0.0887
  484POPI   GL1 7713   3.966  10.699   9.695 -0.0717  0.2574 -0.2979
  484POPI   GL2 7714   3.648  10.808   9.650 -0.0089  0.1274  0.0221
  484POPI   C1A 7715   4.108  10.428   9.337 -0.0621  0.1408  0.1799
  484POPI   D2A 7716   4.441  10.161   9.187  0.0652 -0.1808 -0.0829
  484POPI   C3A 7717   4.443  10.138   8.703 -0.0669 -0.3250  0.1527
  484POPI   C4A 7718   4.321  10.128   8.278 -0.1192 -0.2919  0.0614
  484POPI   C1B 7719   3.853  10.979   9.290  0.0719  0.2946  0.2700
  484POPI   C2B 7720   3.917  10.960   8.782 -0.3888  0.1988 -0.3145
  484POPI   C3B 7721   4.077  11.093   8.389  0.3400 -0.1753  0.0263
  484POPI   C4B 7722   4.351  10.954   8.092  0.0441  0.1003 -0.2347
  485POPI    C1 7723  13.096   5.999  10.559 -0.0099  0.1647 -0.0200
  485POPI    C2 7724  12.830   5.701  10.579  0.2632 -0.0888 -0.0927
  485POPI    C3 7725  13.033   5.810  10.906 -0.0382  0.2111  0.0002
  485POPI   PO4 7726  13.229   5.938  10.335 -0.1345  0.2504 -0.0272
  485POPI   GL1 7727  13.267   5.608  10.037 -0.1643 -0.1190 -0.2589
  485POPI   GL2 7728  13.577   5.586  10.059 -0.1399  0.0760 -0.2299
  485POPI   C1A 7729  13.239   5.548   9.631 -0.0968 -0.0221 -0.1126
  485POPI   D2A 7730  13.404   5.312   9.240 -0.0394 -0.0027 -0.0970
  485POPI   C3A 7731  13.176   5.235   8.919  0.2125 -0.0288  0.3297
  485POPI   C4A 7732  12.858   5.386   8.741 -0.1033  0.4206 -0.1884
  485POPI   C1B 7733  13.778   5.577   9.708 -0.0031  0.2385  0.0552
  485POPI   C2B 7734  13.778   5.654   9.241 -0.0472  0.0604  0.0680
  485POPI   C3B 7735  13.357   5.732   8.919  0.2868  0.0269  0.0499
  485POPI   C4B 7736  13.270   5.570   8.567  0.1150 -0.0641 -0.0594
  486POPI    C1 7737  17.426   8.724  10.282 -0.0834 -0.1110 -0.0154
  486POPI    C2 7738  17.771   8.926  10.277 -0.0007 -0.2514 -0.0130
  486POPI    C3 7739  17.594   8.841  10.625 -0.3421  0.3320 -0.0318
  486POPI   PO4 7740  17.502   8.544  10.075 -0.0167  0.1441 -0.0697
  486POPI   GL1 7741  17.605   8.482   9.579  0.0236 -0.1586 -0.3409
  486POPI   GL2 7742  17.292   8.549   9.634  0.2908 -0.1681  0.2066
  486POPI   C1A 7743  17.434   8.675   9.105  0.2511  0.3654 -0.1301
  486POPI   D2A 7744  17.604   8.891   8.862  0.2173  0.0595 -0.0192
  486POPI   C3A 7745  17.803   8.981   8.540  0.1734 -0.1274 -0.0299
  486POPI   C4A 7746  17.757   9.279   8.190 -0.2059 -0.0402  0.2684
  486POPI   C1B 7747  17.161   8.260   9.312 -0.1611  0.1509 -0.0273
  486POPI   C2B 7748  17.235   8.287   8.917 -0.3238 -0.2895 -0.0217
  486POPI   C3B 7749  17.557   8.490   8.601  0.3961  0.2513  0.3440
  486POPI   C4B 7750  17.450   8.706   8.288  0.0915  0.3258 -0.3465
  487POPI    C1 7751  11.300  16.288  10.091  0.1784 -0.1548 -0.1116
  487POPI    C2 7752  11.102  16.525   9.836 -0.2493 -0.2911  0.0848
  487POPI    C3 7753  11.334  16.686  10.119  0.3307 -0.1398 -0.4517
  487POPI   PO4 7754  11.293  16.055   9.847  0.0826 -0.3092 -0.0155
  487POPI   GL1 7755  11.245  16.153   9.439  0.1933  0.0156  0.0896
  487POPI   GL2 7756  11.454  16.283   9.305  0.1897  0.5199 -0.2392
  487POPI   C1A 7757  11.025  15.863   9.158 -0.1396 -0.1864 -0.1216
  487POPI   D2A 7758  10.960  15.675   8.856 -0.1180 -0.3192 -0.0331
  487POPI   C3A 7759  10.810  15.773   8.458  0.1749 -0.3068  0.4988
  487POPI   C4A 7760  10.540  15.844   8.131 -0.0064 -0.2050 -0.0325
  487POPI   C1B 7761  11.415  16.004   8.924 -0.0606 -0.1029  0.0990
  487POPI   C2B 7762  11.434  15.788   8.530  0.1945  0.0164 -0.1116
  487POPI   C3B 7763  11.243  15.700   8.235  0.0721 -0.0920  0.1041
  487POPI   C4B 7764  10.925  15.470   8.027 -0.2493 -0.1275  0.2515
  488POPI    C1 7765   6.644   2.198  10.242 -0.2430 -0.1738 -0.1145
  488POPI    C2 7766   6.625   2.597  10.268 -0.4144 -0.1731 -0.2312
  488POPI    C3 7767   6.449   2.370  10.547 -0.2249 -0.1685 -0.1059
  488POPI   PO4 7768   6.582   2.175   9.881 -0.1035 -0.0946 -0.2395
  488POPI   GL1 7769   6.814   2.310   9.533  0.4260 -0.0829  0.1512
  488POPI   GL2 7770   7.102   2.149   9.363  0.0115  0.0538  0.1308
  488POPI   C1A 7771   6.790   2.428   9.123 -0.3264 -0.0569  0.0374
  488POPI   D2A 7772   6.843   2.537   8.751 -0.1576 -0.2684  0.1337
  488POPI   C3A 7773   6.869   2.797   8.420 -0.1300 -0.0187 -0.1663
  488POPI   C4A 7774   7.092   2.770   8.014 -0.1256 -0.2916 -0.1690
  488POPI   C1B 7775   7.114   2.124   8.961 -0.1786 -0.0356  0.0727
  488POPI   C2B 7776   7.109   2.118   8.468 -0.1810 -0.3956  0.0440
  488POPI   C3B 7777   7.388   2.372   8.175  0.1426 -0.1461  0.1452
  488POPI   C4B 7778   7.621   2.641   8.028 -0.2125  0.0014 -0.1149
  489POPI    C1 7779   9.362   7.450  10.652  0.1812 -0.0064 -0.0417
  489POPI    C2 7780   9.239   7.770  10.858 -0.4600 -0.1061 -0.2487
  489POPI    C3 7781   9.158   7.403  10.993  0.2963 -0.1975  0.0021
  489POPI   PO4 7782   9.325   7.500  10.366 -0.0563 -0.2003 -0.0921
  489POPI   GL1 7783   9.310   7.598  10.042  0.3054  0.0693  0.0482
  489POPI   GL2 7784   8.994   7.634  10.014 -0.2263  0.1621 -0.1696
  489POPI   C1A 7785   9.417   7.680   9.664 -0.1861  0.1240  0.3250
  489POPI   D2A 7786   9.354   7.465   9.197 -0.0643 -0.0751 -0.3872
  489POPI   C3A 7787   9.301   7.726   9.002 -0.0748 -0.3672 -0.1086
  489POPI   C4A 7788   9.014   8.074   8.917  0.0451 -0.0260 -0.0080
  489POPI   C1B 7789   8.939   7.721   9.689  0.2468  0.0682 -0.2023
  489POPI   C2B 7790   8.829   7.599   9.282  0.1689 -0.1917 -0.0237
  489POPI   C3B 7791   8.775   7.623   8.902  0.2595  0.1394  0.0035
  489POPI   C4B 7792   8.649   7.926   8.472  0.0459  0.2820 -0.1939
  490POPI    C1 7793  17.395   5.452  11.089 -0.4780  0.0225  0.0145
  490POPI    C2 7794  17.364   5.763  11.339  0.2086  0.0941  0.0291
  490POPI    C3 7795  17.569   5.437  11.448  0.0706 -0.0888 -0.2448
  490POPI   PO4 7796  17.250   5.427  10.943 -0.0114  0.2767 -0.1302
  490POPI   GL1 7797  17.330   5.353  10.554 -0.1312 -0.0134  0.1353
  490POPI   GL2 7798  17.417   5.639  10.351 -0.0066 -0.1860 -0.0926
  490POPI   C1A 7799  17.097   5.272  10.130 -0.1772 -0.4502 -0.2092
  490POPI   D2A 7800  17.155   5.283   9.793 -0.0408 -0.5803  0.0689
  490POPI   C3A 7801  17.416   4.981   9.507 -0.1276  0.2331  0.0198
  490POPI   C4A 7802  17.601   4.594   9.197  0.2559 -0.2397 -0.0638
  490POPI   C1B 7803  17.164   5.848  10.112  0.1780  0.1048  0.1297
  490POPI   C2B 7804  17.305   5.893   9.587 -0.1605 -0.0548 -0.3347
  490POPI   C3B 7805  17.381   6.003   9.142  0.0031 -0.1030 -0.0681
  490POPI   C4B 7806  17.058   6.066   8.821  0.1220  0.3638 -0.0153
  491POPI    C1 7807  17.593  14.996  10.546  0.0132  0.0621 -0.0918
  491POPI    C2 7808  17.840  14.991  10.860 -0.0494 -0.0739 -0.0440
  491POPI    C3 7809  17.765  14.654  10.660  0.1671  0.0526 -0.3457
  491POPI   PO4 7810  17.752  15.152  10.313 -0.1959 -0.1110 -0.1370
  491POPI   GL1 7811  17.880  15.219   9.761  0.1032 -0.2049  0.2294
  491POPI   GL2 7812  17.708  15.003   9.723 -0.3013 -0.0945  0.0411
  491POPI   C1A 7813  17.808  15.279   9.327 -0.0770  0.2734  0.0693
  491POPI   D2A 7814  17.917  15.067   8.966 -0.3044  0.3926  0.3069
  491POPI   C3A 7815  17.827  15.198   8.503  0.1126  0.0221 -0.0296
  491POPI   C4A 7816  17.902  15.481   8.117  0.0690  0.2037 -0.0619
  491POPI   C1B 7817  17.382  14.861   9.453 -0.3585  0.4263 -0.1797
  491POPI   C2B 7818  17.357  14.876   9.044  0.3160  0.2931 -0.2559
  491POPI   C3B 7819  17.407  14.916   8.595  0.2898  0.2794 -0.0148
  491POPI   C4B 7820  17.215  15.051   8.186 -0.0913  0.0959  0.2974
  492POPI    C1 7821  15.537  10.848  10.601  0.0604 -0.0655  0.3014
  492POPI    C2 7822  15.238  10.982  10.830  0.0060 -0.0776  0.2375
  492POPI    C3 7823  15.417  10.636  10.918  0.1670  0.0498  0.4205
  492POPI   PO4 7824  15.447  10.806  10.246  0.0612  0.1077 -0.0008
  492POPI   GL1 7825  15.507  10.376  10.047 -0.3785 -0.1523 -0.2033
  492POPI   GL2 7826  15.472  10.018  10.065 -0.1409 -0.0513 -0.0972
  492POPI   C1A 7827  15.568  10.269   9.608 -0.0182  0.0059  0.3337
  492POPI   D2A 7828  15.612  10.054   9.343 -0.0606  0.1894 -0.1508
  492POPI   C3A 7829  15.731  10.326   8.967  0.0342 -0.0750  0.2205
  492POPI   C4A 7830  15.669  10.433   8.593 -0.0204  0.0517  0.0288
  492POPI   C1B 7831  15.239   9.870   9.690 -0.2477  0.1614 -0.1896
  492POPI   C2B 7832  15.131   9.690   9.312  0.2519 -0.1781 -0.2527
  492POPI   C3B 7833  15.163   9.435   8.953  0.2318 -0.2270 -0.1390
  492POPI   C4B 7834  15.248   9.090   8.729 -0.1566  0.1423 -0.3604
  493POPI    C1 7835   3.450   9.905  10.090 -0.4650 -0.5925 -0.2281
  493POPI    C2 7836   3.075   9.908  10.229 -0.2810 -0.0035  0.3057
  493POPI    C3 7837   3.372   9.772  10.459 -0.0866  0.1094  0.1254
  493POPI   PO4 7838   3.403   9.918   9.877  0.1047  0.0059 -0.0816
  493POPI   GL1 7839   3.122   9.904   9.508 -0.1166 -0.1531  0.2224
  493POPI   GL2 7840   3.006  10.249   9.375  0.0520 -0.1748  0.1813
  493POPI   C1A 7841   3.428  10.016   9.059 -0.0642  0.2419 -0.2135
  493POPI   D2A 7842   3.368   9.822   8.567  0.0733  0.0115 -0.1380
  493POPI   C3A 7843   3.169  10.050   8.247  0.1106  0.1582  0.1501
  493POPI   C4A 7844   3.098  10.209   7.918 -0.0051  0.1712 -0.0492
  493POPI   C1B 7845   2.674  10.258   9.109 -0.1366 -0.0985 -0.0096
  493POPI   C2B 7846   2.263  10.310   8.955 -0.0257 -0.3902  0.2585
  493POPI   C3B 7847   1.859  10.443   8.920 -0.2542  0.1078  0.1033
  493POPI   C4B 7848   1.588  10.653   8.719  0.1208 -0.0645 -0.1452
  494POPI    C1 7849   5.734   6.760  10.121 -0.0796 -0.2537  0.0120
  494POPI    C2 7850   5.910   6.947  10.428  0.0406 -0.0580 -0.1736
  494POPI    C3 7851   5.534   6.817  10.463 -0.0331  0.1873 -0.0278
  494POPI   PO4 7852   5.839   6.817   9.915 -0.0271  0.1262 -0.0025
  494POPI   GL1 7853   6.044   6.954   9.592 -0.0270  0.1692  0.0797
  494POPI   GL2 7854   6.221   7.178   9.633  0.1716 -0.2363 -0.1624
  494POPI   C1A 7855   5.942   6.767   9.134  0.0616 -0.1282  0.1496
  494POPI   D2A 7856   5.946   6.970   8.614  0.1670 -0.0615  0.1364
  494POPI   C3A 7857   5.699   6.787   8.331 -0.2553  0.0187 -0.2000
  494POPI   C4A 7858   5.475   6.609   8.001 -0.2175 -0.0876  0.1311
  494POPI   C1B 7859   6.235   7.216   9.233 -0.1518 -0.2065  0.1562
  494POPI   C2B 7860   6.091   7.451   8.861 -0.1542  0.0301  0.1058
  494POPI   C3B 7861   6.067   7.551   8.367  0.0330 -0.0690  0.0320
  494POPI   C4B 7862   5.850   7.832   8.055  0.1272 -0.2220 -0.0524
  495POPI    C1 7863  11.020  13.880  10.347  0.0575  0.1062  0.1519
  495POPI    C2 7864  11.341  13.786  10.566  0.0454 -0.1028  0.0830
  495POPI    C3 7865  11.092  14.075  10.688  0.2745  0.0816  0.1215
  495POPI   PO4 7866  11.155  13.899  10.116 -0.0127 -0.0920  0.0535
  495POPI   GL1 7867  11.081  13.752   9.707 -0.0023  0.0123 -0.1343
  495POPI   GL2 7868  10.830  13.609   9.829 -0.1700  0.0669  0.1889
  495POPI   C1A 7869  11.366  14.041   9.587  0.0095  0.0648 -0.1973
  495POPI   D2A 7870  11.610  14.167   9.268 -0.1457 -0.1155 -0.0245
  495POPI   C3A 7871  11.809  14.187   8.840 -0.0690 -0.5056 -0.2192
  495POPI   C4A 7872  11.930  13.915   8.612 -0.1866 -0.0711  0.1197
  495POPI   C1B 7873  10.807  13.537   9.353 -0.0537 -0.0773 -0.2507
  495POPI   C2B 7874  10.821  13.707   9.030  0.0320  0.1119 -0.3692
  495POPI   C3B 7875  10.957  13.622   8.659 -0.2929  0.1374  0.1864
  495POPI   C4B 7876  11.333  13.712   8.385 -0.0452 -0.2214  0.1096
  496POPI    C1 7877  15.932  16.628  10.629  0.1197  0.0342  0.0061
  496POPI    C2 7878  15.559  16.725  10.737  0.0311 -0.1378 -0.1410
  496POPI    C3 7879  15.854  16.732  11.008 -0.0387  0.1937 -0.0688
  496POPI   PO4 7880  16.006  16.822  10.410  0.1268 -0.0948  0.0066
  496POPI   GL1 7881  15.992  17.056   9.973 -0.3334 -0.1450  0.1355
  496POPI   GL2 7882  16.262  16.791   9.974  0.1035  0.1675  0.1000
  496POPI   C1A 7883  15.764  16.766   9.712  0.3202  0.0695  0.0587
  496POPI   D2A 7884  15.772  16.623   9.311  0.0763 -0.1018 -0.1223
  496POPI   C3A 7885  15.698  16.740   8.893  0.0261  0.0977 -0.2108
  496POPI   C4A 7886  15.515  16.649   8.490  0.0788  0.2587 -0.2902
  496POPI   C1B 7887  16.224  16.880   9.617 -0.0661  0.4887 -0.1093
  496POPI   C2B 7888  16.228  16.919   9.140 -0.3184  0.0632  0.1210
  496POPI   C3B 7889  16.141  16.978   8.670 -0.1426 -0.0076 -0.1988
  496POPI   C4B 7890  16.142  17.074   8.202  0.2995  0.0491 -0.2087
  497POPI    C1 7891  17.931   4.252  10.867  0.0849  0.1188 -0.2284
  497POPI    C2 7892  17.801   4.621  10.952  0.2115  0.0993  0.0588
  497POPI    C3 7893  17.962   4.394  11.240 -0.1605 -0.3038 -0.0401
  497POPI   PO4 7894  18.054   4.242  10.625 -0.0156 -0.1800 -0.0372
  497POPI   GL1 7895  17.830   4.163  10.275  0.1634 -0.1681  0.0448
  497POPI   GL2 7896  17.703   3.997  10.048  0.1189 -0.1240  0.1033
  497POPI   C1A 7897  17.382   4.403  10.151  0.0225  0.2492 -0.0902
  497POPI   D2A 7898  17.404   4.446   9.640  0.0104 -0.1001 -0.2305
  497POPI   C3A 7899  17.916   4.341   9.531  0.5790  0.0357 -0.1792
  497POPI   C4A 7900  18.106   3.864   9.583  0.2641  0.0482 -0.1508
  497POPI   C1B 7901  17.542   3.984   9.609  0.1361  0.2199 -0.2060
  497POPI   C2B 7902  17.740   3.968   9.222  0.2705 -0.0519  0.2323
  497POPI   C3B 7903  17.742   4.191   8.841  0.0536 -0.1381  0.1856
  497POPI   C4B 7904  17.780   4.693   8.757  0.2610 -0.0910 -0.2291
  498POPI    C1 7905   2.063   8.801  10.605 -0.0187 -0.0129 -0.0418
  498POPI    C2 7906   1.813   9.067  10.769  0.1488  0.1120  0.0132
  498POPI    C3 7907   1.819   8.690  10.902 -0.0319  0.1003 -0.0097
  498POPI   PO4 7908   2.023   8.810  10.294  0.1551  0.0768  0.2259
  498POPI   GL1 7909   1.951   8.728   9.875 -0.0894 -0.3426 -0.1441
  498POPI   GL2 7910   1.657   8.672   9.953  0.3224 -0.1118  0.3209
  498POPI   C1A 7911   2.194   8.538   9.551 -0.2432 -0.3234  0.3261
  498POPI   D2A 7912   2.310   8.305   9.159  0.1279 -0.0204  0.0590
  498POPI   C3A 7913   2.156   8.243   8.838 -0.0508  0.1737 -0.0093
  498POPI   C4A 7914   2.123   8.125   8.400 -0.0536  0.1038 -0.0904
  498POPI   C1B 7915   1.737   8.767   9.467 -0.0102  0.1886 -0.0266
  498POPI   C2B 7916   1.887   8.510   9.097  0.1225 -0.1376 -0.2405
  498POPI   C3B 7917   1.839   8.472   8.568  0.1040  0.0920  0.1500
  498POPI   C4B 7918   1.848   8.504   8.137  0.0506 -0.0525 -0.2666
  499POPI    C1 7919  12.660  10.315  10.317 -0.0824  0.2543 -0.0941
  499POPI    C2 7920  12.333  10.085  10.336 -0.0065  0.1499 -0.0437
  499POPI    C3 7921  12.334  10.446  10.509 -0.0129  0.0494  0.1700
  499POPI   PO4 7922  12.736  10.154  10.087  0.0748  0.2280  0.1126
  499POPI   GL1 7923  12.759  10.248   9.686 -0.2321 -0.1851 -0.1549
  499POPI   GL2 7924  13.178  10.200   9.782  0.0327 -0.3482  0.0210
  499POPI   C1A 7925  12.826  10.552   9.381  0.6177 -0.2747 -0.1652
  499POPI   D2A 7926  12.641  10.981   9.246 -0.1050 -0.1763 -0.1448
  499POPI   C3A 7927  12.676  11.087   8.814 -0.0100 -0.1368  0.2002
  499POPI   C4A 7928  12.737  11.263   8.462  0.0560 -0.3438 -0.1254
  499POPI   C1B 7929  13.079  10.049   9.386 -0.1134  0.2473  0.1125
  499POPI   C2B 7930  13.279   9.912   8.952 -0.1578  0.2547  0.0086
  499POPI   C3B 7931  13.413   9.894   8.520  0.2983  0.1167  0.2244
  499POPI   C4B 7932  13.525   9.899   8.225 -0.0279  0.1950 -0.2228
  500POPI    C1 7933  11.971   5.384  10.528  0.0947  0.0164  0.0588
  500POPI    C2 7934  11.726   5.605  10.754  0.0317  0.1522 -0.1393
  500POPI    C3 7935  11.656   5.214  10.706  0.0031  0.1377  0.0139
  500POPI   PO4 7936  11.928   5.480  10.198 -0.4706 -0.1112 -0.1811
  500POPI   GL1 7937  11.761   5.820   9.953 -0.2935 -0.3538 -0.0783
  500POPI   GL2 7938  11.670   5.542   9.730  0.0492 -0.1785  0.0630
  500POPI   C1A 7939  11.658   6.092   9.683  0.1318 -0.0091 -0.0857
  500POPI   D2A 7940  11.245   6.273   9.501  0.1151  0.0020  0.3317
  500POPI   C3A 7941  11.257   6.338   9.021  0.2244 -0.1109  0.3577
  500POPI   C4A 7942  11.280   6.452   8.570 -0.0601  0.2505  0.4104
  500POPI   C1B 7943  11.867   5.601   9.343  0.1611 -0.2479 -0.0724
  500POPI   C2B 7944  11.950   5.684   8.881 -0.0039 -0.1362  0.2581
  500POPI   C3B 7945  12.147   5.731   8.448  0.0590 -0.3710  0.0283
  500POPI   C4B 7946  12.018   5.776   8.114  0.0279  0.0946 -0.2001
  501POPI    C1 7947   1.370   9.686  10.338  0.2757  0.0699 -0.2244
  501POPI    C2 7948   1.650   9.577  10.603  0.1138  0.0053 -0.0782
  501POPI    C3 7949   1.344   9.808  10.718 -0.0882 -0.2217 -0.1499
  501POPI   PO4 7950   1.497   9.720  10.082 -0.1262 -0.1337  0.0813
  501POPI   GL1 7951   1.359   9.593   9.626  0.2855  0.1527  0.0527
  501POPI   GL2 7952   1.084   9.410   9.567  0.1272  0.0327 -0.1933
  501POPI   C1A 7953   1.576   9.302   9.319  0.1458  0.1323  0.0250
  501POPI   D2A 7954   1.435   9.483   8.918 -0.0416  0.0311 -0.2650
  501POPI   C3A 7955   1.671   9.409   8.572  0.1304  0.4187 -0.1879
  501POPI   C4A 7956   1.586   9.039   8.428 -0.3460 -0.0734  0.0426
  501POPI   C1B 7957   1.080   9.302   9.153 -0.3113  0.0811  0.1318
  501POPI   C2B 7958   1.063   9.092   8.732  0.2112 -0.1874 -0.2836
  501POPI   C3B 7959   1.027   9.125   8.278 -0.0380  0.0966 -0.1732
  501POPI   C4B 7960   1.304   8.942   7.851  0.2933 -0.1160  0.0905
  502POPI    C1 7961   8.118  17.533   9.712 -0.1004 -0.1469 -0.2799
  502POPI    C2 7962   7.910  17.448  10.043  0.1822  0.0647 -0.0422
  502POPI    C3 7963   7.858  17.229   9.712 -0.0731 -0.1766  0.1522
  502POPI   PO4 7964   8.115  17.761   9.688  0.1876 -0.0228  0.0750
  502POPI   GL1 7965   8.059  18.066   9.278 -0.5031  0.2272 -0.0092
  502POPI   GL2 7966   7.775  18.272   9.339  0.1468  0.0979  0.1135
  502POPI   C1A 7967   7.865  18.043   8.892  0.2996 -0.0139 -0.3813
  502POPI   D2A 7968   7.849  18.208   8.500 -0.0599 -0.0604 -0.1281
  502POPI   C3A 7969   8.162  18.339   8.262 -0.0030 -0.0632  0.0152
  502POPI   C4A 7970   8.516  18.264   8.018  0.0734  0.0743 -0.1329
  502POPI   C1B 7971   7.519  18.424   8.856 -0.1625 -0.0722  0.0570
  502POPI   C2B 7972   7.570  18.662   8.510  0.0539 -0.1592  0.0470
  502POPI   C3B 7973   7.762  18.653   8.200 -0.2529  0.0173 -0.0480
  502POPI   C4B 7974   8.077  18.618   7.853  0.0865  0.2003 -0.0207
  503POPI    C1 7975  17.079   2.247  10.446 -0.1380 -0.2421  0.0781
  503POPI    C2 7976  17.080   2.068  10.804 -0.0330 -0.1916  0.1032
  503POPI    C3 7977  17.174   2.456  10.774 -0.0444 -0.1950  0.0214
  503POPI   PO4 7978  17.235   2.164  10.324 -0.0956  0.1912 -0.1872
  503POPI   GL1 7979  17.193   1.806   9.990  0.2221  0.0102 -0.0939
  503POPI   GL2 7980  17.489   1.814  10.051 -0.0430 -0.0577 -0.3074
  503POPI   C1A 7981  17.404   1.838   9.564 -0.0640  0.0151  0.0157
  503POPI   D2A 7982  17.334   2.044   9.192 -0.4663  0.1814 -0.1555
  503POPI   C3A 7983  17.508   2.262   8.806 -0.1807  0.3981 -0.2068
  503POPI   C4A 7984  17.701   2.501   8.506  0.1315 -0.3349 -0.2237
  503POPI   C1B 7985  17.879   1.648   9.850 -0.2077  0.3014  0.1820
  503POPI   C2B 7986  18.126   1.522   9.553  0.4332 -0.0876 -0.1236
  503POPI   C3B 7987  18.211   1.090   9.519  0.1761  0.1955 -0.1282
  503POPI   C4B 7988  17.896   0.771   9.404  0.0600 -0.0070 -0.4710
  504POPI    C1 7989  18.250  14.511  10.461  0.0304  0.1366 -0.0299
  504POPI    C2 7990  18.195  14.899  10.542 -0.0773  0.1689 -0.2486
  504POPI    C3 7991  18.548  14.727  10.617 -0.0152  0.3197 -0.1916
  504POPI   PO4 7992  18.214  14.480  10.266 -0.1495  0.2848 -0.3630
  504POPI   GL1 7993  18.123  14.300   9.875  0.0579 -0.0884  0.0826
  504POPI   GL2 7994  17.763  14.329   9.798  0.1959 -0.4377  0.3257
  504POPI   C1A 7995  18.338  14.424   9.454 -0.3115 -0.2548  0.1412
  504POPI   D2A 7996  18.424  14.511   8.965  0.0066 -0.2293  0.2106
  504POPI   C3A 7997  18.288  14.689   8.608  0.2727 -0.2004 -0.0982
  504POPI   C4A 7998  18.312  14.767   8.154  0.0493 -0.0131  0.3307
  504POPI   C1B 7999  17.859  14.215   9.347  0.0971 -0.0733 -0.0185
  504POPI   C2B 8000  17.872  14.060   8.978  0.0711 -0.2500 -0.3614
  504POPI   C3B 8001  17.930  14.095   8.510  0.1011 -0.1765 -0.0416
  504POPI   C4B 8002  18.257  14.242   8.246  0.4376  0.0070  0.3173
  505POPI    C1 8003   2.329  17.406  10.203  0.2938 -0.2956  0.2835
  505POPI    C2 8004   2.612  17.657  10.331  0.0407  0.0303  0.2171
  505POPI    C3 8005   2.247  17.668  10.494 -0.0348 -0.1463  0.0630
  505POPI   PO4 8006   2.503  17.254  10.018 -0.2065 -0.1105  0.0164
  505POPI   GL1 8007   2.688  17.097   9.698 -0.0920 -0.1688  0.3677
  505POPI   GL2 8008   2.813  16.862   9.577 -0.0431 -0.3257 -0.0374
  505POPI   C1A 8009   2.748  17.283   9.314  0.3136  0.1437  0.1949
  505POPI   D2A 8010   2.641  17.277   8.928 -0.0855  0.0189  0.2620
  505POPI   C3A 8011   2.375  17.331   8.603  0.3559  0.1906  0.0452
  505POPI   C4A 8012   2.264  17.305   8.144  0.1225 -0.0959  0.1078
  505POPI   C1B 8013   2.721  16.821   9.130  0.1545  0.1849  0.0325
  505POPI   C2B 8014   2.870  16.709   8.645  0.4478  0.1721 -0.0362
  505POPI   C3B 8015   2.814  17.083   8.349 -0.0860 -0.4233  0.1567
  505POPI   C4B 8016   2.706  17.184   7.982  0.0620 -0.2151 -0.2316
  506POPI    C1 8017   5.569  10.381  10.626  0.1273  0.1454 -0.2192
  506POPI    C2 8018   5.538  10.704  10.859 -0.1213  0.0229 -0.0776
  506POPI    C3 8019   5.782  10.406  10.963 -0.1645  0.0075 -0.0202
  506POPI   PO4 8020   5.439  10.492  10.418 -0.5667 -0.0968  0.1673
  506POPI   GL1 8021   5.387  10.316  10.055  0.0927 -0.3249 -0.1383
  506POPI   GL2 8022   5.488  10.007  10.015  0.1456 -0.0978  0.0234
  506POPI   C1A 8023   5.516  10.353   9.656  0.0991 -0.1159  0.1217
  506POPI   D2A 8024   5.553  10.370   9.245 -0.0902 -0.0294 -0.3117
  506POPI   C3A 8025   5.422   9.950   9.111 -0.2855 -0.0527 -0.1798
  506POPI   C4A 8026   5.710   9.592   9.090 -0.0453  0.3164 -0.1350
  506POPI   C1B 8027   5.316   9.769   9.643 -0.0457  0.0470  0.2001
  506POPI   C2B 8028   5.203   9.441   9.315  0.2383  0.1324  0.0324
  506POPI   C3B 8029   5.217   9.466   8.894 -0.1312  0.0357 -0.0775
  506POPI   C4B 8030   5.227   9.394   8.510  0.2091 -0.1981 -0.0037
  507POPI    C1 8031   6.811  12.797   9.975  0.0176  0.0124  0.1231
  507POPI    C2 8032   7.192  12.677   9.985 -0.0102 -0.0771  0.1219
  507POPI    C3 8033   7.016  12.813  10.318 -0.0237 -0.1819  0.1579
  507POPI   PO4 8034   6.740  12.495   9.821  0.2846 -0.0349 -0.0072
  507POPI   GL1 8035   6.474  12.664   9.610 -0.2326 -0.0640 -0.4132
  507POPI   GL2 8036   6.109  12.538   9.622  0.0319 -0.0357  0.0368
  507POPI   C1A 8037   6.638  12.570   9.162 -0.0818 -0.2549  0.2042
  507POPI   D2A 8038   6.639  12.666   8.784  0.1169  0.0373 -0.0184
  507POPI   C3A 8039   6.683  12.550   8.385  0.0421  0.0693  0.0700
  507POPI   C4A 8040   6.872  12.341   8.016 -0.0382 -0.4973 -0.3101
  507POPI   C1B 8041   6.192  12.393   9.217  0.3513  0.0364 -0.1305
  507POPI   C2B 8042   6.181  12.506   8.724  0.2233 -0.0714  0.0912
  507POPI   C3B 8043   6.133  12.472   8.342 -0.0632  0.1035  0.3450
  507POPI   C4B 8044   6.380  12.557   8.042 -0.1281 -0.0014  0.1595
  508POPI    C1 8045   2.448   9.562  10.321 -0.0789 -0.0226 -0.1012
  508POPI    C2 8046   2.556   9.897  10.511 -0.2035 -0.1092  0.1262
  508POPI    C3 8047   2.498   9.560  10.718 -0.0469 -0.2810 -0.1051
  508POPI   PO4 8048   2.480   9.670  10.047  0.6025  0.4234 -0.0255
  508POPI   GL1 8049   2.383   9.485   9.594 -0.0493 -0.0562  0.0509
  508POPI   GL2 8050   2.538   9.755   9.445 -0.1853 -0.0594 -0.1626
  508POPI   C1A 8051   2.445   9.286   9.119  0.0644 -0.0437 -0.0095
  508POPI   D2A 8052   2.754   9.161   8.821 -0.0726 -0.1835 -0.3283
  508POPI   C3A 8053   2.641   9.083   8.403  0.1928 -0.1261 -0.1598
  508POPI   C4A 8054   2.606   9.285   8.019 -0.0305  0.0827 -0.1447
  508POPI   C1B 8055   2.519   9.776   8.989  0.1316  0.1527 -0.0591
  508POPI   C2B 8056   2.516   9.569   8.522  0.3077  0.0058 -0.0424
  508POPI   C3B 8057   2.761   9.732   8.200 -0.0599 -0.0474  0.0386
  508POPI   C4B 8058   3.060   9.646   7.952  0.0260  0.0280 -0.1571
  509POPI    C1 8059   6.053   5.761  10.600  0.1810  0.1627  0.1470
  509POPI    C2 8060   6.218   6.124  10.630 -0.1194  0.3083  0.0718
  509POPI    C3 8061   5.855   6.056  10.784  0.0441 -0.0332  0.3187
  509POPI   PO4 8062   6.243   5.710  10.355 -0.0518 -0.0138  0.2032
  509POPI   GL1 8063   6.199   5.636   9.892  0.1719 -0.0011  0.1423
  509POPI   GL2 8064   5.897   5.874   9.820 -0.1265  0.0614  0.1173
  509POPI   C1A 8065   6.402   5.798   9.499  0.0190  0.1166 -0.3111
  509POPI   D2A 8066   6.832   5.694   9.422  0.3065  0.1542 -0.2760
  509POPI   C3A 8067   7.003   5.281   9.138  0.2223 -0.1724  0.0013
  509POPI   C4A 8068   6.810   5.090   8.882 -0.4891  0.0305  0.2251
  509POPI   C1B 8069   5.934   5.636   9.408  0.2144  0.0692  0.1308
  509POPI   C2B 8070   5.858   5.817   9.092  0.4131 -0.0655 -0.1961
  509POPI   C3B 8071   5.841   5.948   8.690 -0.0395  0.2100 -0.2007
  509POPI   C4B 8072   5.706   6.181   8.283 -0.0146 -0.1964  0.0536
  510POPI    C1 8073  14.948   7.558  10.633 -0.1243 -0.0451  0.2073
  510POPI    C2 8074  15.149   7.838  10.836 -0.1020  0.1767 -0.1129
  510POPI    C3 8075  14.749   7.842  10.832 -0.1206 -0.1707  0.3931
  510POPI   PO4 8076  15.138   7.662  10.385  0.2653  0.1965  0.2625
  510POPI   GL1 8077  14.984   7.914  10.034  0.0271  0.4013  0.3921
  510POPI   GL2 8078  14.792   7.784   9.820  0.0305  0.0728  0.0764
  510POPI   C1A 8079  15.076   8.141   9.646 -0.2061 -0.3077 -0.1647
  510POPI   D2A 8080  15.178   8.183   9.285  0.2423  0.1147 -0.2602
  510POPI   C3A 8081  15.032   7.873   8.939  0.1848  0.2310 -0.4144
  510POPI   C4A 8082  14.954   7.716   8.532  0.1007  0.0035  0.2082
  510POPI   C1B 8083  14.974   7.639   9.498  0.1859  0.0486  0.1319
  510POPI   C2B 8084  14.919   7.425   9.111  0.2654 -0.0898  0.0026
  510POPI   C3B 8085  15.028   7.241   8.736 -0.1087 -0.2120  0.0968
  510POPI   C4B 8086  15.356   7.190   8.423  0.0413  0.0431 -0.0412
  511POPI    C1 8087   0.930   2.474  10.654  0.2221 -0.1426 -0.0825
  511POPI    C2 8088   0.847   2.663  10.311 -0.0479  0.1696  0.1488
  511POPI    C3 8089   1.195   2.729  10.497  0.2053 -0.1866 -0.1833
  511POPI   PO4 8090   0.805   2.207  10.541  0.0074 -0.0309 -0.1507
  511POPI   GL1 8091   0.348   2.145  10.389 -0.0993  0.1742 -0.1606
  511POPI   GL2 8092   0.526   2.309  10.107  0.1407 -0.1609  0.2537
  511POPI   C1A 8093   0.262   1.882  10.023 -0.0866  0.4514  0.1381
  511POPI   D2A 8094   0.287   1.640   9.731 -0.0737  0.1043 -0.0196
  511POPI   C3A 8095   0.253   1.839   9.377  0.1688  0.1146  0.1802
  511POPI   C4A 8096   0.322   1.965   8.895  0.3874 -0.1724 -0.0124
  511POPI   C1B 8097   0.567   2.072   9.701 -0.2171  0.1537  0.1368
  511POPI   C2B 8098   0.761   1.803   9.419 -0.2470 -0.2208  0.1427
  511POPI   C3B 8099   0.959   1.873   8.998 -0.0571  0.0950 -0.0838
  511POPI   C4B 8100   1.059   2.152   8.711 -0.3361  0.1270 -0.1308
  512POPI    C1 8101  17.226  10.593  10.703 -0.2278  0.2114 -0.2137
  512POPI    C2 8102  16.956  10.478  10.975  0.1319 -0.1401  0.0050
  512POPI    C3 8103  17.168  10.812  11.032 -0.2216  0.1159 -0.1484
  512POPI   PO4 8104  17.063  10.544  10.364 -0.1121 -0.2283 -0.0115
  512POPI   GL1 8105  16.884  10.506   9.998 -0.2755 -0.1510  0.1599
  512POPI   GL2 8106  17.228  10.556   9.892  0.0899 -0.1933  0.0216
  512POPI   C1A 8107  16.931  10.733   9.559  0.1286 -0.1068 -0.0909
  512POPI   D2A 8108  17.042  10.779   9.166  0.0415  0.1835  0.2349
  512POPI   C3A 8109  16.950  10.923   8.805  0.3983 -0.0051  0.1610
  512POPI   C4A 8110  16.899  11.089   8.510  0.1065  0.0609 -0.0348
  512POPI   C1B 8111  17.255  10.351   9.487 -0.1747 -0.1180 -0.1153
  512POPI   C2B 8112  16.873  10.316   9.274  0.0252 -0.2760  0.0477
  512POPI   C3B 8113  16.742  10.232   8.872  0.3829 -0.0506 -0.0917
  512POPI   C4B 8114  16.595   9.962   8.539  0.1877  0.0970 -0.1112
  513POPI    C1 8115   6.401  18.332  10.177 -0.3160 -0.1426 -0.1054
  513POPI    C2 8116   6.161  18.103  10.399 -0.2707 -0.1441 -0.0578
  513POPI    C3 8117   6.553  18.026  10.384 -0.2190  0.0685  0.1409
  513POPI   PO4 8118   6.185  18.453  10.024  0.1851  0.1395  0.2616
  513POPI   GL1 8119   6.099  18.258   9.508 -0.1300  0.1949  0.1310
  513POPI   GL2 8120   6.379  18.597   9.485  0.0124  0.3409  0.3457
  513POPI   C1A 8121   6.408  18.289   9.118  0.0670  0.0743  0.1663
  513POPI   D2A 8122   6.534  18.107   8.718  0.0900 -0.1082  0.1639
  513POPI   C3A 8123   6.487  18.281   8.352  0.2297  0.0334  0.1554
  513POPI   C4A 8124   6.345  18.534   7.960  0.0654  0.1622  0.3171
  513POPI   C1B 8125   6.079  18.671   9.187  0.1813  0.1291  0.1020
  513POPI   C2B 8126   6.103  18.823   8.710 -0.0954  0.2246 -0.0894
  513POPI   C3B 8127   6.206  18.880   8.257 -0.2138 -0.0649  0.2435
  513POPI   C4B 8128   6.275  19.051   7.878 -0.1587  0.2512  0.0606
  514POPI    C1 8129  16.369  16.170  10.458  0.0968  0.1517 -0.0547
  514POPI    C2 8130  16.254  16.302  10.818 -0.0339  0.0698 -0.0658
  514POPI    C3 8131  16.430  16.552  10.560  0.2317  0.0840  0.1243
  514POPI   PO4 8132  16.160  15.928  10.238 -0.2313 -0.0942 -0.5154
  514POPI   GL1 8133  15.987  15.911   9.891 -0.3382 -0.2223 -0.0394
  514POPI   GL2 8134  16.213  15.993   9.592 -0.0480 -0.3395 -0.3116
  514POPI   C1A 8135  15.963  15.617   9.539 -0.0322 -0.1247 -0.0501
  514POPI   D2A 8136  15.605  15.660   9.276 -0.3397  0.1949 -0.1083
  514POPI   C3A 8137  15.576  15.662   8.855  0.0625 -0.2574  0.0749
  514POPI   C4A 8138  15.758  15.441   8.526 -0.2171  0.2632  0.4685
  514POPI   C1B 8139  16.219  16.420   9.387  0.0238  0.2740  0.1380
  514POPI   C2B 8140  16.183  16.492   8.862 -0.1276  0.0188  0.1390
  514POPI   C3B 8141  16.060  16.388   8.463 -0.0694  0.1620 -0.1840
  514POPI   C4B 8142  16.174  16.152   8.118 -0.1039  0.1084  0.0720
  515POPI    C1 8143  15.475  12.955  10.431 -0.1688  0.0090 -0.2907
  515POPI    C2 8144  15.846  12.899  10.293 -0.0590  0.1591 -0.0624
  515POPI    C3 8145  15.745  13.249  10.458 -0.1482 -0.0543  0.3492
  515POPI   PO4 8146  15.415  12.628  10.255  0.0113 -0.0617 -0.2917
  515POPI   GL1 8147  15.636  12.606   9.856  0.1048  0.2181 -0.0741
  515POPI   GL2 8148  15.693  12.380   9.776  0.1491 -0.3701  0.0172
  515POPI   C1A 8149  15.457  12.725   9.453 -0.4427 -0.4245  0.0756
  515POPI   D2A 8150  15.441  12.793   9.204 -0.0433  0.1872 -0.1138
  515POPI   C3A 8151  15.500  12.889   8.838  0.1261 -0.1179  0.0151
  515POPI   C4A 8152  15.512  12.959   8.471 -0.0290  0.0023 -0.1302
  515POPI   C1B 8153  15.535  12.254   9.359  0.1393 -0.2271  0.3068
  515POPI   C2B 8154  15.428  12.317   8.885 -0.3472 -0.0502  0.1865
  515POPI   C3B 8155  15.196  12.559   8.583  0.0254  0.0931 -0.3931
  515POPI   C4B 8156  15.140  12.495   8.090 -0.0566  0.0863 -0.1745
  516POPI    C1 8157  13.157   0.593  10.218 -0.3449 -0.2572 -0.0327
  516POPI    C2 8158  13.326   0.247  10.326  0.0088 -0.1114 -0.1053
  516POPI    C3 8159  13.175   0.492  10.604  0.0758 -0.1637 -0.0225
  516POPI   PO4 8160  13.153   0.617   9.940 -0.1999 -0.2528 -0.0456
  516POPI   GL1 8161  13.021   0.895   9.536 -0.0290  0.2148 -0.0175
  516POPI   GL2 8162  12.888   0.659   9.420  0.0575 -0.3755 -0.5655
  516POPI   C1A 8163  13.197   1.017   9.180 -0.0703  0.3400  0.0918
  516POPI   D2A 8164  13.370   1.316   8.795 -0.0642  0.0564 -0.0995
  516POPI   C3A 8165  13.513   1.242   8.434 -0.0204  0.0594  0.1789
  516POPI   C4A 8166  13.762   1.114   8.055  0.0632 -0.0453  0.1142
  516POPI   C1B 8167  13.047   0.517   9.138 -0.0093  0.1514 -0.0321
  516POPI   C2B 8168  13.271   0.408   8.733 -0.1939  0.0416 -0.0092
  516POPI   C3B 8169  13.310   0.219   8.332 -0.0441 -0.0690  0.0051
  516POPI   C4B 8170  13.474  -0.103   8.066 -0.1249 -0.2064 -0.1177
  517POPI    C1 8171   1.662  17.827  10.400  0.0032  0.1472 -0.2569
  517POPI    C2 8172   1.921  18.082  10.566  0.1432 -0.1306 -0.0411
  517POPI    C3 8173   1.562  18.211  10.448  0.2722  0.1983 -0.0837
  517POPI   PO4 8174   1.858  17.761  10.159 -0.1150  0.0591 -0.3715
  517POPI   GL1 8175   2.036  17.851   9.783  0.1925  0.0053 -0.2125
  517POPI   GL2 8176   2.140  18.193   9.610 -0.1806  0.0114  0.0212
  517POPI   C1A 8177   1.784  17.776   9.410  0.0011 -0.1928 -0.2603
  517POPI   D2A 8178   1.639  17.652   9.091 -0.2012 -0.3698  0.0135
  517POPI   C3A 8179   1.440  17.703   8.804 -0.2152 -0.0827  0.2558
  517POPI   C4A 8180   1.212  17.692   8.421 -0.3830  0.3345  0.0054
  517POPI   C1B 8181   1.945  18.177   9.207  0.3830  0.1612  0.0869
  517POPI   C2B 8182   1.789  18.088   8.790 -0.0929  0.2271 -0.3022
  517POPI   C3B 8183   1.643  17.971   8.347  0.1720  0.3057  0.1880
  517POPI   C4B 8184   1.739  18.005   7.907  0.0280 -0.0185  0.2059
  518POPI    C1 8185   7.525  15.237  10.013  0.1478 -0.3452  0.1428
  518POPI    C2 8186   7.239  14.974  10.108 -0.0227 -0.1095  0.2933
  518POPI    C3 8187   7.146  15.358  10.051  0.1648 -0.1400 -0.2840
  518POPI   PO4 8188   7.824  15.096  10.094  0.0078  0.2660  0.0183
  518POPI   GL1 8189   8.054  15.374   9.860 -0.2528  0.1312 -0.0069
  518POPI   GL2 8190   8.316  15.629   9.801  0.0257 -0.2943 -0.4747
  518POPI   C1A 8191   8.096  15.175   9.442  0.1477  0.2218  0.3848
  518POPI   D2A 8192   7.995  15.242   8.944  0.0012 -0.1210 -0.0246
  518POPI   C3A 8193   7.539  15.299   8.598 -0.2289  0.1299 -0.0157
  518POPI   C4A 8194   7.245  15.078   8.307 -0.1716  0.3994 -0.1936
  518POPI   C1B 8195   8.380  15.650   9.270 -0.1352 -0.0613 -0.1329
  518POPI   C2B 8196   8.288  15.700   8.855  0.0357  0.1396  0.1214
  518POPI   C3B 8197   8.047  15.560   8.518 -0.4589 -0.2550 -0.0156
  518POPI   C4B 8198   7.940  15.120   8.309  0.0427  0.0832  0.4809
  519POPI    C1 8199   3.544   5.596  10.425  0.0385  0.0485 -0.1774
  519POPI    C2 8200   3.940   5.578  10.370  0.0605  0.1924 -0.0739
  519POPI    C3 8201   3.792   5.732  10.708 -0.0801 -0.1529  0.0273
  519POPI   PO4 8202   3.437   5.375  10.384 -0.3892  0.0632  0.0827
  519POPI   GL1 8203   3.244   5.254   9.921 -0.0968 -0.0694 -0.0997
  519POPI   GL2 8204   3.520   5.437   9.879  0.0157 -0.1790 -0.0658
  519POPI   C1A 8205   2.938   5.189   9.667  0.1234 -0.0734  0.3267
  519POPI   D2A 8206   2.650   4.780   9.635 -0.3788  0.1050  0.2532
  519POPI   C3A 8207   2.411   4.797   9.201 -0.0852 -0.1725 -0.3144
  519POPI   C4A 8208   2.275   4.953   9.262  0.2770 -0.0826 -0.0024
  519POPI   C1B 8209   3.483   5.465   9.533  0.2661  0.0864  0.3053
  519POPI   C2B 8210   3.458   5.790   9.180  0.2037  0.0015  0.0029
  519POPI   C3B 8211   3.340   6.003   8.900 -0.1611 -0.0885 -0.1961
  519POPI   C4B 8212   3.288   6.123   8.458 -0.3764  0.3065  0.2873
  520POPI    C1 8213   1.577  16.938  10.333 -0.1152  0.0114 -0.0648
  520POPI    C2 8214   1.429  16.638  10.552 -0.1640 -0.0317 -0.1564
  520POPI    C3 8215   1.778  16.804  10.652 -0.1477 -0.1040 -0.0923
  520POPI   PO4 8216   1.623  16.902  10.102  0.0398 -0.1885 -0.0133
  520POPI   GL1 8217   1.453  17.139   9.781  0.1170 -0.1552 -0.3010
  520POPI   GL2 8218   1.176  17.267   9.773 -0.0361 -0.1812 -0.1199
  520POPI   C1A 8219   1.663  17.258   9.398  0.1508 -0.0571 -0.0263
  520POPI   D2A 8220   1.841  17.081   8.986 -0.2921 -0.2648  0.4612
  520POPI   C3A 8221   1.943  17.108   8.543 -0.2270 -0.0298  0.0998
  520POPI   C4A 8222   1.868  16.981   8.123 -0.1248  0.4976  0.0228
  520POPI   C1B 8223   0.962  17.024   9.581  0.1321 -0.3731 -0.0642
  520POPI   C2B 8224   0.839  16.901   9.159  0.0890 -0.3159 -0.0743
  520POPI   C3B 8225   0.801  16.887   8.705 -0.1256  0.1683  0.0043
  520POPI   C4B 8226   1.023  16.881   8.438 -0.2669 -0.5353  0.0600
  521POPI    C1 8227  18.691   3.148  10.651  0.0465  0.2934  0.1208
  521POPI    C2 8228  18.958   2.918  10.841  0.0633  0.1516 -0.0721
  521POPI    C3 8229  18.765   3.206  11.040 -0.0377 -0.0986  0.1998
  521POPI   PO4 8230  18.589   2.991  10.480  0.0704 -0.1218 -0.0462
  521POPI   GL1 8231  18.321   2.979  10.161  0.0362 -0.1741 -0.1287
  521POPI   GL2 8232  18.364   2.748  10.013  0.1258 -0.3382 -0.3387
  521POPI   C1A 8233  18.017   2.906   9.722  0.0678 -0.1972  0.0458
  521POPI   D2A 8234  18.117   2.942   9.276  0.2655  0.0567 -0.1043
  521POPI   C3A 8235  17.964   2.767   8.819 -0.1315  0.1241 -0.4088
  521POPI   C4A 8236  17.878   3.004   8.451 -0.1897 -0.0397 -0.0714
  521POPI   C1B 8237  18.539   2.938   9.698  0.0948  0.3066  0.0541
  521POPI   C2B 8238  18.731   2.904   9.275  0.4633  0.0033 -0.1009
  521POPI   C3B 8239  18.912   3.155   8.985  0.2247  0.0915 -0.1604
  521POPI   C4B 8240  19.159   3.410   8.791 -0.1172  0.0726  0.1873
  522POPI    C1 8241   8.444  16.808  10.464  0.1487  0.1002  0.2400
  522POPI    C2 8242   8.158  17.071  10.561 -0.1987 -0.2316  0.1435
  522POPI    C3 8243   8.137  16.695  10.694  0.3321 -0.2004  0.3425
  522POPI   PO4 8244   8.421  16.764  10.228 -0.0542 -0.0676  0.0063
  522POPI   GL1 8245   8.509  16.892   9.775  0.2074 -0.1803 -0.0412
  522POPI   GL2 8246   8.466  17.093   9.562 -0.0386 -0.1958  0.0551
  522POPI   C1A 8247   8.770  16.444   9.557  0.2325  0.2261  0.0864
  522POPI   D2A 8248   8.810  16.291   9.141 -0.0362  0.1010  0.0709
  522POPI   C3A 8249   8.929  16.518   8.812 -0.0804  0.2037  0.2888
  522POPI   C4A 8250   9.215  16.504   8.540  0.4438  0.1779  0.3338
  522POPI   C1B 8251   8.294  17.083   9.096  0.1920  0.2113  0.0368
  522POPI   C2B 8252   8.098  17.204   8.696  0.0378  0.1453 -0.1923
  522POPI   C3B 8253   8.088  17.275   8.316 -0.0146 -0.3015 -0.3078
  522POPI   C4B 8254   8.229  17.031   7.905  0.1804  0.0823 -0.2024
  523POPI    C1 8255  10.756  14.780  10.361 -0.1333 -0.0325 -0.0507
  523POPI    C2 8256  10.536  15.113  10.384  0.1010  0.1015  0.3712
  523POPI    C3 8257  10.524  14.846  10.681  0.1905 -0.0933  0.2019
  523POPI   PO4 8258  10.861  14.813  10.067 -0.0642  0.0804  0.0011
  523POPI   GL1 8259  10.930  15.007   9.575  0.1366 -0.0121  0.0944
  523POPI   GL2 8260  10.653  14.921   9.587 -0.0903 -0.0291  0.0363
  523POPI   C1A 8261  11.094  15.246   9.304 -0.0459 -0.2661 -0.0696
  523POPI   D2A 8262  11.323  15.403   8.944 -0.3348  0.1474  0.0268
  523POPI   C3A 8263  11.025  15.303   8.522  0.1262 -0.0995  0.1855
  523POPI   C4A 8264  10.687  15.120   8.357  0.2367  0.1429 -0.1742
  523POPI   C1B 8265  10.638  14.576   9.211 -0.0728 -0.0066 -0.1450
  523POPI   C2B 8266  10.566  14.486   8.760 -0.1517  0.1395  0.0407
  523POPI   C3B 8267  10.670  14.587   8.330  0.2431 -0.0609  0.0979
  523POPI   C4B 8268  10.912  14.707   7.967  0.0892  0.1632 -0.4393
  524DPPI    C1 8269   7.639  10.419  10.763 -0.0887 -0.1522  0.0993
  524DPPI    C2 8270   7.362  10.538  11.026 -0.1495  0.2304 -0.1303
  524DPPI    C3 8271   7.740  10.665  11.061 -0.0705 -0.0339 -0.0035
  524DPPI   PO4 8272   7.514  10.333  10.593 -0.0022  0.0485 -0.1004
  524DPPI   GL1 8273   7.516  10.214  10.156 -0.0934  0.0806 -0.1417
  524DPPI   GL2 8274   7.744  10.087   9.975 -0.0408  0.0600 -0.4411
  524DPPI   C1A 8275   7.349  10.388   9.800  0.4209 -0.1089 -0.1030
  524DPPI   C2A 8276   7.348  10.154   9.384  0.0004  0.1484 -0.3294
  524DPPI   C3A 8277   7.378   9.904   9.029 -0.2952 -0.2818  0.1911
  524DPPI   C4A 8278   7.521  10.044   8.673  0.0878  0.3578 -0.0652
  524DPPI   C1B 8279   7.448   9.753   9.642 -0.1131 -0.1160 -0.1656
  524DPPI   C2B 8280   7.371   9.494   9.361  0.0237  0.1657  0.0007
  524DPPI   C3B 8281   7.252   9.491   8.933  0.1017 -0.2422  0.3272
  524DPPI   C4B 8282   7.451   9.434   8.582  0.3396  0.3926  0.0664
  525DPPI    C1 8283   2.588  16.045  10.296 -0.0665 -0.0224 -0.3433
  525DPPI    C2 8284   2.871  16.328  10.284 -0.1824  0.1008 -0.2065
  525DPPI    C3 8285   2.518  16.405  10.455 -0.0299 -0.2919  0.3154
  525DPPI   PO4 8286   2.623  15.924  10.007 -0.0592  0.1223  0.2346
  525DPPI   GL1 8287   2.562  15.877   9.597  0.3364 -0.0545  0.0331
  525DPPI   GL2 8288   2.250  15.819   9.552 -0.3944  0.1849 -0.3084
  525DPPI   C1A 8289   2.564  15.910   9.169  0.0835 -0.1019 -0.1052
  525DPPI   C2A 8290   2.487  15.725   8.762 -0.0616 -0.0823 -0.0192
  525DPPI   C3A 8291   2.549  15.671   8.312  0.2098  0.1114 -0.0689
  525DPPI   C4A 8292   2.566  15.753   7.876  0.0605  0.1153 -0.1491
  525DPPI   C1B 8293   2.052  15.927   9.273  0.0301 -0.1036  0.0349
  525DPPI   C2B 8294   1.886  16.050   8.891  0.1695 -0.3250 -0.2396
  525DPPI   C3B 8295   1.908  16.020   8.463  0.1494 -0.2103 -0.3281
  525DPPI   C4B 8296   1.967  15.986   8.032 -0.0654  0.0418  0.0515
  526DPPI    C1 8297   7.910  11.187  10.364  0.1650  0.1213  0.0232
  526DPPI    C2 8298   7.906  10.931  10.671 -0.0203  0.0106 -0.0698
  526DPPI    C3 8299   8.207  11.191  10.631  0.1395 -0.1524  0.0584
  526DPPI   PO4 8300   7.897  11.057  10.133  0.1317  0.1234 -0.2543
  526DPPI   GL1 8301   7.749  10.717   9.812  0.0072 -0.1195  0.4825
  526DPPI   GL2 8302   7.515  10.762  10.018 -0.1609 -0.3826 -0.2312
  526DPPI   C1A 8303   7.925  10.854   9.406  0.0925 -0.0745  0.0752
  526DPPI   C2A 8304   8.125  10.981   8.938 -0.0693 -0.2737 -0.1916
  526DPPI   C3A 8305   8.215  10.995   8.472  0.1640 -0.3778 -0.1459
  526DPPI   C4A 8306   8.390  11.296   8.152  0.1103  0.1637  0.2230
  526DPPI   C1B 8307   7.377  10.819   9.509 -0.2704  0.1577  0.0891
  526DPPI   C2B 8308   7.066  10.952   9.159 -0.2189  0.1365 -0.2905
  526DPPI   C3B 8309   7.101  10.918   8.790  0.1209 -0.2150 -0.0915
  526DPPI   C4B 8310   7.430  10.794   8.521  0.0872 -0.0295 -0.0145
  527DPPI    C1 8311   8.650   9.312  10.310  0.2298  0.1285 -0.1001
  527DPPI    C2 8312   8.739   9.474  10.665  0.1556  0.0220 -0.0322
  527DPPI    C3 8313   8.423   9.232  10.629  0.0666  0.1611 -0.2066
  527DPPI   PO4 8314   8.578   9.413  10.103  0.1158 -0.0667 -0.2093
  527DPPI   GL1 8315   8.382   9.350   9.680  0.4158 -0.0835 -0.1252
  527DPPI   GL2 8316   8.106   9.184   9.832 -0.0127  0.6429 -0.0541
  527DPPI   C1A 8317   8.292   9.490   9.286 -0.0432  0.0256  0.0196
  527DPPI   C2A 8318   8.253   9.344   8.879 -0.0829  0.0835 -0.1637
  527DPPI   C3A 8319   8.210   9.156   8.431  0.2196  0.1712  0.0445
  527DPPI   C4A 8320   7.830   9.245   8.252  0.2247  0.1579 -0.2675
  527DPPI   C1B 8321   7.784   9.098   9.605 -0.1067  0.1810  0.4081
  527DPPI   C2B 8322   7.806   9.270   9.202 -0.0416 -0.0226  0.0340
  527DPPI   C3B 8323   7.779   9.071   8.727  0.1962 -0.1040 -0.2971
  527DPPI   C4B 8324   7.730   8.778   8.506  0.4209 -0.0721  0.1433
  528DPPI    C1 8325   2.563  13.299  10.253  0.0796 -0.1782 -0.0568
  528DPPI    C2 8326   2.952  13.320  10.343  0.0318 -0.3312  0.1936
  528DPPI    C3 8327   2.677  13.399  10.622 -0.1187  0.0389 -0.0523
  528DPPI   PO4 8328   2.544  13.446   9.999 -0.3957 -0.0955  0.0891
  528DPPI   GL1 8329   2.476  13.617   9.516 -0.3642 -0.1183 -0.0757
  528DPPI   GL2 8330   2.675  13.352   9.459  0.4674  0.0086 -0.2569
  528DPPI   C1A 8331   2.396  13.742   9.160  0.0441 -0.0012 -0.1104
  528DPPI   C2A 8332   2.455  14.054   8.795  0.1240  0.1498 -0.0947
  528DPPI   C3A 8333   2.522  14.154   8.267 -0.2719  0.0037  0.0522
  528DPPI   C4A 8334   2.493  14.311   7.865  0.0056 -0.2873  0.0306
  528DPPI   C1B 8335   2.370  13.258   9.169 -0.1057  0.1746 -0.0178
  528DPPI   C2B 8336   2.321  13.064   8.881  0.0101 -0.2595 -0.0438
  528DPPI   C3B 8337   2.230  12.699   8.694  0.2127 -0.0869 -0.1801
  528DPPI   C4B 8338   2.205  12.288   8.450  0.1989 -0.2002 -0.0061
  529DPPI    C1 8339   4.857  17.297   9.796 -0.1359  0.0327 -0.0900
  529DPPI    C2 8340   4.563  17.219  10.056 -0.1875  0.0057 -0.1561
  529DPPI    C3 8341   4.896  17.404  10.179 -0.1310 -0.1764 -0.0308
  529DPPI   PO4 8342   4.678  17.236   9.565  0.0796 -0.1267 -0.1328
  529DPPI   GL1 8343   4.453  17.481   9.278 -0.1816  0.2610  0.1642
  529DPPI   GL2 8344   4.628  17.298   9.052 -0.0697 -0.1978 -0.1074
  529DPPI   C1A 8345   4.137  17.613   9.056  0.0354  0.1996 -0.3493
  529DPPI   C2A 8346   4.057  17.537   8.669  0.1314  0.3159  0.0121
  529DPPI   C3A 8347   4.084  17.273   8.285 -0.2022 -0.0888 -0.1886
  529DPPI   C4A 8348   4.404  16.863   8.394 -0.0953 -0.2633  0.3932
  529DPPI   C1B 8349   4.526  17.405   8.510 -0.3548  0.0876 -0.0977
  529DPPI   C2B 8350   4.557  17.454   8.097 -0.1741 -0.0475 -0.2975
  529DPPI   C3B 8351   4.364  17.120   7.793 -0.0248 -0.1945 -0.4100
  529DPPI   C4B 8352   4.248  17.202   7.381  0.1276  0.0732  0.3793
  530DPPI    C1 8353  11.654  15.205  10.272  0.0654  0.0718  0.0105
  530DPPI    C2 8354  11.793  15.412  10.585 -0.0691 -0.1812  0.2414
  530DPPI    C3 8355  11.419  15.471  10.458 -0.0127 -0.0744  0.1232
  530DPPI   PO4 8356  11.842  15.243  10.053  0.2260 -0.1322 -0.2178
  530DPPI   GL1 8357  11.812  15.287   9.649  0.2476  0.1147  0.3081
  530DPPI   GL2 8358  11.582  14.923   9.618  0.0524 -0.1801 -0.2848
  530DPPI   C1A 8359  12.088  15.458   9.317 -0.1507 -0.0370 -0.2394
  530DPPI   C2A 8360  12.469  15.265   9.069 -0.0177  0.1013 -0.0532
  530DPPI   C3A 8361  12.587  15.195   8.683  0.3130 -0.2578  0.0695
  530DPPI   C4A 8362  12.660  15.041   8.292  0.0464  0.0434 -0.1821
  530DPPI   C1B 8363  11.734  15.111   9.192  0.1419 -0.3247  0.0682
  530DPPI   C2B 8364  11.651  15.141   8.719  0.2583  0.1098 -0.1308
  530DPPI   C3B 8365  11.642  15.320   8.318 -0.0156 -0.0150  0.3347
  530DPPI   C4B 8366  11.706  15.404   7.830 -0.1962 -0.1497 -0.2164
  531DPPI    C1 8367   3.507  14.925  10.198  0.1925  0.1238 -0.0542
  531DPPI    C2 8368   3.855  14.867  10.386  0.2088  0.2045 -0.0592
  531DPPI    C3 8369   3.634  15.190  10.470 -0.0587 -0.0497  0.2390
  531DPPI   PO4 8370   3.559  14.802   9.965 -0.2923 -0.3821  0.1187
  531DPPI   GL1 8371   3.446  14.536   9.681  0.2464 -0.1312 -0.2030
  531DPPI   GL2 8372   3.077  14.330   9.738  0.0700  0.2280 -0.4607
  531DPPI   C1A 8373   3.492  14.490   9.186  0.3154  0.0926  0.0887
  531DPPI   C2A 8374   3.579  14.578   8.720  0.3344  0.0782  0.0071
  531DPPI   C3A 8375   3.267  14.550   8.443  0.2246 -0.1655 -0.1696
  531DPPI   C4A 8376   3.272  14.633   8.013 -0.1003  0.2327 -0.3491
  531DPPI   C1B 8377   3.040  14.683   9.427 -0.1539  0.0377 -0.0322
  531DPPI   C2B 8378   3.156  14.828   8.985  0.2689  0.0110 -0.0221
  531DPPI   C3B 8379   2.949  14.874   8.611 -0.0192 -0.1712 -0.0664
  531DPPI   C4B 8380   2.796  14.667   8.209 -0.0241  0.0252 -0.1600
  532DPPI    C1 8381   7.986  14.542  10.734  0.0623  0.1796  0.1884
  532DPPI    C2 8382   7.601  14.473  10.818  0.1001 -0.0564  0.1753
  532DPPI    C3 8383   7.875  14.457  11.109  0.1594 -0.3433  0.1068
  532DPPI   PO4 8384   8.067  14.412  10.473  0.1241 -0.1095  0.0421
  532DPPI   GL1 8385   7.965  14.512  10.031 -0.3241 -0.1239 -0.3002
  532DPPI   GL2 8386   7.877  14.305   9.841 -0.2279 -0.1139  0.0266
  532DPPI   C1A 8387   8.126  14.703   9.607  0.2038 -0.4274  0.0451
  532DPPI   C2A 8388   8.389  14.760   9.333 -0.1623 -0.0807 -0.0692
  532DPPI   C3A 8389   8.256  14.727   8.957 -0.0571  0.0645 -0.1224
  532DPPI   C4A 8390   8.066  14.773   8.581 -0.2140  0.0184  0.0691
  532DPPI   C1B 8391   7.854  14.362   9.397  0.1035  0.1311 -0.1618
  532DPPI   C2B 8392   7.797  14.453   8.913  0.0536  0.0771 -0.0349
  532DPPI   C3B 8393   7.831  14.293   8.469  0.1017  0.0236 -0.0768
  532DPPI   C4B 8394   7.929  14.354   8.069  0.2511  0.0306 -0.1755
  533DPPI    C1 8395   8.389   5.477  10.567 -0.0095 -0.1100  0.0459
  533DPPI    C2 8396   8.714   5.577  10.779 -0.0037 -0.0674  0.0169
  533DPPI    C3 8397   8.349   5.669  10.916 -0.0132 -0.2967  0.1489
  533DPPI   PO4 8398   8.398   5.562  10.411  0.2155 -0.3032  0.0695
  533DPPI   GL1 8399   8.432   5.567   9.984 -0.0552 -0.0037  0.1470
  533DPPI   GL2 8400   8.122   5.513   9.789  0.2114 -0.2179  0.1990
  533DPPI   C1A 8401   8.660   5.666   9.614 -0.2875  0.0649  0.0131
  533DPPI   C2A 8402   8.622   5.740   9.158  0.1738  0.0306 -0.3873
  533DPPI   C3A 8403   8.547   5.717   8.731 -0.1415 -0.2466  0.0873
  533DPPI   C4A 8404   8.641   5.556   8.332  0.1893 -0.0429  0.0256
  533DPPI   C1B 8405   8.195   5.479   9.338 -0.2293  0.1784 -0.2455
  533DPPI   C2B 8406   8.129   5.550   8.959 -0.0122 -0.1681 -0.1756
  533DPPI   C3B 8407   8.037   5.650   8.530 -0.0410  0.0875  0.1203
  533DPPI   C4B 8408   8.254   5.929   8.272 -0.2385 -0.1014  0.1492
  534DPPI    C1 8409   2.916   8.964  10.325 -0.0127  0.0957 -0.1580
  534DPPI    C2 8410   2.696   8.787  10.609  0.3332  0.1442  0.1468
  534DPPI    C3 8411   2.564   9.120  10.432 -0.0235 -0.0538  0.0313
  534DPPI   PO4 8412   2.971   8.852  10.221  0.0362  0.0338 -0.1771
  534DPPI   GL1 8413   3.049   8.938   9.800  0.0343  0.0389  0.1510
  534DPPI   GL2 8414   2.881   8.607   9.742 -0.1989  0.1641  0.2053
  534DPPI   C1A 8415   2.897   9.193   9.329 -0.2805  0.0324  0.0760
  534DPPI   C2A 8416   3.061   9.484   9.155  0.1706  0.1259  0.1467
  534DPPI   C3A 8417   2.957   9.770   8.750 -0.0290  0.0901 -0.0031
  534DPPI   C4A 8418   2.580  10.121   8.621 -0.3058  0.3058 -0.1268
  534DPPI   C1B 8419   2.830   8.396   9.338  0.1217 -0.3305 -0.1163
  534DPPI   C2B 8420   3.184   8.252   9.213  0.0000 -0.0117 -0.0914
  534DPPI   C3B 8421   3.427   8.352   8.879 -0.0480 -0.1243  0.2103
  534DPPI   C4B 8422   3.347   8.427   8.441  0.1186 -0.0022 -0.2424
  535DPPI    C1 8423   0.037  13.145  10.468 -0.1505  0.4897  0.0275
  535DPPI    C2 8424   0.037  12.968  10.827 -0.0433  0.2388 -0.0938
  535DPPI    C3 8425   0.162  13.346  10.790  0.0178  0.2407  0.1209
  535DPPI   PO4 8426   0.236  12.853  10.298  0.1269 -0.3904 -0.2449
  535DPPI   GL1 8427   0.278  12.805   9.804 -0.0255  0.0504  0.0638
  535DPPI   GL2 8428   0.070  13.021   9.875 -0.2182 -0.2715 -0.3064
  535DPPI   C1A 8429   0.169  12.650   9.376  0.4106 -0.0366 -0.4868
  535DPPI   C2A 8430   0.133  12.739   8.846 -0.0879 -0.2386  0.0287
  535DPPI   C3A 8431   0.112  12.954   8.550  0.0209  0.0543  0.0656
  535DPPI   C4A 8432   0.242  13.038   8.173  0.0369 -0.1566  0.2143
  535DPPI   C1B 8433  -0.228  12.930   9.508  0.0899  0.4080  0.1508
  535DPPI   C2B 8434  -0.270  12.843   9.117 -0.1654 -0.1093 -0.1526
  535DPPI   C3B 8435  -0.498  12.701   8.747 -0.0129  0.0638 -0.0278
  535DPPI   C4B 8436  -0.793  13.205   8.588  0.5015 -0.0007  0.3752
  536DPPI    C1 8437   3.637   2.846  10.333 -0.0264 -0.1308  0.0624
  536DPPI    C2 8438   3.862   2.600  10.554 -0.0333 -0.2137 -0.0222
  536DPPI    C3 8439   3.999   2.964  10.458  0.1112 -0.3047 -0.1656
  536DPPI   PO4 8440   3.548   2.725  10.170  0.3631  0.0097 -0.4495
  536DPPI   GL1 8441   3.270   2.648   9.901 -0.0102 -0.0879  0.3354
  536DPPI   GL2 8442   3.516   2.436   9.735  0.3902  0.2436  0.0332
  536DPPI   C1A 8443   3.257   2.916   9.560 -0.0138 -0.2514 -0.0760
  536DPPI   C2A 8444   3.123   3.192   9.273 -0.0554  0.0116 -0.1119
  536DPPI   C3A 8445   3.042   3.266   8.923  0.0660  0.0460 -0.1880
  536DPPI   C4A 8446   3.017   3.250   8.458  0.1820  0.4282  0.0862
  536DPPI   C1B 8447   3.510   2.640   9.258 -0.2201  0.1536 -0.1678
  536DPPI   C2B 8448   3.492   2.967   9.038 -0.2666 -0.0733 -0.0193
  536DPPI   C3B 8449   3.731   3.194   8.668 -0.2651 -0.0282  0.2608
  536DPPI   C4B 8450   4.042   3.257   8.227 -0.0319  0.2734 -0.0962
  537DPPI    C1 8451   8.024   5.931  10.383  0.2390 -0.1475  0.0860
  537DPPI    C2 8452   7.761   6.181  10.552  0.1563 -0.1195 -0.0819
  537DPPI    C3 8453   8.078   6.054  10.760  0.3386  0.3273 -0.0756
  537DPPI   PO4 8454   8.048   6.030  10.101  0.0416  0.0216  0.4400
  537DPPI   GL1 8455   8.185   6.331   9.795  0.1929 -0.1100  0.1563
  537DPPI   GL2 8456   7.891   6.451   9.575 -0.1775  0.0934  0.0577
  537DPPI   C1A 8457   8.233   6.016   9.439  0.2854  0.0004 -0.1913
  537DPPI   C2A 8458   8.215   6.085   8.942 -0.1251  0.1762  0.0395
  537DPPI   C3A 8459   8.168   6.294   8.565 -0.0164 -0.1275 -0.2417
  537DPPI   C4A 8460   8.051   6.464   8.109 -0.1591 -0.2499 -0.1381
  537DPPI   C1B 8461   7.827   6.401   9.111 -0.0822  0.0060 -0.0495
  537DPPI   C2B 8462   7.776   6.535   8.647  0.0662 -0.5376  0.1569
  537DPPI   C3B 8463   7.556   6.559   8.272 -0.1971 -0.2935 -0.2700
  537DPPI   C4B 8464   7.518   6.594   7.840 -0.2228  0.0700  0.0936
  538DPPI    C1 8465   9.619  15.666  10.373 -0.0651  0.0084 -0.1379
  538DPPI    C2 8466   9.675  15.821  10.737 -0.1167  0.0357 -0.1416
  538DPPI    C3 8467   9.684  15.424  10.685 -0.1379  0.0304 -0.1056
  538DPPI   PO4 8468   9.718  15.726  10.220  0.0866  0.0449 -0.2008
  538DPPI   GL1 8469   9.717  15.594   9.725 -0.1701 -0.0638 -0.2253
  538DPPI   GL2 8470  10.035  15.681   9.859  0.0410 -0.0875  0.2536
  538DPPI   C1A 8471   9.496  15.473   9.343 -0.0836 -0.3417  0.2829
  538DPPI   C2A 8472   9.491  15.292   8.947 -0.1445 -0.1109 -0.0962
  538DPPI   C3A 8473   9.389  15.302   8.520 -0.2482 -0.0523  0.4341
  538DPPI   C4A 8474   9.219  15.314   8.092 -0.2918  0.0729  0.1978
  538DPPI   C1B 8475  10.137  15.779   9.401 -0.1221  0.1764 -0.4345
  538DPPI   C2B 8476  10.299  15.708   9.023  0.0448 -0.2749  0.1026
  538DPPI   C3B 8477  10.556  15.376   8.787 -0.1245 -0.3093 -0.2740
  538DPPI   C4B 8478  10.837  14.907   8.769  0.1300  0.3596 -0.1592
  539DPPI    C1 8479   7.587  13.963  10.076 -0.0633 -0.0196  0.0726
  539DPPI    C2 8480   7.763  13.912  10.432 -0.0659  0.0696  0.0867
  539DPPI    C3 8481   7.598  14.264  10.338 -0.0090  0.0663 -0.0279
  539DPPI   PO4 8482   7.749  13.792   9.958  0.0114 -0.0467  0.0380
  539DPPI   GL1 8483   8.010  13.778   9.639 -0.0571  0.0064  0.3718
  539DPPI   GL2 8484   7.895  13.562   9.456  0.3949 -0.2671  0.1394
  539DPPI   C1A 8485   7.944  13.990   9.109 -0.1473 -0.0644  0.1742
  539DPPI   C2A 8486   7.995  13.832   8.747 -0.0056  0.3604  0.1046
  539DPPI   C3A 8487   8.016  13.847   8.269  0.2274 -0.2014 -0.0972
  539DPPI   C4A 8488   8.111  13.997   7.862 -0.1668 -0.0703  0.1737
  539DPPI   C1B 8489   7.909  13.415   9.116  0.0757 -0.1684 -0.0088
  539DPPI   C2B 8490   7.895  13.363   8.664  0.0802 -0.2452  0.2327
  539DPPI   C3B 8491   8.141  13.351   8.226 -0.2804  0.2359  0.3402
  539DPPI   C4B 8492   8.199  13.413   7.815  0.3759  0.1603  0.1318
  540DPPI    C1 8493   3.392   8.459  10.350  0.0048  0.2720 -0.0995
  540DPPI    C2 8494   3.711   8.655  10.490  0.0651  0.2359 -0.1855
  540DPPI    C3 8495   3.565   8.341  10.690 -0.1370  0.4714  0.0438
  540DPPI   PO4 8496   3.315   8.572  10.057 -0.4122  0.2995  0.1300
  540DPPI   GL1 8497   3.443   8.698   9.649  0.1236 -0.0806 -0.0583
  540DPPI   GL2 8498   3.498   9.023   9.503  0.4219 -0.0727 -0.0644
  540DPPI   C1A 8499   3.218   8.712   9.294 -0.2266 -0.2070 -0.0402
  540DPPI   C2A 8500   3.142   8.735   8.872  0.1159  0.2578  0.2314
  540DPPI   C3A 8501   3.039   8.812   8.447 -0.0648 -0.2308 -0.3459
  540DPPI   C4A 8502   3.016   8.827   8.009  0.2060 -0.1963 -0.0598
  540DPPI   C1B 8503   3.444   9.097   9.136 -0.1156 -0.1077  0.0095
  540DPPI   C2B 8504   3.257   9.215   8.747  0.1868  0.2577 -0.2115
  540DPPI   C3B 8505   3.125   9.337   8.349  0.1115  0.0104 -0.0901
  540DPPI   C4B 8506   3.347   9.220   7.912  0.3019  0.1007 -0.1353
  541DPPI    C1 8507  17.606  18.119  10.476  0.2696 -0.1066 -0.1357
  541DPPI    C2 8508  17.601  17.933  10.830  0.1915  0.0613 -0.0474
  541DPPI    C3 8509  17.726  18.313  10.806  0.0995  0.0832 -0.1835
  541DPPI   PO4 8510  17.397  18.196  10.302  0.1028 -0.2996 -0.0945
  541DPPI   GL1 8511  17.336  18.300   9.939  0.5392  0.3234 -0.0653
  541DPPI   GL2 8512  17.297  17.921   9.758  0.0461 -0.0783  0.0189
  541DPPI   C1A 8513  17.090  18.379   9.532 -0.1751  0.0300  0.1519
  541DPPI   C2A 8514  16.784  18.377   9.184  0.1587 -0.3485 -0.1888
  541DPPI   C3A 8515  16.638  18.263   8.813  0.0520  0.1101 -0.3428
  541DPPI   C4A 8516  16.531  18.309   8.332  0.1258 -0.0847  0.0977
  541DPPI   C1B 8517  17.235  17.864   9.372  0.2824  0.1114  0.0296
  541DPPI   C2B 8518  17.054  18.026   9.030 -0.1403  0.3268  0.3510
  541DPPI   C3B 8519  17.024  18.149   8.538  0.1980 -0.2699 -0.4175
  541DPPI   C4B 8520  17.161  18.248   8.096 -0.0243  0.0178 -0.1305
  542DPPI    C1 8521  13.513  11.407  10.525  0.1667 -0.1763 -0.0656
  542DPPI    C2 8522  13.207  11.589  10.708  0.2348 -0.0308 -0.0952
  542DPPI    C3 8523  13.542  11.508  10.911  0.1996 -0.1357 -0.0787
  542DPPI   PO4 8524  13.413  11.468  10.264 -0.3185 -0.0809 -0.3092
  542DPPI   GL1 8525  13.355  11.858  10.012  0.0948  0.2205 -0.2070
  542DPPI   GL2 8526  13.434  12.257  10.047 -0.2364  0.2269 -0.0480
  542DPPI   C1A 8527  13.316  11.744   9.605  0.4484  0.1254  0.2176
  542DPPI   C2A 8528  13.236  11.772   9.219 -0.2520  0.0836 -0.1322
  542DPPI   C3A 8529  13.313  11.957   8.964  0.0353 -0.1886  0.1779
  542DPPI   C4A 8530  13.324  12.450   8.834 -0.0748 -0.0352  0.2751
  542DPPI   C1B 8531  13.630  12.177   9.688 -0.0164 -0.0020  0.3415
  542DPPI   C2B 8532  13.568  12.378   9.232  0.1059  0.1783  0.0554
  542DPPI   C3B 8533  13.324  12.845   9.240  0.2737 -0.0747  0.1296
  542DPPI   C4B 8534  12.978  12.988   8.916  0.0554 -0.2616 -0.0777
  543DPPI    C1 8535   4.954   6.370  10.249 -0.1907  0.0377 -0.1354
  543DPPI    C2 8536   5.342   6.372  10.349 -0.1428 -0.5970 -0.2645
  543DPPI    C3 8537   5.061   6.381  10.634 -0.0457 -0.0016 -0.1738
  543DPPI   PO4 8538   5.075   6.351   9.956  0.0394 -0.2325 -0.7197
  543DPPI   GL1 8539   5.135   6.437   9.618 -0.1326  0.0110 -0.2633
  543DPPI   GL2 8540   5.408   6.650   9.603  0.2019  0.2552 -0.1057
  543DPPI   C1A 8541   5.029   6.417   9.251  0.4797 -0.2774  0.1402
  543DPPI   C2A 8542   5.112   6.279   8.895 -0.3369 -0.1173  0.1035
  543DPPI   C3A 8543   5.290   6.160   8.550 -0.1802 -0.0910 -0.1176
  543DPPI   C4A 8544   5.103   5.745   8.246 -0.0152  0.0490  0.2289
  543DPPI   C1B 8545   5.487   6.685   9.236 -0.0974 -0.0067 -0.1760
  543DPPI   C2B 8546   5.137   6.798   8.882  0.2296  0.0485 -0.2005
  543DPPI   C3B 8547   4.925   6.874   8.442 -0.3083  0.0053  0.0523
  543DPPI   C4B 8548   5.209   7.059   8.225  0.0637 -0.1067 -0.0593
  544DPPI    C1 8549  12.434  17.341  10.393  0.2837  0.1104 -0.3156
  544DPPI    C2 8550  12.763  17.395  10.614  0.1987 -0.1194 -0.1284
  544DPPI    C3 8551  12.512  17.096  10.700 -0.2073  0.2231 -0.0909
  544DPPI   PO4 8552  12.543  17.406  10.120  0.2438 -0.4377 -0.2021
  544DPPI   GL1 8553  12.606  17.566   9.825  0.3788 -0.0059  0.2627
  544DPPI   GL2 8554  12.282  17.553   9.681 -0.0697  0.4080 -0.1828
  544DPPI   C1A 8555  12.752  17.364   9.359 -0.0915  0.1317  0.1661
  544DPPI   C2A 8556  12.734  17.102   8.939 -0.2072 -0.0133  0.1036
  544DPPI   C3A 8557  12.801  16.888   8.679  0.1069 -0.1158 -0.2868
  544DPPI   C4A 8558  12.917  16.939   8.360 -0.1202  0.3137  0.3672
  544DPPI   C1B 8559  12.239  17.465   9.220  0.0976 -0.0397 -0.1413
  544DPPI   C2B 8560  12.217  17.401   8.683 -0.1035  0.2554 -0.0979
  544DPPI   C3B 8561  12.236  17.390   8.356  0.2019  0.0895  0.0857
  544DPPI   C4B 8562  12.615  17.331   8.272 -0.1159  0.2068  0.1798
  545DPPI    C1 8563  14.172  17.726  10.228 -0.1391  0.1813  0.0125
  545DPPI    C2 8564  13.869  17.493  10.346 -0.1387  0.2827  0.2176
  545DPPI    C3 8565  14.221  17.474  10.535  0.1416 -0.1831 -0.3207
  545DPPI   PO4 8566  14.041  17.818  10.005 -0.0684  0.0082 -0.1778
  545DPPI   GL1 8567  13.866  17.864   9.603  0.1042 -0.2154  0.1068
  545DPPI   GL2 8568  14.061  17.528   9.635  0.2260 -0.0946 -0.3084
  545DPPI   C1A 8569  13.947  17.997   9.111 -0.0928 -0.0199  0.2493
  545DPPI   C2A 8570  14.040  18.049   8.666  0.0557  0.1590  0.2461
  545DPPI   C3A 8571  14.076  17.929   8.238 -0.2512  0.1647 -0.1280
  545DPPI   C4A 8572  14.393  17.895   7.925  0.3127  0.1530 -0.1291
  545DPPI   C1B 8573  13.843  17.465   9.229  0.1860 -0.0020 -0.1499
  545DPPI   C2B 8574  13.627  17.233   8.973 -0.1825 -0.1219 -0.2700
  545DPPI   C3B 8575  13.688  17.111   8.557  0.1039 -0.4326 -0.0122
  545DPPI   C4B 8576  13.849  17.068   8.092  0.0600 -0.3407 -0.0401
  546DPPI    C1 8577   2.834   1.151  10.633  0.1651  0.1534 -0.1004
  546DPPI    C2 8578   2.982   0.806  10.496 -0.1771  0.0246 -0.1570
  546DPPI    C3 8579   3.178   1.010  10.780 -0.2078 -0.4579  0.2238
  546DPPI   PO4 8580   2.804   1.242  10.335 -0.0223  0.1578  0.2047
  546DPPI   GL1 8581   2.685   1.487   9.917  0.1283 -0.1838  0.1035
  546DPPI   GL2 8582   2.852   1.347   9.760 -0.1449  0.2658  0.2058
  546DPPI   C1A 8583   2.573   1.655   9.525  0.0802  0.2381 -0.1729
  546DPPI   C2A 8584   2.268   1.720   9.169 -0.1709 -0.1939 -0.0272
  546DPPI   C3A 8585   2.135   1.647   8.768 -0.0205  0.0746 -0.1802
  546DPPI   C4A 8586   2.056   1.613   8.353 -0.1105 -0.2902  0.0499
  546DPPI   C1B 8587   3.257   1.318   9.594 -0.0604  0.1706 -0.0317
  546DPPI   C2B 8588   3.243   1.474   9.236 -0.1718 -0.0920 -0.1510
  546DPPI   C3B 8589   3.345   1.737   8.885 -0.1084  0.1375  0.2505
  546DPPI   C4B 8590   3.057   1.741   8.636  0.1179 -0.0332  0.3702
  547DPPI    C1 8591  14.688  12.975  10.444  0.0268  0.1014  0.0069
  547DPPI    C2 8592  15.017  12.860  10.640  0.0190 -0.0891 -0.0897
  547DPPI    C3 8593  14.657  12.748  10.772  0.0104 -0.1653 -0.1763
  547DPPI   PO4 8594  14.656  12.983  10.253 -0.1847  0.2555 -0.0812
  547DPPI   GL1 8595  14.795  12.836   9.841 -0.0856 -0.1017  0.1818
  547DPPI   GL2 8596  15.114  12.772   9.913  0.1759  0.2386 -0.0418
  547DPPI   C1A 8597  14.945  12.789   9.386  0.0371  0.2037 -0.0785
  547DPPI   C2A 8598  14.962  12.868   8.999 -0.2595  0.2719 -0.0116
  547DPPI   C3A 8599  14.769  12.788   8.664  0.3247  0.0784  0.2860
  547DPPI   C4A 8600  14.263  12.804   8.440  0.0003 -0.1900 -0.1984
  547DPPI   C1B 8601  15.184  12.406   9.663 -0.3204  0.1817  0.0479
  547DPPI   C2B 8602  15.087  12.098   9.303 -0.1457 -0.0031 -0.0689
  547DPPI   C3B 8603  14.884  12.306   9.023  0.0803 -0.1292  0.2361
  547DPPI   C4B 8604  14.861  12.296   8.464 -0.1005  0.1554 -0.0986
  548DPPI    C1 8605   2.860  12.086  10.397 -0.1542 -0.1894  0.4298
  548DPPI    C2 8606   3.255  12.044  10.451 -0.1000 -0.3272 -0.0305
  548DPPI    C3 8607   3.064  12.362  10.603  0.3032  0.0744 -0.3350
  548DPPI   PO4 8608   2.759  12.015  10.110  0.0122  0.0930  0.3299
  548DPPI   GL1 8609   2.787  12.004   9.678  0.1204  0.1387 -0.0917
  548DPPI   GL2 8610   2.972  12.224   9.546  0.1563 -0.0782 -0.1231
  548DPPI   C1A 8611   2.389  12.036   9.402  0.0300 -0.0519 -0.1632
  548DPPI   C2A 8612   2.000  11.944   9.207 -0.1113  0.2400  0.1293
  548DPPI   C3A 8613   1.518  11.954   8.989  0.1897  0.0733 -0.1452
  548DPPI   C4A 8614   1.241  12.020   8.578 -0.0420 -0.2527  0.2296
  548DPPI   C1B 8615   2.977  12.128   9.147 -0.1597  0.0349  0.0310
  548DPPI   C2B 8616   3.035  12.430   8.845 -0.0923  0.0749  0.2307
  548DPPI   C3B 8617   3.145  12.500   8.458 -0.2288  0.5387  0.1627
  548DPPI   C4B 8618   2.958  12.245   8.124  0.1273  0.0322  0.2797
  549DPPI    C1 8619   2.269   8.045  10.293 -0.1733  0.1830 -0.0068
  549DPPI    C2 8620   2.196   8.387  10.098  0.0534  0.1874 -0.0869
  549DPPI    C3 8621   2.360   8.396  10.463  0.1171  0.1625 -0.1150
  549DPPI   PO4 8622   2.118   7.904  10.284  0.0731 -0.0825 -0.2504
  549DPPI   GL1 8623   1.821   7.956  10.041 -0.0057 -0.3735  0.0736
  549DPPI   GL2 8624   1.776   7.669   9.968 -0.0786  0.0909 -0.1734
  549DPPI   C1A 8625   2.009   8.069   9.639  0.2414 -0.1929  0.1202
  549DPPI   C2A 8626   1.912   8.049   9.221  0.2777 -0.3426 -0.1930
  549DPPI   C3A 8627   1.703   8.065   8.834  0.0903 -0.2939  0.1326
  549DPPI   C4A 8628   1.372   8.193   8.552 -0.0464  0.2208  0.0320
  549DPPI   C1B 8629   1.553   7.766   9.587 -0.2134 -0.5070 -0.1639
  549DPPI   C2B 8630   1.358   7.856   9.105  0.1112 -0.1408  0.0392
  549DPPI   C3B 8631   1.028   8.075   8.886 -0.1803  0.0895 -0.0911
  549DPPI   C4B 8632   0.871   8.191   8.525 -0.0019 -0.1371  0.2085
  550DPPI    C1 8633  11.320   4.419  10.590 -0.0042  0.2654 -0.0534
  550DPPI    C2 8634  10.937   4.526  10.546  0.0007  0.3306  0.0554
  550DPPI    C3 8635  11.101   4.516  10.911  0.0430  0.0944  0.0319
  550DPPI   PO4 8636  11.410   4.443  10.405 -0.0848  0.2251  0.1305
  550DPPI   GL1 8637  11.425   4.285  10.011 -0.2267 -0.0824 -0.1739
  550DPPI   GL2 8638  11.617   4.552   9.986 -0.2697  0.4106 -0.1372
  550DPPI   C1A 8639  11.278   4.183   9.641  0.1441 -0.2967  0.1208
  550DPPI   C2A 8640  10.974   4.186   9.228 -0.0072 -0.1490 -0.0522
  550DPPI   C3A 8641  10.904   4.065   8.815  0.1293  0.1189  0.3344
  550DPPI   C4A 8642  10.847   4.121   8.410  0.0028  0.0234 -0.2125
  550DPPI   C1B 8643  11.669   4.479   9.627  0.1262  0.0606  0.4558
  550DPPI   C2B 8644  11.564   4.341   9.288 -0.0561 -0.0344 -0.1917
  550DPPI   C3B 8645  11.326   4.433   8.968 -0.2152  0.0990 -0.0664
  550DPPI   C4B 8646  11.290   4.364   8.585 -0.0064  0.3831  0.3620
  551DPPI    C1 8647   4.838  13.017  10.164  0.1431  0.0600  0.0357
  551DPPI    C2 8648   4.789  13.306   9.892  0.1365  0.0890  0.0675
  551DPPI    C3 8649   4.598  13.328  10.242  0.1616  0.0626  0.0828
  551DPPI   PO4 8650   4.779  12.804  10.002 -0.3115  0.0557 -0.1455
  551DPPI   GL1 8651   4.684  12.511   9.605  0.0207  0.0980  0.3671
  551DPPI   GL2 8652   4.728  12.872   9.503  0.1792  0.0918  0.1754
  551DPPI   C1A 8653   4.508  12.290   9.239  0.3137 -0.0398  0.0374
  551DPPI   C2A 8654   4.527  12.103   8.799  0.2956 -0.0078 -0.1856
  551DPPI   C3A 8655   4.488  11.707   8.628 -0.0270 -0.1127  0.1628
  551DPPI   C4A 8656   4.537  11.438   8.197 -0.0151  0.0691 -0.0758
  551DPPI   C1B 8657   4.663  12.763   8.975  0.1475 -0.0084 -0.0619
  551DPPI   C2B 8658   4.398  12.650   8.791 -0.0207 -0.1608 -0.0477
  551DPPI   C3B 8659   4.217  12.697   8.477  0.0943  0.1300  0.0579
  551DPPI   C4B 8660   4.123  12.482   8.003 -0.0209  0.0806  0.0915
  552DPPI    C1 8661   2.363   7.003  10.294 -0.0747  0.0539 -0.1049
  552DPPI    C2 8662   2.076   6.984  10.572 -0.0061 -0.1281 -0.0448
  552DPPI    C3 8663   2.393   6.741  10.595  0.2582  0.2132  0.0056
  552DPPI   PO4 8664   2.465   7.299  10.223 -0.0903  0.0787  0.1934
  552DPPI   GL1 8665   2.579   7.252   9.752  0.0813  0.0165 -0.0328
  552DPPI   GL2 8666   2.139   7.175   9.819  0.0882  0.0982 -0.0574
  552DPPI   C1A 8667   2.308   7.202   9.342  0.1371  0.2681  0.0477
  552DPPI   C2A 8668   2.402   6.825   9.176  0.2983 -0.0703  0.3516
  552DPPI   C3A 8669   2.253   6.664   8.818 -0.0693  0.1239  0.0688
  552DPPI   C4A 8670   2.046   6.494   8.540 -0.1839 -0.0400 -0.1955
  552DPPI   C1B 8671   1.895   7.433   9.521  0.1713  0.3749  0.0332
  552DPPI   C2B 8672   1.852   7.584   9.086  0.0698  0.2159  0.2324
  552DPPI   C3B 8673   1.899   7.686   8.696 -0.0447  0.0398 -0.0395
  552DPPI   C4B 8674   1.755   7.501   8.420 -0.2191  0.0907 -0.2433
  553DPPI    C1 8675   3.182   2.498  10.423  0.1007  0.3045 -0.2049
  553DPPI    C2 8676   2.991   2.474  10.774 -0.0720 -0.3559 -0.3308
  553DPPI    C3 8677   3.390   2.508  10.765 -0.0802 -0.1603 -0.0735
  553DPPI   PO4 8678   3.085   2.314  10.245 -0.2432 -0.1148  0.0487
  553DPPI   GL1 8679   3.115   2.088   9.910  0.1804  0.2191 -0.1874
  553DPPI   GL2 8680   3.032   1.813   9.626  0.1842 -0.0553 -0.0955
  553DPPI   C1A 8681   3.061   2.348   9.469  0.2264 -0.2832 -0.0475
  553DPPI   C2A 8682   2.965   2.705   9.149 -0.1567 -0.1685  0.2578
  553DPPI   C3A 8683   3.041   2.762   8.737 -0.1084 -0.0191  0.0339
  553DPPI   C4A 8684   2.869   2.759   8.336 -0.1520  0.1954 -0.1599
  553DPPI   C1B 8685   2.908   1.906   9.145  0.0575  0.1212  0.3220
  553DPPI   C2B 8686   3.018   2.277   8.903  0.0259  0.3871 -0.1957
  553DPPI   C3B 8687   3.128   2.312   8.507  0.0061 -0.0062 -0.0105
  553DPPI   C4B 8688   3.357   1.962   8.238  0.2561 -0.0127  0.0605
  554PYPI    C1 8689  13.572  15.780  10.320 -0.1183  0.1214 -0.1530
  554PYPI    C2 8690  13.314  15.859  10.615 -0.0262  0.2310 -0.1011
  554PYPI    C3 8691  13.611  15.596  10.673  0.0259  0.2950 -0.0771
  554PYPI   PO4 8692  13.459  15.726  10.067 -0.0815 -0.0760 -0.0732
  554PYPI   GL1 8693  13.301  15.842   9.688 -0.3377  0.2490 -0.2205
  554PYPI   GL2 8694  13.367  16.002   9.434 -0.0761 -0.1924  0.0991
  554PYPI   C1A 8695  13.344  15.495   9.320  0.1383  0.0840 -0.1743
  554PYPI   C2A 8696  13.419  15.338   8.859 -0.0331 -0.5370 -0.1209
  554PYPI   D3A 8697  13.516  15.068   8.593 -0.0760  0.0661 -0.0989
  554PYPI   C4A 8698  13.633  15.300   8.188 -0.2246 -0.1910 -0.0122
  554PYPI   C1B 8699  13.345  15.871   9.003 -0.1132  0.0643 -0.2031
  554PYPI   C2B 8700  13.497  15.831   8.726  0.3416 -0.0349  0.2195
  554PYPI   C3B 8701  13.528  15.750   8.283 -0.0040  0.1616 -0.1318
  554PYPI   C4B 8702  13.662  15.691   7.906  0.2577 -0.0354 -0.2690
  555PYPI    C1 8703   4.403   4.517   9.956 -0.1815 -0.1900  0.1438
  555PYPI    C2 8704   4.295   4.641   9.591  0.2479  0.1185  0.1142
  555PYPI    C3 8705   4.034   4.659   9.894 -0.0492  0.0434 -0.1321
  555PYPI   PO4 8706   4.661   4.529   9.970  0.0535  0.2875 -0.1569
  555PYPI   GL1 8707   4.868   4.603   9.568 -0.2228 -0.1214 -0.1914
  555PYPI   GL2 8708   5.160   4.532   9.377  0.0062  0.1110  0.1010
  555PYPI   C1A 8709   4.705   4.668   9.164  0.0335  0.2394  0.0707
  555PYPI   C2A 8710   4.380   4.703   8.825  0.3372  0.0529  0.1168
  555PYPI   D3A 8711   4.345   4.649   8.395  0.4108  0.2304 -0.0054
  555PYPI   C4A 8712   4.754   4.443   8.294  0.1165  0.0981 -0.1187
  555PYPI   C1B 8713   4.975   4.284   9.164 -0.1890  0.0954  0.0998
  555PYPI   C2B 8714   4.642   4.189   8.783  0.3009 -0.0512 -0.2367
  555PYPI   C3B 8715   4.538   3.972   8.493  0.0005 -0.2241 -0.2025
  555PYPI   C4B 8716   4.416   3.581   8.445  0.0523  0.0595  0.2287
  556PYPI    C1 8717  14.734  11.015  10.717  0.1152  0.2287  0.0333
  556PYPI    C2 8718  14.499  11.290  10.888 -0.2717  0.0875 -0.2567
  556PYPI    C3 8719  14.736  11.060  11.114 -0.5660  0.0918  0.0633
  556PYPI   PO4 8720  14.800  11.090  10.536  0.0719 -0.0169  0.3352
  556PYPI   GL1 8721  14.793  11.122  10.036 -0.0366 -0.0904 -0.0817
  556PYPI   GL2 8722  14.706  10.791   9.941  0.1239  0.0996 -0.1235
  556PYPI   C1A 8723  14.605  11.255   9.661 -0.3251  0.0984 -0.2367
  556PYPI   C2A 8724  14.441  11.038   9.199 -0.0354 -0.2142 -0.1085
  556PYPI   D3A 8725  14.384  10.719   9.051 -0.0619 -0.0810 -0.1993
  556PYPI   C4A 8726  14.438  10.780   8.654  0.0496 -0.1710  0.1268
  556PYPI   C1B 8727  14.725  10.748   9.517  0.0296  0.1311  0.2864
  556PYPI   C2B 8728  14.843  10.580   9.164  0.0288  0.0420  0.0880
  556PYPI   C3B 8729  14.871  10.475   8.802  0.1511  0.0224 -0.3222
  556PYPI   C4B 8730  14.744  10.624   8.315 -0.0407  0.0302  0.0444
  557PYPI    C1 8731  11.047   7.448  10.674 -0.0916  0.0452  0.0109
  557PYPI    C2 8732  10.732   7.691  10.637 -0.1292 -0.0061 -0.0092
  557PYPI    C3 8733  10.724   7.394  10.904 -0.1475 -0.0843 -0.0964
  557PYPI   PO4 8734  11.110   7.437  10.426 -0.0183 -0.0539  0.1242
  557PYPI   GL1 8735  10.983   7.307   9.941 -0.1948  0.0331  0.0062
  557PYPI   GL2 8736  10.844   7.486   9.679 -0.1947 -0.0662 -0.4672
  557PYPI   C1A 8737  11.178   7.115   9.615 -0.0253 -0.2770  0.1254
  557PYPI   C2A 8738  11.514   6.982   9.304  0.1267  0.0498 -0.4481
  557PYPI   D3A 8739  11.406   6.822   8.886 -0.1395  0.0718 -0.1511
  557PYPI   C4A 8740  11.392   6.950   8.572  0.2595  0.0803 -0.0561
  557PYPI   C1B 8741  10.744   7.228   9.347  0.1950 -0.1472  0.1904
  557PYPI   C2B 8742  10.577   7.013   9.078 -0.0464  0.1277 -0.0409
  557PYPI   C3B 8743  10.401   6.976   8.594  0.1570 -0.1065 -0.1851
  557PYPI   C4B 8744  10.281   7.299   8.241  0.2304 -0.0682 -0.1121
  558PYPI    C1 8745  17.174  13.634  10.224 -0.3062  0.0658  0.0143
  558PYPI    C2 8746  17.170  13.805  10.586  0.1717 -0.0688  0.0903
  558PYPI    C3 8747  17.277  14.019  10.265  0.0058 -0.0204  0.0663
  558PYPI   PO4 8748  16.895  13.492  10.233 -0.0192  0.2104  0.0887
  558PYPI   GL1 8749  16.687  13.429   9.915  0.0493  0.1477 -0.0028
  558PYPI   GL2 8750  16.583  13.728   9.877  0.0474  0.2043 -0.0602
  558PYPI   C1A 8751  17.082  13.481   9.602  0.0255  0.2117 -0.0568
  558PYPI   C2A 8752  17.061  13.517   9.168  0.2129 -0.1729  0.3120
  558PYPI   D3A 8753  16.935  13.530   8.719 -0.1441 -0.2479  0.0041
  558PYPI   C4A 8754  17.256  13.554   8.359  0.0394 -0.0090 -0.0295
  558PYPI   C1B 8755  16.603  13.598   9.382 -0.3170 -0.0618 -0.3380
  558PYPI   C2B 8756  16.414  13.467   9.014  0.0357  0.0913  0.0718
  558PYPI   C3B 8757  16.458  13.277   8.519 -0.2651 -0.0214 -0.4037
  558PYPI   C4B 8758  16.807  13.280   8.278 -0.3332  0.1977 -0.0257
  559PYPI    C1 8759   7.688   7.558  10.726  0.0272  0.1702  0.1551
  559PYPI    C2 8760   7.958   7.291  10.851  0.3452  0.2601 -0.3164
  559PYPI    C3 8761   7.839   7.584  11.095  0.1921 -0.1479  0.1137
  559PYPI   PO4 8762   7.711   7.613  10.553 -0.0480 -0.3213  0.0899
  559PYPI   GL1 8763   8.002   7.685  10.182 -0.2427 -0.1426 -0.0012
  559PYPI   GL2 8764   8.127   7.346   9.920 -0.1163  0.1555 -0.1168
  559PYPI   C1A 8765   7.939   7.779   9.768  0.1733  0.0842 -0.0094
  559PYPI   C2A 8766   7.924   7.866   9.378 -0.2320  0.0538  0.2459
  559PYPI   D3A 8767   7.986   8.041   8.952 -0.1854 -0.2345 -0.0462
  559PYPI   C4A 8768   7.842   7.903   8.502  0.0662  0.2853  0.3320
  559PYPI   C1B 8769   7.918   7.374   9.381  0.2221  0.0143  0.0372
  559PYPI   C2B 8770   7.880   7.514   9.000  0.1861 -0.1025 -0.2913
  559PYPI   C3B 8771   7.972   7.427   8.573 -0.0175  0.2558 -0.1415
  559PYPI   C4B 8772   7.701   7.471   8.211 -0.2395  0.3415  0.2401
  560PYPI    C1 8773   4.030  16.800   9.907  0.1346  0.0906 -0.0153
  560PYPI    C2 8774   4.204  16.814  10.268  0.1483  0.0151 -0.0189
  560PYPI    C3 8775   3.845  16.643  10.225  0.1067  0.1033 -0.0252
  560PYPI   PO4 8776   4.222  17.040   9.788  0.1134 -0.1244  0.0381
  560PYPI   GL1 8777   4.075  17.212   9.447  0.0688 -0.0576  0.1363
  560PYPI   GL2 8778   4.257  16.899   9.248  0.0197 -0.0694  0.0335
  560PYPI   C1A 8779   3.746  17.095   9.060  0.0345 -0.0191 -0.0895
  560PYPI   C2A 8780   3.560  17.373   8.773  0.1881 -0.1462  0.0583
  560PYPI   D3A 8781   3.685  17.668   8.336  0.1236  0.0728 -0.1712
  560PYPI   C4A 8782   3.543  17.831   7.899 -0.0697  0.1925  0.2660
  560PYPI   C1B 8783   4.187  17.067   8.852 -0.1394  0.1987 -0.0569
  560PYPI   C2B 8784   3.860  16.886   8.555 -0.0172 -0.3754  0.1263
  560PYPI   C3B 8785   3.865  16.711   8.209 -0.0725 -0.1991 -0.2042
  560PYPI   C4B 8786   3.672  16.749   7.855  0.0849 -0.2859  0.1005
  561PYPI    C1 8787  12.267  16.512  10.147 -0.1451  0.0812 -0.0798
  561PYPI    C2 8788  12.230  16.166  10.343 -0.0280  0.0542 -0.1046
  561PYPI    C3 8789  12.323  16.500  10.543 -0.4903  0.1432 -0.0256
  561PYPI   PO4 8790  12.127  16.550   9.924  0.1553 -0.0981 -0.4398
  561PYPI   GL1 8791  12.049  16.667   9.566 -0.2418  0.1605 -0.1196
  561PYPI   GL2 8792  11.926  16.921   9.555  0.0118 -0.3004 -0.3725
  561PYPI   C1A 8793  11.829  16.602   9.146  0.1022 -0.1402 -0.0116
  561PYPI   C2A 8794  11.746  16.471   8.669  0.0203 -0.0518 -0.0125
  561PYPI   D3A 8795  11.541  16.425   8.309 -0.2167 -0.2169 -0.2301
  561PYPI   C4A 8796  11.544  16.115   8.077 -0.1170  0.0966 -0.0794
  561PYPI   C1B 8797  11.809  17.131   9.212 -0.1210 -0.1555 -0.1532
  561PYPI   C2B 8798  11.830  17.101   8.762  0.3519 -0.0917 -0.0399
  561PYPI   C3B 8799  11.851  16.936   8.380  0.0709 -0.1107 -0.3156
  561PYPI   C4B 8800  11.756  17.025   7.827 -0.1062  0.1143 -0.1646
  562PYPI    C1 8801  11.467  14.301  10.342 -0.0586  0.0516 -0.2232
  562PYPI    C2 8802  11.562  14.167  10.707 -0.3130  0.0293 -0.1631
  562PYPI    C3 8803  11.595  14.556  10.622 -0.0339  0.0026 -0.1894
  562PYPI   PO4 8804  11.551  14.222  10.159  0.0961  0.1388 -0.2057
  562PYPI   GL1 8805  11.787  14.312   9.771 -0.2542 -0.1577 -0.2449
  562PYPI   GL2 8806  12.032  14.061   9.970 -0.4060 -0.1315  0.0992
  562PYPI   C1A 8807  11.823  14.564   9.377  0.2272  0.1608  0.1626
  562PYPI   C2A 8808  11.820  14.694   8.928 -0.3253  0.4548  0.1093
  562PYPI   D3A 8809  11.783  14.650   8.501  0.2061  0.1316 -0.1106
  562PYPI   C4A 8810  11.819  14.309   8.222  0.2227  0.2377 -0.0001
  562PYPI   C1B 8811  11.899  13.828   9.538 -0.0900  0.0354 -0.1943
  562PYPI   C2B 8812  11.892  13.694   9.129 -0.2381 -0.2776  0.1044
  562PYPI   C3B 8813  11.637  13.502   8.841  0.2562 -0.2375  0.1928
  562PYPI   C4B 8814  11.344  13.295   8.693  0.1216 -0.2102  0.1822
  563PYPI    C1 8815   0.256  12.108  10.155 -0.0213  0.0431 -0.4489
  563PYPI    C2 8816   0.301  12.386  10.439 -0.0595 -0.0728 -0.3282
  563PYPI    C3 8817   0.016  12.428  10.161 -0.0525  0.0176 -0.3220
  563PYPI   PO4 8818   0.527  12.043  10.077 -0.0458 -0.1500  0.3072
  563PYPI   GL1 8819   0.552  12.136   9.671  0.5328  0.0604 -0.2036
  563PYPI   GL2 8820   0.930  12.114   9.689 -0.1509 -0.1467  0.1261
  563PYPI   C1A 8821   0.554  12.312   9.356 -0.1308  0.0759 -0.1651
  563PYPI   C2A 8822   0.441  12.367   8.890 -0.1685  0.1864 -0.1178
  563PYPI   D3A 8823   0.423  12.541   8.491  0.0783  0.0758  0.0251
  563PYPI   C4A 8824   0.352  12.563   8.055 -0.1613  0.0316 -0.0393
  563PYPI   C1B 8825   0.938  12.023   9.211  0.1243  0.3587 -0.0818
  563PYPI   C2B 8826   0.819  11.966   8.832  0.1752  0.3831 -0.0979
  563PYPI   C3B 8827   0.775  12.031   8.402  0.5010 -0.0914  0.2640
  563PYPI   C4B 8828   0.996  11.862   8.085  0.0805  0.2506  0.2637
  564PYPI    C1 8829   5.328  17.128   9.657 -0.1930  0.1138 -0.0223
  564PYPI    C2 8830   5.199  16.979  10.005 -0.0878  0.0911  0.0075
  564PYPI    C3 8831   5.591  17.034   9.944 -0.0765 -0.2348 -0.2374
  564PYPI   PO4 8832   5.175  16.977   9.476  0.1284  0.0164 -0.1801
  564PYPI   GL1 8833   5.064  17.078   9.080 -0.4222  0.3327 -0.0685
  564PYPI   GL2 8834   5.289  16.697   9.126 -0.2268 -0.3082 -0.0001
  564PYPI   C1A 8835   4.991  17.121   8.739 -0.0205 -0.1673 -0.0567
  564PYPI   C2A 8836   4.886  17.115   8.345  0.2027  0.1958  0.0618
  564PYPI   D3A 8837   4.838  16.888   7.898 -0.0396  0.1415 -0.1350
  564PYPI   C4A 8838   4.980  16.532   7.753  0.0589 -0.1037  0.2640
  564PYPI   C1B 8839   5.281  16.609   8.655  0.2529  0.2003 -0.1793
  564PYPI   C2B 8840   5.292  16.829   8.296 -0.0455  0.0336 -0.2627
  564PYPI   C3B 8841   5.394  16.805   7.842 -0.1573 -0.1335  0.1388
  564PYPI   C4B 8842   5.209  16.843   7.407  0.2485  0.3989  0.2087
  565PYPI    C1 8843   3.709   6.735  10.560 -0.0005  0.0947 -0.2954
  565PYPI    C2 8844   3.552   6.574  10.891  0.2586 -0.1509 -0.2880
  565PYPI    C3 8845   3.484   6.959  10.804  0.2065 -0.0775  0.0613
  565PYPI   PO4 8846   3.667   6.599  10.364 -0.2857 -0.2853 -0.1914
  565PYPI   GL1 8847   3.645   6.583   9.921 -0.2280 -0.0687 -0.0383
  565PYPI   GL2 8848   3.851   6.425   9.956  0.1987  0.1544 -0.3878
  565PYPI   C1A 8849   3.630   6.778   9.515 -0.1076 -0.0734 -0.0519
  565PYPI   C2A 8850   3.605   6.842   9.070  0.0226 -0.4742 -0.0723
  565PYPI   D3A 8851   3.589   6.873   8.548 -0.2259 -0.3165 -0.0240
  565PYPI   C4A 8852   3.242   7.125   8.382  0.0482 -0.0481  0.1790
  565PYPI   C1B 8853   3.784   6.313   9.414  0.2520 -0.0214 -0.1183
  565PYPI   C2B 8854   3.712   6.346   9.062 -0.0884  0.0736  0.1159
  565PYPI   C3B 8855   3.778   6.399   8.649 -0.2625  0.2127  0.3553
  565PYPI   C4B 8856   3.535   6.413   8.216 -0.0640 -0.1003 -0.0431
  566PYPI    C1 8857  11.031   5.855  10.413 -0.1733 -0.0001 -0.0538
  566PYPI    C2 8858  10.654   5.746  10.488 -0.0893 -0.2314  0.0381
  566PYPI    C3 8859  10.827   6.030  10.709 -0.2112 -0.1200 -0.0083
  566PYPI   PO4 8860  11.030   5.701  10.173  0.0750  0.1814  0.0386
  566PYPI   GL1 8861  11.282   5.788   9.792  0.0337 -0.2696 -0.0932
  566PYPI   GL2 8862  11.118   5.489   9.707  0.2123  0.0540  0.0380
  566PYPI   C1A 8863  11.392   5.767   9.341  0.2997 -0.1759  0.0090
  566PYPI   C2A 8864  11.564   5.959   9.103 -0.0820 -0.3231  0.2045
  566PYPI   D3A 8865  11.661   6.092   8.689 -0.1243  0.1402  0.0220
  566PYPI   C4A 8866  11.695   5.956   8.394 -0.0479  0.1601 -0.1323
  566PYPI   C1B 8867  11.135   5.310   9.363 -0.3094  0.0556  0.1854
  566PYPI   C2B 8868  11.323   5.461   8.900  0.0486  0.1215 -0.0744
  566PYPI   C3B 8869  11.273   5.781   8.678  0.2372  0.2233  0.1145
  566PYPI   C4B 8870  11.216   6.050   8.365 -0.1506  0.1667 -0.1072
  567PYPI    C1 8871  12.522  15.705  10.362 -0.0268 -0.0516 -0.0479
  567PYPI    C2 8872  12.770  15.758  10.672 -0.0485  0.0623 -0.0494
  567PYPI    C3 8873  12.376  15.813  10.719 -0.0867 -0.2209 -0.0205
  567PYPI   PO4 8874  12.662  15.534  10.223  0.0097  0.0235  0.0210
  567PYPI   GL1 8875  12.987  15.506   9.885 -0.0683  0.1451  0.1146
  567PYPI   GL2 8876  13.204  15.245   9.922 -0.1121 -0.0536 -0.0637
  567PYPI   C1A 8877  12.911  15.634   9.440  0.0490 -0.1153  0.2807
  567PYPI   C2A 8878  13.009  15.505   8.982  0.2111  0.4472 -0.0786
  567PYPI   D3A 8879  12.966  15.468   8.529  0.0624  0.0937  0.1374
  567PYPI   C4A 8880  13.072  15.230   8.109 -0.0383  0.0091  0.3987
  567PYPI   C1B 8881  13.214  15.048   9.586 -0.2929  0.1754 -0.0985
  567PYPI   C2B 8882  13.456  14.912   9.184  0.2577  0.2464  0.0042
  567PYPI   C3B 8883  13.763  14.800   8.947  0.0954  0.5071 -0.0399
  567PYPI   C4B 8884  13.930  14.633   8.578 -0.0537 -0.0582 -0.3537
  568PYPI    C1 8885   1.976  12.346  10.064 -0.0185 -0.0647  0.0088
  568PYPI    C2 8886   2.051  12.570  10.386 -0.1564 -0.1858  0.1264
  568PYPI    C3 8887   2.306  12.282  10.280  0.0863  0.1051 -0.0983
  568PYPI   PO4 8888   1.931  12.433   9.801  0.0114 -0.0564  0.1296
  568PYPI   GL1 8889   1.989  12.491   9.350 -0.0690  0.0629  0.0569
  568PYPI   GL2 8890   2.159  12.806   9.516 -0.3401 -0.2341  0.3014
  568PYPI   C1A 8891   1.918  12.351   8.907  0.1331  0.1602 -0.0706
  568PYPI   C2A 8892   1.880  11.953   8.598  0.2854  0.1274  0.0991
  568PYPI   D3A 8893   1.491  11.723   8.238  0.2959  0.0529 -0.4303
  568PYPI   C4A 8894   1.554  11.393   8.007 -0.0247 -0.2525  0.0252
  568PYPI   C1B 8895   2.473  12.578   9.195 -0.2135 -0.1797 -0.1013
  568PYPI   C2B 8896   2.531  12.246   8.911  0.4070 -0.1248  0.3236
  568PYPI   C3B 8897   2.682  12.127   8.615  0.1410 -0.2004  0.0584
  568PYPI   C4B 8898   3.041  11.949   8.600 -0.1532 -0.2961  0.1681
  569PYPI    C1 8899   6.057   8.734  10.376 -0.0936  0.1037  0.0489
  569PYPI    C2 8900   6.057   8.529  10.719 -0.1316  0.1005  0.0470
  569PYPI    C3 8901   5.774   8.804  10.650  0.0531  0.3195  0.1488
  569PYPI   PO4 8902   6.113   8.613  10.168  0.0717 -0.1745  0.2484
  569PYPI   GL1 8903   6.034   8.326   9.838 -0.3305 -0.0587  0.2813
  569PYPI   GL2 8904   6.241   8.192   9.574  0.1223 -0.1516  0.3202
  569PYPI   C1A 8905   5.735   8.104   9.512 -0.0245 -0.1076 -0.1543
  569PYPI   C2A 8906   5.411   8.080   9.228  0.0667  0.0921  0.2364
  569PYPI   D3A 8907   5.033   8.133   9.118  0.1603 -0.2258  0.0828
  569PYPI   C4A 8908   4.802   8.529   9.148 -0.2154 -0.0003 -0.2990
  569PYPI   C1B 8909   6.015   8.058   9.093  0.0491  0.0583 -0.3106
  569PYPI   C2B 8910   5.699   8.167   8.775  0.3495 -0.2589 -0.3967
  569PYPI   C3B 8911   5.611   8.148   8.350 -0.0661 -0.0272  0.1763
  569PYPI   C4B 8912   5.336   7.998   7.982  0.2210  0.0645 -0.0847
  570PYPI    C1 8913  15.607  18.488  10.467  0.2841  0.1077 -0.0027
  570PYPI    C2 8914  15.862  18.219  10.619 -0.0888 -0.0817  0.3065
  570PYPI    C3 8915  15.666  18.469  10.863 -0.2300  0.0341  0.0783
  570PYPI   PO4 8916  15.658  18.444  10.228 -0.1606  0.0675  0.1279
  570PYPI   GL1 8917  15.543  18.170   9.887 -0.4337  0.1815  0.0684
  570PYPI   GL2 8918  15.379  18.558   9.812 -0.2436  0.1973  0.2119
  570PYPI   C1A 8919  15.359  18.230   9.455  0.1076 -0.1959 -0.0231
  570PYPI   C2A 8920  15.315  18.095   8.986  0.2051 -0.0403 -0.3114
  570PYPI   D3A 8921  14.990  18.251   8.662  0.2792  0.0993 -0.1169
  570PYPI   C4A 8922  14.806  18.177   8.217 -0.2056  0.0428  0.1516
  570PYPI   C1B 8923  15.706  18.596   9.500 -0.1046  0.2416  0.2534
  570PYPI   C2B 8924  15.740  18.637   8.970 -0.1030  0.1414 -0.2875
  570PYPI   C3B 8925  15.821  18.925   8.671  0.2241 -0.1154  0.1403
  570PYPI   C4B 8926  15.734  18.998   8.195  0.0164  0.1211 -0.1846
  571PYPI    C1 8927  10.008  15.305  10.338  0.0684  0.0102 -0.1041
  571PYPI    C2 8928  10.182  15.597  10.550  0.2352 -0.1785  0.0226
  571PYPI    C3 8929  10.161  15.226  10.699 -0.2850 -0.1599  0.0133
  571PYPI   PO4 8930  10.059  15.264  10.101  0.1086 -0.3236 -0.2794
  571PYPI   GL1 8931   9.936  15.127   9.718 -0.1229  0.2093 -0.1732
  571PYPI   GL2 8932  10.253  15.273   9.587 -0.2869 -0.1823  0.0405
  571PYPI   C1A 8933   9.886  14.902   9.399  0.0494  0.0267  0.1145
  571PYPI   C2A 8934   9.811  14.880   8.961 -0.2883 -0.2755 -0.0524
  571PYPI   D3A 8935   9.787  15.036   8.534  0.1294 -0.0726  0.1690
  571PYPI   C4A 8936   9.734  14.832   8.183 -0.1761  0.1180 -0.2768
  571PYPI   C1B 8937   9.951  15.334   9.216 -0.0722 -0.0567 -0.0016
  571PYPI   C2B 8938  10.049  15.347   8.787  0.1442  0.0622  0.3281
  571PYPI   C3B 8939  10.229  15.326   8.391 -0.3228  0.3378 -0.2473
  571PYPI   C4B 8940  10.265  15.286   7.977 -0.1455 -0.1391 -0.0975
  572PYPI    C1 8941  15.977   7.240  10.480 -0.0405  0.1092 -0.0453
  572PYPI    C2 8942  16.022   6.844  10.512  0.0797  0.1281  0.0252
  572PYPI    C3 8943  15.727   7.028  10.710  0.0439  0.0780  0.0184
  572PYPI   PO4 8944  16.136   7.339  10.304 -0.0634  0.3792 -0.2045
  572PYPI   GL1 8945  16.422   7.150  10.022  0.1912 -0.2772 -0.0155
  572PYPI   GL2 8946  16.352   6.882  10.037 -0.1091  0.1070 -0.2223
  572PYPI   C1A 8947  16.639   7.382   9.775 -0.0207  0.1932 -0.1026
  572PYPI   C2A 8948  16.922   7.401   9.634  0.2607  0.0290 -0.1140
  572PYPI   D3A 8949  17.196   7.768   9.464  0.2110 -0.0817 -0.2577
  572PYPI   C4A 8950  17.247   7.711   9.046  0.0200  0.1496 -0.0982
  572PYPI   C1B 8951  16.211   6.912   9.622  0.0145 -0.1976 -0.1751
  572PYPI   C2B 8952  16.094   7.109   9.309  0.0488 -0.2327  0.0651
  572PYPI   C3B 8953  16.381   7.051   9.010 -0.1077 -0.1541  0.2232
  572PYPI   C4B 8954  16.415   7.048   8.583 -0.0060 -0.0691 -0.3539
  573PYPI    C1 8955  17.739   0.558  10.824  0.2770  0.0250  0.0979
  573PYPI    C2 8956  17.730   0.162  10.883  0.1304  0.0068 -0.0397
  573PYPI    C3 8957  17.740   0.411  11.196  0.0495 -0.1022  0.0503
  573PYPI   PO4 8958  17.948   0.524  10.482 -0.2285  0.0673  0.0687
  573PYPI   GL1 8959  18.145   0.206  10.149 -0.1666  0.1714 -0.1829
  573PYPI   GL2 8960  18.496   0.346  10.177 -0.0915 -0.0279  0.1490
  573PYPI   C1A 8961  17.837  -0.138   9.939 -0.2247  0.1754 -0.3116
  573PYPI   C2A 8962  17.774  -0.259   9.438 -0.0454 -0.1250  0.0690
  573PYPI   D3A 8963  17.632  -0.036   9.156 -0.2022  0.0773 -0.1405
  573PYPI   C4A 8964  17.687  -0.144   8.681  0.3780 -0.1170  0.1222
  573PYPI   C1B 8965  18.499   0.346   9.795 -0.0029 -0.0833 -0.0358
  573PYPI   C2B 8966  18.320   0.446   9.501  0.0566 -0.0283 -0.3924
  573PYPI   C3B 8967  18.323   0.709   9.118 -0.0473  0.0208 -0.0313
  573PYPI   C4B 8968  18.139   0.956   8.926  0.1300 -0.1151 -0.0216
  574ERGO   ROH 8969   5.011  15.900   9.552 -0.0863 -0.1329 -0.0993
  574ERGO    R1 8970   4.897  15.808   9.310 -0.0504 -0.2017 -0.0899
  574ERGO    R2 8971   5.049  15.758   9.085 -0.0357 -0.1264 -0.0952
  574ERGO    R3 8972   4.929  15.514   9.098  0.0958 -0.1921 -0.0836
  574ERGO    R4 8973   5.062  15.517   8.836 -0.3266  0.0745 -0.3118
  574ERGO    R5 8974   4.852  15.474   8.875 -0.2524 -0.0490  0.0022
  574ERGO    C1 8975   4.956  15.149   8.704 -0.3724  0.1297 -0.4271
  574ERGO    C2 8976   4.976  14.966   8.527  0.1800  0.1327 -0.4202
  575ERGO   ROH 8977  13.739  15.633   5.588 -0.0485 -0.0443  0.0511
  575ERGO    R1 8978  13.876  15.796   5.775 -0.2145  0.1157  0.0372
  575ERGO    R2 8979  13.746  15.932   5.977 -0.3328 -0.2073  0.1911
  575ERGO    R3 8980  13.925  15.802   6.135  0.0079  0.0258  0.0092
  575ERGO    R4 8981  13.818  16.016   6.304 -0.1396 -0.1523  0.1353
  575ERGO    R5 8982  14.028  15.976   6.264 -0.1175  0.1552 -0.0675
  575ERGO    C1 8983  14.027  15.943   6.644  0.2928  0.0985 -0.0681
  575ERGO    C2 8984  14.045  16.116   6.878 -0.0428 -0.0600 -0.1507
  576ERGO   ROH 8985  10.913   1.804   9.562 -0.3080 -0.2462  0.0408
  576ERGO    R1 8986  10.808   1.669   9.336 -0.2935 -0.0420 -0.0900
  576ERGO    R2 8987  10.789   1.789   9.087  0.0560  0.0697 -0.0688
  576ERGO    R3 8988  10.931   1.571   9.007 -0.1463 -0.0811 -0.0242
  576ERGO    R4 8989  10.818   1.680   8.760  0.2017  0.1556 -0.0854
  576ERGO    R5 8990  10.799   1.475   8.831 -0.1181  0.1483 -0.1743
  576ERGO    C1 8991  10.968   1.413   8.495  0.0967  0.0640 -0.0533
  576ERGO    C2 8992  11.169   1.180   8.329  0.1309  0.0203 -0.2985
  577ERGO   ROH 8993   5.841   1.454   5.794  0.0467  0.1005  0.0132
  577ERGO    R1 8994   5.971   1.497   6.041 -0.0345 -0.0147  0.0765
  577ERGO    R2 8995   5.996   1.749   6.154  0.1711 -0.0298  0.0654
  577ERGO    R3 8996   5.879   1.629   6.368 -0.0670  0.1104  0.0179
  577ERGO    R4 8997   5.972   1.888   6.470  0.1280  0.0366  0.0335
  577ERGO    R5 8998   6.016   1.692   6.554 -0.1084  0.0023  0.0866
  577ERGO    C1 8999   5.848   1.856   6.854 -0.1205  0.2068 -0.0297
  577ERGO    C2 9000   5.656   1.888   7.113 -0.1910 -0.0320 -0.0415
  578ERGO   ROH 9001  14.080  16.920   9.667 -0.2530  0.1002 -0.0039
  578ERGO    R1 9002  14.068  17.075   9.430 -0.1901 -0.0068 -0.0792
  578ERGO    R2 9003  14.280  17.095   9.255 -0.0497  0.1169  0.0938
  578ERGO    R3 9004  14.096  17.013   9.072  0.1802 -0.1328 -0.0312
  578ERGO    R4 9005  14.324  17.107   8.912  0.1780  0.1307  0.1227
  578ERGO    R5 9006  14.116  17.171   8.893  0.1107 -0.1293 -0.0324
  578ERGO    C1 9007  14.176  17.036   8.541  0.5262 -0.0954  0.0223
  578ERGO    C2 9008  14.312  16.924   8.306 -0.3116  0.1086 -0.3079
  579ERGO   ROH 9009   8.663  10.999   9.772 -0.0291 -0.0308  0.1537
  579ERGO    R1 9010   8.630  10.808   9.566 -0.0587 -0.0023  0.1327
  579ERGO    R2 9011   8.381  10.719   9.484 -0.0809  0.1788  0.0015
  579ERGO    R3 9012   8.469  10.798   9.239  0.1035  0.1201  0.0474
  579ERGO    R4 9013   8.333  10.543   9.191 -0.0446  0.2093 -0.0231
  579ERGO    R5 9014   8.537  10.595   9.132  0.0240  0.0727  0.0847
  579ERGO    C1 9015   8.389  10.514   8.790  0.1496  0.1721  0.0058
  579ERGO    C2 9016   8.477  10.349   8.485  0.5102  0.1940 -0.0246
  580ERGO   ROH 9017  10.427   8.855   9.681 -0.1064  0.0844 -0.0222
  580ERGO    R1 9018  10.287   8.935   9.448  0.0968  0.0288 -0.1663
  580ERGO    R2 9019  10.409   9.071   9.241  0.2993 -0.0942 -0.1317
  580ERGO    R3 9020  10.308   8.867   9.091  0.3551 -0.1278 -0.1242
  580ERGO    R4 9021  10.437   9.044   8.897  0.0331  0.0634 -0.1690
  580ERGO    R5 9022  10.232   8.973   8.890  0.0896 -0.1176 -0.0216
  580ERGO    C1 9023  10.359   8.838   8.557 -0.0695  0.1237 -0.1836
  580ERGO    C2 9024  10.486   8.788   8.285 -0.2197  0.2359 -0.0737
  581ERGO   ROH 9025  12.107   5.961   6.258 -0.1519 -0.0845  0.0612
  581ERGO    R1 9026  12.092   5.776   6.472  0.0325 -0.1222  0.0443
  581ERGO    R2 9027  12.298   5.602   6.533  0.1669 -0.0019 -0.0397
  581ERGO    R3 9028  12.275   5.712   6.780  0.1712 -0.0415 -0.0221
  581ERGO    R4 9029  12.426   5.465   6.823  0.0652 -0.0995 -0.0403
  581ERGO    R5 9030  12.244   5.525   6.926  0.0768 -0.0510 -0.0600
  581ERGO    C1 9031  12.480   5.489   7.224  0.0101 -0.1935 -0.0243
  581ERGO    C2 9032  12.696   5.497   7.484 -0.0261  0.0070  0.0492
  582ERGO   ROH 9033   4.654   3.369   5.756  0.2060 -0.0556 -0.1395
  582ERGO    R1 9034   4.718   3.445   6.021  0.3397 -0.0062 -0.1850
  582ERGO    R2 9035   4.543   3.408   6.232  0.2419  0.4798 -0.1707
  582ERGO    R3 9036   4.755   3.278   6.343 -0.0193  0.1215 -0.0718
  582ERGO    R4 9037   4.635   3.429   6.565  0.1951  0.4238 -0.1536
  582ERGO    R5 9038   4.844   3.435   6.501  0.2305  0.0170 -0.1030
  582ERGO    C1 9039   4.887   3.320   6.862 -0.0774  0.0548 -0.0508
  582ERGO    C2 9040   4.935   3.313   7.204  0.2379 -0.1907  0.3039
  583ERGO   ROH 9041   4.481   5.659   5.984 -0.1220  0.2217 -0.1144
  583ERGO    R1 9042   4.560   5.581   6.244 -0.0664  0.2188 -0.1315
  583ERGO    R2 9043   4.589   5.761   6.452 -0.1492  0.2011 -0.1013
  583ERGO    R3 9044   4.416   5.593   6.578 -0.0563  0.0887 -0.1221
  583ERGO    R4 9045   4.527   5.761   6.792 -0.2089  0.1779 -0.1122
  583ERGO    R5 9046   4.524   5.543   6.786 -0.0577  0.1747 -0.1006
  583ERGO    C1 9047   4.329   5.604   7.109 -0.1565  0.0589 -0.1380
  583ERGO    C2 9048   4.102   5.754   7.341  0.1662  0.0781  0.1434
  584ERGO   ROH 9049  14.540  13.352   9.753 -0.1670 -0.1292 -0.2298
  584ERGO    R1 9050  14.608  13.235   9.505 -0.1412 -0.1056 -0.2343
  584ERGO    R2 9051  14.419  13.132   9.332 -0.1275 -0.0509 -0.2863
  584ERGO    R3 9052  14.538  13.300   9.154 -0.0672 -0.0443 -0.2367
  584ERGO    R4 9053  14.383  13.114   8.988  0.0123 -0.0399 -0.3014
  584ERGO    R5 9054  14.595  13.160   8.969  0.0120 -0.0310 -0.2171
  584ERGO    C1 9055  14.474  13.261   8.622  0.1502 -0.0274 -0.2637
  584ERGO    C2 9056  14.361  13.332   8.317  0.0630  0.0708 -0.0593
  585ERGO   ROH 9057   8.398  17.575   9.290  0.1497  0.1292 -0.1675
  585ERGO    R1 9058   8.255  17.635   9.053  0.1133 -0.1274 -0.2137
  585ERGO    R2 9059   8.320  17.849   8.891 -0.2149 -0.0071 -0.1911
  585ERGO    R3 9060   8.330  17.658   8.698  0.1894  0.0033 -0.1905
  585ERGO    R4 9061   8.331  17.912   8.551 -0.2115  0.0169 -0.1870
  585ERGO    R5 9062   8.194  17.745   8.521  0.0886 -0.2331 -0.2355
  585ERGO    C1 9063   8.347  17.769   8.172  0.1700  0.0404 -0.1841
  585ERGO    C2 9064   8.305  17.803   7.836  0.1923  0.0502  0.1106
  586ERGO   ROH 9065   6.564   6.531   9.674 -0.1121  0.1790  0.1170
  586ERGO    R1 9066   6.475   6.580   9.410 -0.1134  0.0561  0.0941
  586ERGO    R2 9067   6.527   6.816   9.277 -0.0343 -0.0415 -0.0504
  586ERGO    R3 9068   6.629   6.650   9.087 -0.1111 -0.1927  0.0392
  586ERGO    R4 9069   6.501   6.867   8.936  0.1352 -0.1247 -0.0767
  586ERGO    R5 9070   6.465   6.653   8.912 -0.0461 -0.1023 -0.0214
  586ERGO    C1 9071   6.581   6.740   8.559  0.1618 -0.3153 -0.0081
  586ERGO    C2 9072   6.544   6.797   8.171 -0.0316  0.0977 -0.1512
  587ERGO   ROH 9073  16.186   2.744   5.856  0.0874 -0.0815  0.0750
  587ERGO    R1 9074  16.034   2.801   6.088  0.0551 -0.0342  0.0432
  587ERGO    R2 9075  16.068   2.664   6.326 -0.0550 -0.0623  0.0460
  587ERGO    R3 9076  16.101   2.914   6.427  0.0222 -0.0810  0.0651
  587ERGO    R4 9077  15.962   2.767   6.638 -0.2001 -0.0012 -0.0231
  587ERGO    R5 9078  15.900   2.956   6.550 -0.0348  0.0340 -0.0654
  587ERGO    C1 9079  15.932   3.061   6.915 -0.2122  0.0170 -0.0454
  587ERGO    C2 9080  15.952   2.948   7.198 -0.0456  0.0718 -0.0655
  588ERGO   ROH 9081  11.658   8.892   9.970 -0.0221 -0.0649  0.0518
  588ERGO    R1 9082  11.475   8.984   9.775  0.0160 -0.0534  0.0218
  588ERGO    R2 9083  11.555   9.099   9.537  0.0624 -0.0457  0.0432
  588ERGO    R3 9084  11.397   8.907   9.428  0.0778 -0.0366  0.0035
  588ERGO    R4 9085  11.534   9.029   9.199 -0.0781  0.1594  0.0074
  588ERGO    R5 9086  11.319   9.004   9.223 -0.0600  0.0660  0.1005
  588ERGO    C1 9087  11.373   8.808   8.900 -0.1454  0.2871 -0.0507
  588ERGO    C2 9088  11.359   8.852   8.549 -0.0858  0.1534 -0.0457
  589ERGO   ROH 9089  15.055   7.498   6.081 -0.1089  0.0391 -0.0568
  589ERGO    R1 9090  15.150   7.432   6.340  0.0675  0.0919 -0.1047
  589ERGO    R2 9091  15.287   7.612   6.499  0.1091  0.1571 -0.1957
  589ERGO    R3 9092  15.094   7.550   6.680  0.2270  0.1085 -0.0874
  589ERGO    R4 9093  15.259   7.752   6.813 -0.0906  0.5483 -0.3808
  589ERGO    R5 9094  15.207   7.555   6.891  0.2299  0.5796 -0.1014
  589ERGO    C1 9095  15.062   7.775   7.167 -0.0961  0.7304 -0.3868
  589ERGO    C2 9096  15.135   7.927   7.513 -0.3508 -0.2825 -0.1166
  590ERGO   ROH 9097  10.441   5.680   5.969  0.0025 -0.2364  0.0485
  590ERGO    R1 9098  10.541   5.619   6.227 -0.0109 -0.1346  0.0781
  590ERGO    R2 9099  10.599   5.814   6.414 -0.0230 -0.0607  0.0051
  590ERGO    R3 9100  10.431   5.668   6.571 -0.0300 -0.0010  0.0535
  590ERGO    R4 9101  10.574   5.844   6.757 -0.0955  0.1271 -0.0148
  590ERGO    R5 9102  10.558   5.627   6.770 -0.0622  0.1304  0.1028
  590ERGO    C1 9103  10.403   5.724   7.105 -0.1443  0.2923  0.0190
  590ERGO    C2 9104  10.475   5.677   7.461 -0.1599 -0.1314 -0.1327
  591ERGO   ROH 9105   0.206  15.759   5.622 -0.0596  0.0658 -0.0864
  591ERGO    R1 9106   0.162  15.760   5.901 -0.1713  0.0397 -0.1040
  591ERGO    R2 9107  -0.024  15.595   6.022  0.0196 -0.2176 -0.1563
  591ERGO    R3 9108   0.190  15.521   6.174  0.0729  0.1145 -0.0608
  591ERGO    R4 9109  -0.042  15.488   6.351  0.0326 -0.2774 -0.1746
  591ERGO    R5 9110   0.138  15.603   6.393 -0.1687  0.0158 -0.0763
  591ERGO    C1 9111   0.148  15.356   6.684  0.0902 -0.0004 -0.0956
  591ERGO    C2 9112   0.170  15.105   6.924  0.1833 -0.2290  0.2239
  592ERGO   ROH 9113   1.720   7.383   6.111  0.1246 -0.0803 -0.0125
  592ERGO    R1 9114   1.690   7.495   6.369  0.0248 -0.1200 -0.0057
  592ERGO    R2 9115   1.660   7.341   6.596  0.1531 -0.1611 -0.0122
  592ERGO    R3 9116   1.872   7.487   6.684  0.0300  0.0153 -0.0054
  592ERGO    R4 9117   1.710   7.440   6.923 -0.0107  0.0155 -0.0393
  592ERGO    R5 9118   1.780   7.632   6.849 -0.1142  0.0268 -0.0981
  592ERGO    C1 9119   1.939   7.634   7.196 -0.2217  0.2840 -0.0488
  592ERGO    C2 9120   1.913   7.676   7.459 -0.1967 -0.0067  0.0783
  593ERGO   ROH 9121   5.130  12.543   9.783  0.0148 -0.0365 -0.0288
  593ERGO    R1 9122   5.192  12.493   9.512 -0.0835 -0.1412 -0.0326
  593ERGO    R2 9123   5.053  12.310   9.358 -0.2237 -0.1034  0.0453
  593ERGO    R3 9124   5.022  12.523   9.191 -0.1478 -0.1306  0.0056
  593ERGO    R4 9125   4.973  12.288   9.023 -0.4865 -0.1212  0.1065
  593ERGO    R5 9126   5.115  12.449   8.983 -0.3714 -0.2707 -0.0407
  593ERGO    C1 9127   4.898  12.475   8.671 -0.5682 -0.1572  0.1048
  593ERGO    C2 9128   4.656  12.391   8.401  0.2988 -0.2504  0.1149
  594ERGO   ROH 9129  17.265   4.900   6.197 -0.1498 -0.0018 -0.0009
  594ERGO    R1 9130  17.463   4.914   6.398 -0.1345 -0.3194  0.0097
  594ERGO    R2 9131  17.466   5.113   6.590  0.3462 -0.1323 -0.1796
  594ERGO    R3 9132  17.471   4.903   6.762 -0.2220  0.0035  0.0247
  594ERGO    R4 9133  17.609   5.119   6.905  0.4222 -0.2321 -0.2107
  594ERGO    R5 9134  17.685   4.918   6.869 -0.1467 -0.4994 -0.0329
  594ERGO    C1 9135  17.696   4.925   7.250 -0.0668 -0.1628 -0.0371
  594ERGO    C2 9136  17.952   4.829   7.536 -0.1722 -0.1775  0.2435
  595ERGO   ROH 9137  15.251  10.695   9.724  0.2629  0.0971 -0.0781
  595ERGO    R1 9138  15.366  10.778   9.478  0.1243  0.1082 -0.1404
  595ERGO    R2 9139  15.403  10.606   9.265 -0.0064  0.1190 -0.1757
  595ERGO    R3 9140  15.261  10.794   9.130 -0.0790  0.1340 -0.0790
  595ERGO    R4 9141  15.366  10.618   8.922 -0.0984  0.2250 -0.1621
  595ERGO    R5 9142  15.388  10.834   8.932 -0.1400  0.2248 -0.0987
  595ERGO    C1 9143  15.211  10.802   8.595 -0.2202  0.3007 -0.0636
  595ERGO    C2 9144  15.207  10.708   8.243  0.4810 -0.0270  0.0214
  596ERGO   ROH 9145   5.638  13.464   9.611  0.1799 -0.0764  0.1741
  596ERGO    R1 9146   5.726  13.338   9.373  0.0967 -0.0310  0.1189
  596ERGO    R2 9147   5.565  13.314   9.150  0.0414  0.0754  0.1445
  596ERGO    R3 9148   5.774  13.436   9.026  0.0473  0.0580  0.1373
  596ERGO    R4 9149   5.660  13.259   8.822 -0.0731  0.1958  0.0900
  596ERGO    R5 9150   5.868  13.265   8.886 -0.0534  0.0918  0.0298
  596ERGO    C1 9151   5.912  13.341   8.515 -0.1343  0.2495  0.0516
  596ERGO    C2 9152   6.037  13.493   8.274  0.1124  0.0691  0.0909
  597ERGO   ROH 9153  10.705  11.499   5.962  0.0773  0.0528 -0.0839
  597ERGO    R1 9154  10.728  11.445   6.239  0.0396  0.0483 -0.0810
  597ERGO    R2 9155  10.939  11.538   6.392  0.0191  0.0455 -0.0495
  597ERGO    R3 9156  10.740  11.641   6.546 -0.0012  0.0434 -0.0758
  597ERGO    R4 9157  10.979  11.654   6.715 -0.0328 -0.0302 -0.0165
  597ERGO    R5 9158  10.788  11.562   6.767 -0.0616 -0.0128 -0.0807
  597ERGO    C1 9159  10.815  11.818   7.047 -0.0821 -0.0762 -0.0221
  597ERGO    C2 9160  10.918  12.098   7.208  0.1026 -0.2261  0.2351
  598ERGO   ROH 9161   4.336   1.380   9.683  0.0999  0.2272 -0.0269
  598ERGO    R1 9162   4.124   1.387   9.497  0.1534 -0.0179 -0.1020
  598ERGO    R2 9163   3.970   1.613   9.455 -0.1917 -0.2335 -0.0468
  598ERGO    R3 9164   4.042   1.576   9.196 -0.0297  0.0050 -0.0388
  598ERGO    R4 9165   3.837   1.784   9.186 -0.2445 -0.2045 -0.0021
  598ERGO    R5 9166   3.838   1.598   9.073  0.0042 -0.1336 -0.1198
  598ERGO    C1 9167   3.827   1.848   8.786 -0.1232  0.0362  0.0315
  598ERGO    C2 9168   3.804   2.000   8.432  0.1130 -0.0541  0.0396
  599ERGO   ROH 9169   9.584   4.577   9.603  0.1136 -0.0130  0.0505
  599ERGO    R1 9170   9.600   4.479   9.337  0.0525 -0.0489  0.0598
  599ERGO    R2 9171   9.376   4.428   9.184  0.0192  0.0451  0.0762
  599ERGO    R3 9172   9.499   4.593   9.007  0.0921 -0.0337  0.0528
  599ERGO    R4 9173   9.294   4.456   8.849  0.0559  0.0059  0.0640
  599ERGO    R5 9174   9.506   4.468   8.803  0.0645 -0.0780  0.0788
  599ERGO    C1 9175   9.362   4.627   8.489  0.1457 -0.0908  0.0350
  599ERGO    C2 9176   9.369   4.670   8.201 -0.2032  0.0586  0.2826
  600ERGO   ROH 9177  13.610   6.100  10.085 -0.1076 -0.2075  0.2740
  600ERGO    R1 9178  13.650   6.112   9.805 -0.0385 -0.2238  0.2835
  600ERGO    R2 9179  13.499   5.965   9.627 -0.1396 -0.0698  0.2424
  600ERGO    R3 9180  13.455   6.208   9.514  0.1102 -0.0181  0.2486
  600ERGO    R4 9181  13.424   6.017   9.294 -0.3377 -0.0122  0.2944
  600ERGO    R5 9182  13.554   6.192   9.297 -0.0849 -0.1904  0.1675
  600ERGO    C1 9183  13.339   6.276   8.993 -0.2186  0.0699  0.3305
  600ERGO    C2 9184  13.271   6.375   8.771 -0.3017  0.1373  0.0119
  601ERGO   ROH 9185   3.465  11.900   5.940 -0.1697 -0.1035  0.0361
  601ERGO    R1 9186   3.383  11.944   6.207 -0.0819 -0.0205  0.0500
  601ERGO    R2 9187   3.339  11.737   6.386 -0.0753  0.0327  0.1125
  601ERGO    R3 9188   3.515  11.876   6.539  0.0000  0.0313  0.0286
  601ERGO    R4 9189   3.362  11.714   6.730  0.1673 -0.0584  0.0926
  601ERGO    R5 9190   3.392  11.930   6.737  0.1222 -0.0519  0.1305
  601ERGO    C1 9191   3.540  11.832   7.074  0.3791 -0.1127  0.0022
  601ERGO    C2 9192   3.669  11.846   7.418  0.2970 -0.1751 -0.2266
  602ERGO   ROH 9193  14.391   5.880   6.079 -0.0780 -0.0123 -0.1825
  602ERGO    R1 9194  14.332   5.718   6.303 -0.1519  0.0434 -0.1612
  602ERGO    R2 9195  14.495   5.706   6.525 -0.1406 -0.0250 -0.1712
  602ERGO    R3 9196  14.266   5.770   6.657 -0.0960  0.1179 -0.1620
  602ERGO    R4 9197  14.463   5.719   6.869 -0.1581 -0.1439 -0.1678
  602ERGO    R5 9198  14.266   5.626   6.849 -0.2371  0.0355 -0.2234
  602ERGO    C1 9199  14.229   5.787   7.193 -0.1265 -0.0790 -0.1571
  602ERGO    C2 9200  14.260   5.825   7.600 -0.0917  0.2014  0.1814
  603ERGO   ROH 9201   7.329   3.001   9.483 -0.1433  0.1276  0.1064
  603ERGO    R1 9202   7.462   3.178   9.307 -0.0324  0.0615  0.1217
  603ERGO    R2 9203   7.578   3.094   9.071  0.0102 -0.0085  0.1625
  603ERGO    R3 9204   7.422   3.288   8.962  0.1019  0.0285  0.0966
  603ERGO    R4 9205   7.620   3.227   8.754 -0.1818 -0.4166 -0.0412
  603ERGO    R5 9206   7.574   3.424   8.836  0.1110 -0.2731 -0.2239
  603ERGO    C1 9207   7.497   3.486   8.468 -0.2075 -0.6194 -0.2216
  603ERGO    C2 9208   7.657   3.561   8.211  0.1169 -0.0332 -0.2478
  604ERGO   ROH 9209   5.552  16.727   5.546  0.1687  0.0543  0.0715
  604ERGO    R1 9210   5.379  16.827   5.747  0.0675 -0.0087  0.0184
  604ERGO    R2 9211   5.209  16.664   5.891  0.0510 -0.0698 -0.0553
  604ERGO    R3 9212   5.333  16.778   6.104 -0.0489 -0.0580 -0.0053
  604ERGO    R4 9213   5.184  16.553   6.217  0.1577 -0.2300 -0.1021
  604ERGO    R5 9214   5.174  16.760   6.282 -0.0237 -0.2746 -0.0103
  604ERGO    C1 9215   5.286  16.594   6.607  0.1261 -0.3124 -0.0825
  604ERGO    C2 9216   5.201  16.446   6.951 -0.0204 -0.1032 -0.0955
  605ERGO   ROH 9217  14.671   7.323   9.696  0.0798 -0.0562 -0.0023
  605ERGO    R1 9218  14.446   7.249   9.542  0.0005  0.1691  0.0042
  605ERGO    R2 9219  14.403   7.345   9.287  0.2490 -0.0128 -0.1063
  605ERGO    R3 9220  14.385   7.081   9.224 -0.1833 -0.0572  0.1548
  605ERGO    R4 9221  14.258   7.221   8.999  0.5799 -0.0029 -0.2836
  605ERGO    R5 9222  14.171   7.060   9.119 -0.0275  0.3007 -0.2721
  605ERGO    C1 9223  14.157   6.900   8.772  0.3667 -0.0388 -0.1417
  605ERGO    C2 9224  13.981   6.839   8.425 -0.1189 -0.2303 -0.0543
  606ERGO   ROH 9225   6.298  16.591   9.273  0.3826  0.1687 -0.0028
  606ERGO    R1 9226   6.407  16.514   9.023  0.2108  0.2979 -0.1193
  606ERGO    R2 9227   6.288  16.323   8.862  0.2969  0.1042  0.0389
  606ERGO    R3 9228   6.299  16.521   8.675 -0.2023  0.1072 -0.0012
  606ERGO    R4 9229   6.332  16.273   8.523  0.1809  0.1463  0.0171
  606ERGO    R5 9230   6.464  16.445   8.519 -0.1518  0.4058 -0.0946
  606ERGO    C1 9231   6.367  16.428   8.150 -0.3552  0.1737 -0.0330
  606ERGO    C2 9232   6.345  16.320   7.810  0.1703 -0.1398 -0.1320
  607ERGO   ROH 9233  12.952   3.181   5.656  0.0372  0.0314 -0.0335
  607ERGO    R1 9234  12.918   3.212   5.935 -0.0885  0.0924 -0.0550
  607ERGO    R2 9235  12.767   3.038   6.087 -0.0347  0.0411 -0.0600
  607ERGO    R3 9236  12.995   3.020   6.234 -0.0787  0.2302  0.0310
  607ERGO    R4 9237  12.778   2.966   6.425 -0.1006 -0.1585 -0.0988
  607ERGO    R5 9238  12.936   3.116   6.446 -0.2934  0.0248  0.0664
  607ERGO    C1 9239  12.998   2.908   6.760 -0.1801 -0.0971 -0.0359
  607ERGO    C2 9240  13.066   2.741   7.051  0.1143  0.1059  0.2866
  608ERGO   ROH 9241  10.902   1.304   5.763  0.0253  0.1584 -0.1200
  608ERGO    R1 9242  10.961   1.278   6.039 -0.1176  0.0285 -0.1004
  608ERGO    R2 9243  11.002   1.496   6.203  0.0292 -0.0519 -0.0275
  608ERGO    R3 9244  10.807   1.380   6.353 -0.1533  0.1010 -0.1414
  608ERGO    R4 9245  10.882   1.620   6.503  0.2413 -0.1684  0.1080
  608ERGO    R5 9246  10.876   1.416   6.579 -0.0809 -0.2442 -0.1037
  608ERGO    C1 9247  10.629   1.582   6.818  0.1935 -0.0926  0.0799
  608ERGO    C2 9248  10.524   1.715   7.103  0.1391  0.1571 -0.1638
  609ERGO   ROH 9249  12.975  15.833   5.583 -0.1544  0.1977  0.2906
  609ERGO    R1 9250  12.862  15.741   5.826 -0.0495  0.0300  0.2782
  609ERGO    R2 9251  12.849  15.473   5.892  0.0760 -0.0113  0.1484
  609ERGO    R3 9252  12.977  15.556   6.117  0.1076 -0.0726  0.1527
  609ERGO    R4 9253  12.860  15.296   6.189  0.0031 -0.0277  0.1413
  609ERGO    R5 9254  12.834  15.485   6.296  0.0784 -0.0225  0.1485
  609ERGO    C1 9255  12.987  15.271   6.573 -0.0097 -0.0948  0.1411
  609ERGO    C2 9256  13.097  15.227   6.796 -0.2175  0.2362  0.0159
  610ERGO   ROH 9257   1.316  16.648   9.757  0.0135  0.0653  0.0800
  610ERGO    R1 9258   1.390  16.658   9.485 -0.1017 -0.1087  0.0411
  610ERGO    R2 9259   1.206  16.688   9.281 -0.1554  0.1656  0.1315
  610ERGO    R3 9260   1.363  16.899   9.212  0.1693 -0.1068  0.0115
  610ERGO    R4 9261   1.259  16.797   8.958 -0.2802  0.1097  0.0911
  610ERGO    R5 9262   1.468  16.829   9.008 -0.1564 -0.2807 -0.1089
  610ERGO    C1 9263   1.438  17.058   8.704 -0.0480 -0.1788 -0.0452
  610ERGO    C2 9264   1.523  17.319   8.556  0.2937 -0.2417 -0.1772
  611ERGO   ROH 9265   0.536   5.620   9.902 -0.0009 -0.2351  0.0362
  611ERGO    R1 9266   0.657   5.473   9.693 -0.0600 -0.1747 -0.0408
  611ERGO    R2 9267   0.592   5.209   9.641 -0.0790 -0.1542 -0.1032
  611ERGO    R3 9268   0.545   5.304   9.390 -0.1417 -0.0820 -0.0649
  611ERGO    R4 9269   0.666   5.039   9.349 -0.1306 -0.0748 -0.1627
  611ERGO    R5 9270   0.733   5.228   9.262 -0.1591 -0.0391 -0.1251
  611ERGO    C1 9271   0.665   5.029   8.944 -0.2195  0.0392 -0.1613
  611ERGO    C2 9272   0.584   4.858   8.647 -0.1336 -0.3507  0.0054
  612ERGO   ROH 9273  17.955  14.611   5.808 -0.0884 -0.1980  0.3278
  612ERGO    R1 9274  17.780  14.690   6.017 -0.0682 -0.0887  0.3047
  612ERGO    R2 9275  17.829  14.911   6.176 -0.0312 -0.0270  0.2134
  612ERGO    R3 9276  17.579  14.983   6.096 -0.0245 -0.0286  0.1929
  612ERGO    R4 9277  17.600  15.079   6.373 -0.0478 -0.0225  0.1892
  612ERGO    R5 9278  17.444  14.951   6.291 -0.0400 -0.0227  0.1809
  612ERGO    C1 9279  17.233  15.244   6.412 -0.0511 -0.0212  0.1559
  612ERGO    C2 9280  16.980  15.331   6.500  0.0129  0.0606  0.0785
  613ERGO   ROH 9281   8.936  16.501   5.620 -0.1439 -0.0639 -0.0838
  613ERGO    R1 9282   9.083  16.515   5.862 -0.0394  0.0088 -0.1512
  613ERGO    R2 9283   8.984  16.638   6.089  0.0451  0.0444 -0.1369
  613ERGO    R3 9284   9.041  16.398   6.204  0.1284  0.0786 -0.1048
  613ERGO    R4 9285   9.013  16.584   6.429 -0.1381  0.0653 -0.1170
  613ERGO    R5 9286   9.182  16.453   6.389 -0.0233  0.1737 -0.0117
  613ERGO    C1 9287   9.082  16.327   6.735 -0.1667  0.1095 -0.0753
  613ERGO    C2 9288   8.950  16.343   6.997  0.1255 -0.0297  0.0809
  614ERGO   ROH 9289   9.242  16.200   7.352 -0.0479 -0.1637  0.0178
  614ERGO    R1 9290   9.426  16.241   7.563  0.0357 -0.2995 -0.0270
  614ERGO    R2 9291   9.361  16.383   7.791  0.2314 -0.1493 -0.0619
  614ERGO    R3 9292   9.446  16.157   7.917 -0.0001 -0.2055 -0.0020
  614ERGO    R4 9293   9.490  16.371   8.112  0.2895 -0.1807 -0.0866
  614ERGO    R5 9294   9.638  16.227   8.042  0.1110 -0.3783 -0.0701
  614ERGO    C1 9295   9.645  16.152   8.416  0.1060 -0.2518 -0.0447
  614ERGO    C2 9296   9.638  16.252   8.773  0.2020  0.3059 -0.2469
  615ERGO   ROH 9297   7.760  12.633   5.821  0.1100 -0.0919  0.2253
  615ERGO    R1 9298   7.850  12.534   6.070  0.0417 -0.0073  0.2835
  615ERGO    R2 9299   8.010  12.681   6.240  0.0155  0.0373  0.2612
  615ERGO    R3 9300   7.814  12.626   6.420 -0.0273  0.1262  0.2437
  615ERGO    R4 9301   8.032  12.739   6.580  0.1262 -0.2054  0.2979
  615ERGO    R5 9302   7.932  12.549   6.614 -0.0775 -0.1296  0.1821
  615ERGO    C1 9303   7.861  12.721   6.947  0.1505 -0.2633  0.3028
  615ERGO    C2 9304   7.853  12.845   7.255 -0.1443 -0.0128 -0.2041
  616ERGO   ROH 9305  10.310   3.147   9.708  0.0553  0.0474 -0.0012
  616ERGO    R1 9306  10.213   3.204   9.448  0.0959 -0.1608 -0.0636
  616ERGO    R2 9307  10.333   3.388   9.281 -0.1553  0.0618 -0.0031
  616ERGO    R3 9308  10.339   3.179   9.107  0.3495  0.0495  0.0110
  616ERGO    R4 9309  10.384   3.416   8.941  0.0007  0.1328  0.0246
  616ERGO    R5 9310  10.231   3.264   8.910  0.3038 -0.1670 -0.0604
  616ERGO    C1 9311  10.418   3.237   8.579  0.5653  0.1626  0.0540
  616ERGO    C2 9312  10.551   3.273   8.235 -0.1841  0.3768 -0.0174
  617ERGO   ROH 9313  14.383   0.974   5.873 -0.2331  0.2191 -0.0033
  617ERGO    R1 9314  14.240   0.928   6.114 -0.1506  0.1633  0.0361
  617ERGO    R2 9315  14.185   0.674   6.208 -0.1471  0.1393 -0.0194
  617ERGO    R3 9316  14.306   0.766   6.433 -0.0511  0.0577 -0.0377
  617ERGO    R4 9317  14.221   0.494   6.500 -0.2113  0.1126 -0.0285
  617ERGO    R5 9318  14.175   0.676   6.612 -0.0771  0.1379 -0.0179
  617ERGO    C1 9319  14.355   0.475   6.882 -0.1586  0.0204 -0.0510
  617ERGO    C2 9320  14.554   0.510   7.206 -0.4125 -0.2316  0.0222
  618ERGO   ROH 9321  13.939   1.075   5.509  0.0767 -0.0409  0.0026
  618ERGO    R1 9322  14.061   1.265   5.679 -0.0185  0.1096 -0.0955
  618ERGO    R2 9323  13.918   1.468   5.802 -0.1619 -0.0369 -0.0186
  618ERGO    R3 9324  14.031   1.366   6.027  0.1036  0.1053 -0.0833
  618ERGO    R4 9325  13.942   1.634   6.104 -0.5451 -0.1339  0.0702
  618ERGO    R5 9326  14.143   1.553   6.128 -0.3342  0.3309  0.0085
  618ERGO    C1 9327  14.062   1.636   6.491 -0.5188 -0.0570  0.0613
  618ERGO    C2 9328  13.941   1.633   6.761  0.1120 -0.2021 -0.2068
  619ERGO   ROH 9329   5.087   8.618   5.772 -0.2140  0.1088 -0.1940
  619ERGO    R1 9330   5.068   8.726   6.033 -0.0870  0.1047 -0.1826
  619ERGO    R2 9331   4.826   8.786   6.153 -0.0332  0.0317 -0.0346
  619ERGO    R3 9332   4.921   8.625   6.350  0.1370  0.0616 -0.0904
  619ERGO    R4 9333   4.731   8.802   6.485  0.0988 -0.0527  0.0083
  619ERGO    R5 9334   4.938   8.768   6.541  0.1419  0.0517 -0.0833
  619ERGO    C1 9335   4.764   8.661   6.863  0.3354 -0.0735 -0.0190
  619ERGO    C2 9336   4.592   8.500   7.122  0.0040  0.0413  0.2771
  620ERGO   ROH 9337   0.050  12.266   9.717  0.1379  0.2793  0.1908
  620ERGO    R1 9338  -0.008  12.164   9.460  0.4044  0.0751  0.2084
  620ERGO    R2 9339  -0.190  12.284   9.290  0.2029 -0.3416  0.1251
  620ERGO    R3 9340   0.019  12.282   9.117  0.2555  0.0191  0.1757
  620ERGO    R4 9341  -0.214  12.341   8.950  0.2304 -0.1075  0.1596
  620ERGO    R5 9342  -0.069  12.182   8.918  0.4151  0.0713  0.0746
  620ERGO    C1 9343  -0.032  12.373   8.589  0.2956  0.3674  0.2270
  620ERGO    C2 9344  -0.050  12.573   8.337 -0.3989 -0.0148 -0.1483
  621ERGO   ROH 9345   0.828  11.643   9.815  0.2088  0.2968 -0.0816
  621ERGO    R1 9346   0.782  11.665   9.537 -0.2049  0.0836 -0.0387
  621ERGO    R2 9347   0.941  11.538   9.349 -0.0816  0.4426 -0.1864
  621ERGO    R3 9348   0.703  11.440   9.263  0.0559 -0.2393  0.1445
  621ERGO    R4 9349   0.893  11.374   9.049 -0.0497  0.3811 -0.1586
  621ERGO    R5 9350   0.704  11.481   9.027 -0.4161 -0.1592  0.1477
  621ERGO    C1 9351   0.641  11.186   8.793  0.0981 -0.2949  0.1683
  621ERGO    C2 9352   0.709  11.048   8.458  0.0283 -0.0333 -0.1344
  622ERGO   ROH 9353   8.807   0.172   5.585 -0.1664  0.0423 -0.1870
  622ERGO    R1 9354   8.689   0.116   5.836 -0.0476  0.0702 -0.1257
  622ERGO    R2 9355   8.740  -0.117   5.975  0.0159  0.0920 -0.1290
  622ERGO    R3 9356   8.805   0.055   6.176  0.1077  0.1063 -0.1687
  622ERGO    R4 9357   8.774  -0.207   6.307 -0.1407  0.1515 -0.0948
  622ERGO    R5 9358   8.674  -0.020   6.363 -0.0085  0.2610 -0.1762
  622ERGO    C1 9359   8.855  -0.098   6.689 -0.1458  0.1997 -0.1122
  622ERGO    C2 9360   8.773  -0.401   6.927 -0.0819  0.0491 -0.0045
  623ERGO   ROH 9361  12.296   0.619   9.548  0.1801 -0.3595  0.0464
  623ERGO    R1 9362  12.332   0.695   9.278  0.0684 -0.4204  0.0134
  623ERGO    R2 9363  12.511   0.890   9.201 -0.2310 -0.1664 -0.0678
  623ERGO    R3 9364  12.606   0.695   9.037  0.0806 -0.0985  0.0259
  623ERGO    R4 9365  12.721   0.944   8.931 -0.0653 -0.0157  0.0882
  623ERGO    R5 9366  12.606   0.795   8.820  0.1624 -0.1315  0.0154
  623ERGO    C1 9367  12.932   0.791   8.622  0.3235  0.1358  0.2670
  623ERGO    C2 9368  13.196   0.891   8.621 -0.1572 -0.4635  0.0211
  624ERGO   ROH 9369  16.432  17.551  10.043  0.0257 -0.0794  0.0667
  624ERGO    R1 9370  16.278  17.478   9.817 -0.0227  0.0776  0.0477
  624ERGO    R2 9371  16.172  17.664   9.642  0.3455  0.1856 -0.0696
  624ERGO    R3 9372  16.304  17.516   9.456  0.1680 -0.1202  0.0382
  624ERGO    R4 9373  16.078  17.634   9.311  0.4408  0.2420 -0.1029
  624ERGO    R5 9374  16.130  17.423   9.320  0.0566  0.1447 -0.0064
  624ERGO    C1 9375  16.147  17.478   8.943  0.3296 -0.0119 -0.0209
  624ERGO    C2 9376  16.128  17.503   8.633 -0.0458 -0.1032 -0.1762
  625ERGO   ROH 9377   9.291   3.629   9.676  0.1236  0.1806 -0.0205
  625ERGO    R1 9378   9.239   3.575   9.403  0.0476  0.0923  0.0095
  625ERGO    R2 9379   8.983   3.545   9.303  0.0151  0.0482  0.0886
  625ERGO    R3 9380   9.063   3.740   9.131 -0.0386  0.0005  0.0119
  625ERGO    R4 9381   8.901   3.559   8.968 -0.0127 -0.0781  0.0908
  625ERGO    R5 9382   9.104   3.624   8.925 -0.0356 -0.0564  0.0501
  625ERGO    C1 9383   8.929   3.749   8.611 -0.0793 -0.1965  0.0200
  625ERGO    C2 9384   8.859   3.898   8.250  0.2493 -0.1477  0.1830
  626ERGO   ROH 9385   2.168  13.018   5.613  0.1307  0.0829 -0.2064
  626ERGO    R1 9386   2.072  13.231   5.773  0.0445  0.0400 -0.1987
  626ERGO    R2 9387   1.879  13.197   5.967  0.1028 -0.0571 -0.1542
  626ERGO    R3 9388   2.065  13.314   6.127  0.0737  0.0553 -0.2022
  626ERGO    R4 9389   1.818  13.319   6.285  0.0985 -0.0343 -0.1642
  626ERGO    R5 9390   1.946  13.489   6.239  0.0112  0.0173 -0.2112
  626ERGO    C1 9391   1.958  13.499   6.620  0.0687  0.0846 -0.2150
  626ERGO    C2 9392   2.146  13.474   6.948  0.0772  0.0364  0.4135
  627ERGO   ROH 9393   0.983   6.214   6.063  0.0214  0.0406 -0.0127
  627ERGO    R1 9394   0.908   6.258   6.332  0.0273 -0.0270  0.0006
  627ERGO    R2 9395   1.004   6.105   6.541  0.1097 -0.0173 -0.0274
  627ERGO    R3 9396   1.075   6.347   6.642  0.0203 -0.0009 -0.0035
  627ERGO    R4 9397   1.062   6.170   6.875  0.0002 -0.0048 -0.0107
  627ERGO    R5 9398   0.960   6.361   6.851 -0.0404 -0.0316 -0.0363
  627ERGO    C1 9399   1.163   6.435   7.165 -0.1475  0.0179  0.0214
  627ERGO    C2 9400   1.385   6.449   7.386  0.1143 -0.0730  0.0195
  628ERGO   ROH 9401   8.346   9.000   5.933 -0.3033 -0.0346 -0.0706
  628ERGO    R1 9402   8.437   8.860   6.161 -0.3494 -0.1540 -0.1241
  628ERGO    R2 9403   8.598   8.977   6.353  0.0638 -0.4044 -0.3008
  628ERGO    R3 9404   8.403   8.892   6.522  0.0502  0.0080 -0.0971
  628ERGO    R4 9405   8.650   8.872   6.678  0.1329 -0.2940 -0.2752
  628ERGO    R5 9406   8.504   8.714   6.645 -0.1476 -0.0818 -0.0687
  628ERGO    C1 9407   8.496   8.731   7.026  0.1604  0.1573 -0.0690
  628ERGO    C2 9408   8.349   8.542   7.355 -0.2207 -0.3108  0.0522
  629ERGO   ROH 9409  18.206   6.230  10.097  0.1204  0.1204  0.0196
  629ERGO    R1 9410  18.318   6.276   9.841  0.1668  0.2697  0.0661
  629ERGO    R2 9411  18.214   6.164   9.611  0.4535  0.0643  0.0327
  629ERGO    R3 9412  18.209   6.423   9.527  0.0691  0.0503 -0.0044
  629ERGO    R4 9413  18.197   6.265   9.281  0.2887 -0.0055  0.0187
  629ERGO    R5 9414  18.339   6.423   9.326  0.0614  0.2137 -0.0105
  629ERGO    C1 9415  18.181   6.566   9.010 -0.1681 -0.0593 -0.0242
  629ERGO    C2 9416  18.161   6.463   8.662 -0.0877  0.0415 -0.1453
  630ERGO   ROH 9417   2.537  17.741   9.813 -0.2073  0.2242  0.1323
  630ERGO    R1 9418   2.515  17.628   9.554 -0.1651 -0.0255  0.2346
  630ERGO    R2 9419   2.279  17.521   9.458 -0.2044  0.0604  0.2256
  630ERGO    R3 9420   2.322  17.693   9.253  0.0371 -0.1801  0.0701
  630ERGO    R4 9421   2.125  17.502   9.149 -0.2647  0.0270  0.2579
  630ERGO    R5 9422   2.316  17.555   9.057 -0.1919 -0.3405  0.1888
  630ERGO    C1 9423   2.077  17.653   8.776 -0.0731 -0.2184  0.1307
  630ERGO    C2 9424   1.971  17.621   8.457  0.0591 -0.0606 -0.2780
  631ERGO   ROH 9425  17.136   2.851   6.036 -0.0498 -0.0213 -0.1854
  631ERGO    R1 9426  17.015   2.749   6.271 -0.1281  0.1359 -0.1560
  631ERGO    R2 9427  17.150   2.584   6.448 -0.2872 -0.0131 -0.1705
  631ERGO    R3 9428  17.074   2.772   6.629 -0.0329  0.0921 -0.1686
  631ERGO    R4 9429  17.107   2.526   6.786 -0.2072  0.0850 -0.1430
  631ERGO    R5 9430  16.931   2.654   6.780 -0.0874  0.2557 -0.0910
  631ERGO    C1 9431  17.011   2.669   7.153  0.0780  0.2408 -0.1250
  631ERGO    C2 9432  17.094   2.513   7.468 -0.1345 -0.0297  0.2547
  632ERGO   ROH 9433  12.014   6.451   9.760 -0.0196  0.0645  0.0115
  632ERGO    R1 9434  12.141   6.630   9.581  0.1011  0.0478  0.0805
  632ERGO    R2 9435  12.293   6.542   9.367 -0.0171  0.0256  0.0086
  632ERGO    R3 9436  12.126   6.702   9.224  0.0955  0.2485  0.1197
  632ERGO    R4 9437  12.339   6.630   9.036 -0.2214 -0.2110 -0.0858
  632ERGO    R5 9438  12.272   6.832   9.085  0.1756 -0.0640 -0.1004
  632ERGO    C1 9439  12.208   6.831   8.709 -0.2348 -0.1395 -0.0365
  632ERGO    C2 9440  12.232   6.693   8.435  0.1501 -0.0661 -0.2402
  633ERGO   ROH 9441  13.347  18.642   7.375  0.0366  0.0788  0.0946
  633ERGO    R1 9442  13.203  18.802   7.560  0.1185  0.0648  0.1721
  633ERGO    R2 9443  12.932  18.768   7.608  0.0751  0.2428  0.0763
  633ERGO    R3 9444  13.015  18.747   7.866 -0.0003 -0.0081  0.0876
  633ERGO    R4 9445  12.760  18.889   7.882  0.0585  0.1093  0.1255
  633ERGO    R5 9446  12.949  18.953   7.967  0.0746 -0.0500  0.2331
  633ERGO    C1 9447  12.737  18.939   8.284 -0.0219 -0.2038  0.1648
  633ERGO    C2 9448  12.786  19.037   8.616 -0.0821 -0.1222  0.0033
  634ERGO   ROH 9449  13.113  13.546   9.617 -0.0108  0.1594  0.0337
  634ERGO    R1 9450  13.018  13.475   9.360  0.1277 -0.0689  0.0426
  634ERGO    R2 9451  12.864  13.645   9.206 -0.2235 -0.3911  0.0199
  634ERGO    R3 9452  13.057  13.599   9.020 -0.1210 -0.0279  0.0278
  634ERGO    R4 9453  12.814  13.647   8.864 -0.1661 -0.3153  0.0116
  634ERGO    R5 9454  12.946  13.475   8.849  0.0905 -0.1175 -0.0449
  634ERGO    C1 9455  12.967  13.604   8.491 -0.0363  0.0698  0.0141
  634ERGO    C2 9456  12.855  13.608   8.180  0.2754 -0.0973 -0.0333
  635ERGO   ROH 9457  14.090   4.625   8.497 -0.0951  0.1053  0.1231
  635ERGO    R1 9458  13.966   4.875   8.451 -0.0633  0.1096  0.0645
  635ERGO    R2 9459  14.101   5.115   8.473 -0.0237  0.0924 -0.0313
  635ERGO    R3 9460  14.009   5.154   8.220 -0.0581  0.0328 -0.0294
  635ERGO    R4 9461  14.061   5.423   8.323  0.0920  0.0550 -0.1420
  635ERGO    R5 9462  13.875   5.351   8.236  0.0360  0.1051 -0.0761
  635ERGO    C1 9463  13.952   5.640   7.998  0.1271 -0.0227 -0.2048
  635ERGO    C2 9464  13.885   6.073   8.043 -0.0324 -0.1223 -0.0399
  636ERGO   ROH 9465  18.350   5.201   6.091 -0.1415  0.0313 -0.1034
  636ERGO    R1 9466  18.461   5.134   6.342 -0.1440  0.0208 -0.1052
  636ERGO    R2 9467  18.621   5.308   6.486 -0.1243  0.0051 -0.1086
  636ERGO    R3 9468  18.440   5.261   6.683 -0.1254  0.0237 -0.1051
  636ERGO    R4 9469  18.662   5.396   6.817 -0.1052 -0.0084 -0.1072
  636ERGO    R5 9470  18.573   5.206   6.874 -0.1283  0.0019 -0.1096
  636ERGO    C1 9471  18.516   5.402   7.196 -0.0950  0.0012 -0.1031
  636ERGO    C2 9472  18.648   5.412   7.573 -0.0652 -0.3529  0.0031
  637ERGO   ROH 9473  14.800   9.851   6.264  0.1380  0.2905  0.1871
  637ERGO    R1 9474  14.926   9.776   6.506  0.0621  0.1728  0.1923
  637ERGO    R2 9475  14.900   9.922   6.739  0.1701  0.1877  0.2026
  637ERGO    R3 9476  14.820   9.683   6.841 -0.0402  0.2469  0.1793
  637ERGO    R4 9477  14.884   9.847   7.076  0.2421  0.1125  0.1889
  637ERGO    R5 9478  14.963   9.649   7.031  0.0066  0.0413  0.1042
  637ERGO    C1 9479  14.800   9.580   7.368  0.0866  0.1242  0.1591
  637ERGO    C2 9480  14.646   9.660   7.661 -0.0145 -0.0218 -0.0786
  638ERGO   ROH 9481  15.664   8.908   6.451 -0.0246 -0.3274 -0.0826
  638ERGO    R1 9482  15.676   9.093   6.665  0.1080 -0.3166 -0.0958
  638ERGO    R2 9483  15.477   9.280   6.712  0.2643 -0.1170 -0.1465
  638ERGO    R3 9484  15.477   9.168   6.960  0.1174 -0.1096 -0.1453
  638ERGO    R4 9485  15.293   9.395   6.980  0.1208 -0.1257 -0.2422
  638ERGO    R5 9486  15.463   9.355   7.109  0.0345 -0.1241 -0.1503
  638ERGO    C1 9487  15.184   9.357   7.369 -0.1006 -0.1237 -0.2969
  638ERGO    C2 9488  15.063   9.381   7.722  0.1369 -0.3070  0.0346
  639ERGO   ROH 9489   5.717   6.118   5.632  0.0281  0.3114  0.0388
  639ERGO    R1 9490   5.565   6.118   5.870  0.0650  0.3234  0.0618
  639ERGO    R2 9491   5.516   5.888   6.015 -0.1112  0.2919 -0.0495
  639ERGO    R3 9492   5.621   6.034   6.220  0.0462  0.0975  0.0131
  639ERGO    R4 9493   5.473   5.818   6.351 -0.1791  0.1858 -0.0794
  639ERGO    R5 9494   5.450   6.032   6.388  0.0421  0.1987  0.0143
  639ERGO    C1 9495   5.546   5.914   6.738 -0.0707 -0.0586 -0.0381
  639ERGO    C2 9496   5.490   5.619   6.961  0.1438 -0.0333 -0.1833
  640ERGO   ROH 9497   6.846   7.580   5.947 -0.2244  0.1466  0.0089
  640ERGO    R1 9498   6.796   7.442   6.189 -0.0171  0.0030 -0.0262
  640ERGO    R2 9499   6.997   7.332   6.342  0.1622  0.3147 -0.0265
  640ERGO    R3 9500   6.885   7.482   6.540 -0.1245  0.0850 -0.0080
  640ERGO    R4 9501   6.965   7.233   6.672  0.4366  0.2490 -0.0178
  640ERGO    R5 9502   6.767   7.323   6.675  0.2355 -0.1709  0.0187
  640ERGO    C1 9503   6.842   7.315   7.049  0.3273 -0.0049  0.0046
  640ERGO    C2 9504   6.810   7.310   7.321  0.0921 -0.3533 -0.0735
  641ERGO   ROH 9505   1.241   0.502   9.603  0.0456  0.1394  0.0594
  641ERGO    R1 9506   1.205   0.269   9.446 -0.0434  0.1015  0.1366
  641ERGO    R2 9507   1.022   0.256   9.240  0.0408  0.1456  0.0606
  641ERGO    R3 9508   1.238   0.178   9.096  0.0531 -0.0630  0.1871
  641ERGO    R4 9509   1.009   0.114   8.924  0.0892  0.2454  0.0131
  641ERGO    R5 9510   1.167  -0.023   8.985 -0.1042  0.0450  0.0862
  641ERGO    C1 9511   1.205  -0.041   8.606  0.1288  0.1077  0.1043
  641ERGO    C2 9512   1.352   0.100   8.349 -0.1579  0.2599  0.0987
  642ERGO   ROH 9513   7.241   0.045   9.481 -0.0135 -0.2007 -0.0149
  642ERGO    R1 9514   7.110   0.028   9.231  0.0362 -0.0610 -0.0519
  642ERGO    R2 9515   7.077   0.246   9.065  0.1280  0.0199  0.0319
  642ERGO    R3 9516   7.197   0.085   8.882  0.1280  0.0658 -0.0084
  642ERGO    R4 9517   7.068   0.295   8.723 -0.0518 -0.0193  0.0304
  642ERGO    R5 9518   7.044   0.079   8.698  0.0487 -0.0321  0.0619
  642ERGO    C1 9519   7.175   0.172   8.352 -0.1565  0.0010 -0.0084
  642ERGO    C2 9520   7.185   0.047   8.049 -0.1398  0.0259 -0.1063
  643ERGO   ROH 9521  11.317  14.554   9.821  0.1299  0.0352  0.0924
  643ERGO    R1 9522  11.302  14.495   9.545 -0.1879 -0.0267  0.1173
  643ERGO    R2 9523  11.124  14.620   9.375 -0.0381  0.3208  0.1964
  643ERGO    R3 9524  11.349  14.676   9.233  0.0067 -0.2195  0.0347
  643ERGO    R4 9525  11.132  14.677   9.034 -0.1404  0.3728  0.2029
  643ERGO    R5 9526  11.317  14.562   9.024 -0.4382 -0.0974  0.0340
  643ERGO    C1 9527  11.347  14.763   8.702 -0.1578 -0.1040  0.0550
  643ERGO    C2 9528  11.330  14.943   8.370  0.0955 -0.1423  0.1026
  644ERGO   ROH 9529   7.470  15.598   5.345  0.2187  0.1652 -0.0786
  644ERGO    R1 9530   7.360  15.544   5.600  0.1221  0.1358 -0.1260
  644ERGO    R2 9531   7.516  15.496   5.823  0.0402 -0.0628 -0.1063
  644ERGO    R3 9532   7.368  15.698   5.930  0.1525 -0.0027 -0.0622
  644ERGO    R4 9533   7.443  15.531   6.159  0.0002 -0.1256 -0.1082
  644ERGO    R5 9534   7.241  15.593   6.104  0.0525  0.0241 -0.1216
  644ERGO    C1 9535   7.261  15.740   6.455  0.0824 -0.1058 -0.0678
  644ERGO    C2 9536   7.217  15.733   6.885 -0.1933  0.1134  0.1376
  645ERGO   ROH 9537   4.350   9.414   9.725  0.0889  0.0135 -0.0565
  645ERGO    R1 9538   4.222   9.529   9.500  0.1504  0.2462  0.0236
  645ERGO    R2 9539   4.356   9.685   9.315  0.3238  0.0021 -0.0650
  645ERGO    R3 9540   4.253   9.506   9.138 -0.1186  0.1783  0.0033
  645ERGO    R4 9541   4.336   9.734   8.973  0.4418 -0.0765 -0.0835
  645ERGO    R5 9542   4.139   9.641   8.977  0.2058  0.4021 -0.0455
  645ERGO    C1 9543   4.227   9.595   8.609  0.0951  0.0431 -0.0301
  645ERGO    C2 9544   4.307   9.496   8.315 -0.1366 -0.3282  0.2741
  646ERGO   ROH 9545  11.652  12.671   5.633  0.1571  0.0678 -0.0029
  646ERGO    R1 9546  11.662  12.742   5.907  0.0665 -0.0697  0.0343
  646ERGO    R2 9547  11.474  12.906   6.025  0.0304 -0.1462  0.0493
  646ERGO    R3 9548  11.450  12.699   6.199 -0.0194 -0.2234 -0.0439
  646ERGO    R4 9549  11.374  12.935   6.355 -0.2601 -0.2804 -0.0218
  646ERGO    R5 9550  11.525  12.788   6.409 -0.2240 -0.2419  0.0537
  646ERGO    C1 9551  11.293  12.757   6.710 -0.4761 -0.4309 -0.1508
  646ERGO    C2 9552  11.223  12.873   7.032 -0.1049  0.0262 -0.0221
  647ERGO   ROH 9553   7.949  15.994   9.877 -0.1919 -0.0558 -0.1354
  647ERGO    R1 9554   7.983  15.948   9.600 -0.0960 -0.0963 -0.1175
  647ERGO    R2 9555   7.923  15.706   9.481 -0.2590 -0.0478 -0.1387
  647ERGO    R3 9556   7.770  15.861   9.318 -0.0382  0.0888 -0.2201
  647ERGO    R4 9557   7.866  15.645   9.145 -0.3194 -0.1307 -0.1132
  647ERGO    R5 9558   7.885  15.859   9.108 -0.0237 -0.1685 -0.2132
  647ERGO    C1 9559   7.689  15.756   8.798 -0.1473 -0.0508 -0.1747
  647ERGO    C2 9560   7.594  15.785   8.478  0.0578  0.2761 -0.1221
  648ERGO   ROH 9561   2.811  10.211   5.647  0.1692  0.2301  0.1644
  648ERGO    R1 9562   2.745  10.352   5.883 -0.0985  0.1095  0.1651
  648ERGO    R2 9563   2.523  10.291   6.036 -0.0710 -0.2090  0.0825
  648ERGO    R3 9564   2.707  10.274   6.236 -0.1122  0.0056  0.1410
  648ERGO    R4 9565   2.464  10.372   6.367 -0.2614 -0.2413  0.0575
  648ERGO    R5 9566   2.661  10.463   6.375 -0.3590 -0.0278  0.1110
  648ERGO    C1 9567   2.601  10.403   6.747 -0.4110 -0.0587  0.0979
  648ERGO    C2 9568   2.633  10.579   7.129 -0.1519  0.1746 -0.2736
  649ERGO   ROH 9569  13.287   4.206   5.686 -0.1230  0.0024  0.0912
  649ERGO    R1 9570  13.154   4.270   5.928 -0.0817 -0.0810  0.1363
  649ERGO    R2 9571  13.115   4.086   6.130  0.1748 -0.0856  0.1840
  649ERGO    R3 9572  13.237   4.275   6.282  0.0648  0.0546  0.1013
  649ERGO    R4 9573  13.057   4.135   6.467  0.1873 -0.0051  0.1750
  649ERGO    R5 9574  13.065   4.351   6.432  0.0328 -0.0106  0.0975
  649ERGO    C1 9575  13.138   4.342   6.806  0.0913  0.1733  0.0920
  649ERGO    C2 9576  13.296   4.384   7.047 -0.1267  0.0500  0.1270
  650ERGO   ROH 9577   9.912  10.008  10.006 -0.1516 -0.0197  0.0706
  650ERGO    R1 9578   9.983   9.894   9.758  0.0124  0.0131  0.1043
  650ERGO    R2 9579   9.796   9.829   9.566  0.1245 -0.1663  0.0721
  650ERGO    R3 9580   9.953   9.984   9.406  0.0327 -0.0577  0.0805
  650ERGO    R4 9581   9.776   9.840   9.220  0.0401 -0.1002  0.0763
  650ERGO    R5 9582   9.995   9.847   9.214  0.0492 -0.0076  0.0363
  650ERGO    C1 9583   9.912   9.991   8.870 -0.0950  0.0401  0.0867
  650ERGO    C2 9584   9.812  10.075   8.427 -0.1904  0.0224 -0.4593
  651ERGO   ROH 9585   7.766  16.841   5.520  0.0909  0.1063 -0.0675
  651ERGO    R1 9586   7.622  16.845   5.764  0.0461  0.0726 -0.0910
  651ERGO    R2 9587   7.616  16.629   5.937 -0.1013 -0.0120 -0.1811
  651ERGO    R3 9588   7.700  16.814   6.118 -0.0282 -0.1314 -0.0947
  651ERGO    R4 9589   7.575  16.603   6.279 -0.4789  0.0583 -0.2183
  651ERGO    R5 9590   7.528  16.816   6.285 -0.1864  0.1149 -0.2675
  651ERGO    C1 9591   7.629  16.760   6.648 -0.6301 -0.0129 -0.1589
  651ERGO    C2 9592   7.677  16.544   6.868  0.0412  0.3149  0.3887
  652ERGO   ROH 9593   4.713   6.218   9.553  0.0821  0.1778  0.1384
  652ERGO    R1 9594   4.558   6.134   9.332  0.1126 -0.0271  0.1936
  652ERGO    R2 9595   4.392   6.305   9.193  0.0029 -0.1944  0.1171
  652ERGO    R3 9596   4.534   6.216   8.979  0.0364 -0.2249  0.1513
  652ERGO    R4 9597   4.265   6.273   8.873  0.0398 -0.2793  0.1105
  652ERGO    R5 9598   4.376   6.085   8.854  0.0643 -0.2712  0.1633
  652ERGO    C1 9599   4.324   6.170   8.486  0.0927 -0.3574  0.1388
  652ERGO    C2 9600   4.238   6.230   8.234 -0.3707 -0.3688 -0.0430
  653ERGO   ROH 9601  16.323  18.140   6.162 -0.0238  0.1966 -0.0601
  653ERGO    R1 9602  16.390  18.264   6.408  0.0673  0.3000 -0.1355
  653ERGO    R2 9603  16.433  18.536   6.430 -0.2362  0.3607 -0.2065
  653ERGO    R3 9604  16.243  18.517   6.625 -0.0314  0.1459 -0.0219
  653ERGO    R4 9605  16.368  18.779   6.668 -0.1644  0.2019 -0.0219
  653ERGO    R5 9606  16.344  18.621   6.816  0.0880  0.1172 -0.0721
  653ERGO    C1 9607  16.153  18.903   6.988  0.0696 -0.0925  0.2589
  653ERGO    C2 9608  16.002  18.969   7.320 -0.0289  0.0504 -0.1801
  654ERGO   ROH 9609  13.094  10.150   6.380  0.0288  0.0032 -0.2473
  654ERGO    R1 9610  13.024  10.288   6.617  0.0837 -0.1044 -0.1667
  654ERGO    R2 9611  12.795  10.229   6.761  0.0437 -0.0782 -0.2168
  654ERGO    R3 9612  12.971  10.204   6.967  0.0198 -0.2925 -0.2210
  654ERGO    R4 9613  12.708  10.160   7.088 -0.0534  0.2482 -0.1706
  654ERGO    R5 9614  12.859  10.303   7.153  0.2156  0.0106 -0.2597
  654ERGO    C1 9615  12.821  10.096   7.472 -0.1325  0.2370 -0.1476
  654ERGO    C2 9616  12.846  10.139   7.841 -0.0245  0.3640 -0.0336
  655ERGO   ROH 9617   2.835   3.661   9.547  0.2511  0.3085 -0.0449
  655ERGO    R1 9618   2.822   3.563   9.282  0.0841  0.2655 -0.0227
  655ERGO    R2 9619   2.583   3.498   9.158  0.0028  0.2651  0.1288
  655ERGO    R3 9620   2.672   3.670   8.968 -0.0950  0.2270  0.0489
  655ERGO    R4 9621   2.461   3.515   8.835  0.1127 -0.0754  0.0660
  655ERGO    R5 9622   2.666   3.543   8.765  0.1138  0.0826  0.1309
  655ERGO    C1 9623   2.474   3.686   8.468  0.0850 -0.3095 -0.0455
  655ERGO    C2 9624   2.288   3.820   8.197  0.0508 -0.1107  0.1802
  656ERGO   ROH 9625   0.417   1.325   6.217  0.0454  0.0621 -0.0277
  656ERGO    R1 9626   0.468   1.284   6.492  0.0731  0.1587 -0.0181
  656ERGO    R2 9627   0.521   1.492   6.667 -0.2788  0.2568 -0.0225
  656ERGO    R3 9628   0.316   1.383   6.807 -0.1310 -0.0615 -0.0440
  656ERGO    R4 9629   0.477   1.522   7.008 -0.2393  0.0009  0.0071
  656ERGO    R5 9630   0.415   1.314   7.014 -0.0061 -0.0783 -0.1065
  656ERGO    C1 9631   0.258   1.437   7.339 -0.0776 -0.4469  0.0041
  656ERGO    C2 9632   0.303   1.530   7.558 -0.1561 -0.3346  0.1627
  657ERGO   ROH 9633  16.041   5.378  10.166 -0.1795  0.0705  0.2353
  657ERGO    R1 9634  16.174   5.441   9.925 -0.1479  0.1420  0.2716
  657ERGO    R2 9635  16.217   5.255   9.725  0.0155  0.1627  0.2882
  657ERGO    R3 9636  16.092   5.439   9.570 -0.0471  0.0877  0.2481
  657ERGO    R4 9637  16.279   5.305   9.389  0.0500  0.1592  0.2935
  657ERGO    R5 9638  16.263   5.520   9.423 -0.0595  0.1561  0.2700
  657ERGO    C1 9639  16.198   5.509   9.048  0.0111  0.0869  0.2590
  657ERGO    C2 9640  16.174   5.690   8.766  0.1233 -0.0857 -0.3185
  658ERGO   ROH 9641   6.657   1.712   9.465  0.2451 -0.2567 -0.2543
  658ERGO    R1 9642   6.704   1.890   9.250  0.2604 -0.2426 -0.2397
  658ERGO    R2 9643   6.780   1.804   8.999  0.0062 -0.2496 -0.3185
  658ERGO    R3 9644   6.564   1.947   8.919  0.0800 -0.0271 -0.1290
  658ERGO    R4 9645   6.710   1.890   8.672 -0.1282 -0.0736 -0.2444
  658ERGO    R5 9646   6.646   2.086   8.742  0.0909 -0.0389 -0.1331
  658ERGO    C1 9647   6.466   2.075   8.406 -0.1372  0.2378 -0.0235
  658ERGO    C2 9648   6.274   2.225   8.169  0.0925 -0.0425  0.2464
  659ERGO   ROH 9649   7.562   2.022   9.652  0.2486 -0.0785  0.2240
  659ERGO    R1 9650   7.623   2.171   9.419  0.3059 -0.0733  0.2419
  659ERGO    R2 9651   7.827   2.100   9.246  0.1879 -0.2144  0.1562
  659ERGO    R3 9652   7.629   2.109   9.061  0.1322  0.0102  0.2238
  659ERGO    R4 9653   7.876   2.127   8.905  0.0956 -0.1545  0.1474
  659ERGO    R5 9654   7.707   2.264   8.896  0.2090 -0.0076  0.2447
  659ERGO    C1 9655   7.719   2.151   8.532 -0.0104  0.0913  0.2058
  659ERGO    C2 9656   7.838   2.156   8.266  0.1967  0.2374  0.0990
  660ERGO   ROH 9657  12.053  17.632   5.783  0.2236  0.0433  0.1582
  660ERGO    R1 9658  12.013  17.484   6.021  0.3585 -0.1063  0.0914
  660ERGO    R2 9659  12.222  17.398   6.180  0.4348  0.2550  0.2058
  660ERGO    R3 9660  12.084  17.528   6.375  0.0481 -0.0595  0.1488
  660ERGO    R4 9661  12.280  17.365   6.519  0.2045  0.2179  0.2419
  660ERGO    R5 9662  12.065  17.368   6.552  0.1722 -0.1631  0.0637
  660ERGO    C1 9663  12.185  17.468   6.900 -0.2927 -0.0989  0.2094
  660ERGO    C2 9664  12.296  17.590   7.266 -0.1249  0.0539  0.3216
  661ERGO   ROH 9665  12.820   7.893   6.001  0.1601  0.0575  0.1316
  661ERGO    R1 9666  12.811   8.092   6.202  0.1551 -0.0313  0.2198
  661ERGO    R2 9667  12.574   8.197   6.298  0.1566  0.2485 -0.0630
  661ERGO    R3 9668  12.676   8.122   6.539 -0.2803 -0.0201  0.0501
  661ERGO    R4 9669  12.498   8.347   6.600  0.1392  0.3735 -0.1288
  661ERGO    R5 9670  12.708   8.329   6.656  0.0443 -0.1013  0.1126
  661ERGO    C1 9671  12.550   8.365   7.002 -0.2811  0.1940 -0.0608
  661ERGO    C2 9672  12.524   8.382   7.377  0.1072  0.0335 -0.2235
  662ERGO   ROH 9673  14.475   9.359   9.747  0.0685  0.1705  0.0917
  662ERGO    R1 9674  14.338   9.373   9.500  0.0904  0.1594  0.0787
  662ERGO    R2 9675  14.460   9.455   9.266  0.1530  0.0004  0.0526
  662ERGO    R3 9676  14.366   9.218   9.172  0.0184  0.0184  0.1387
  662ERGO    R4 9677  14.402   9.384   8.933  0.0893 -0.0838  0.0816
  662ERGO    R5 9678  14.221   9.278   8.992  0.0381  0.0341  0.1298
  662ERGO    C1 9679  14.281   9.119   8.651 -0.0742 -0.1158  0.1791
  662ERGO    C2 9680  14.423   9.006   8.337  0.2849 -0.1563 -0.0262
  663ERGO   ROH 9681  10.477   4.006   5.868 -0.0743  0.1604  0.0906
  663ERGO    R1 9682  10.534   3.819   6.073 -0.1173  0.1581  0.1008
  663ERGO    R2 9683  10.791   3.739   6.133 -0.1496 -0.0488 -0.0282
  663ERGO    R3 9684  10.722   3.817   6.384  0.0608  0.0695 -0.0059
  663ERGO    R4 9685  10.816   3.541   6.416 -0.3812 -0.0926 -0.0367
  663ERGO    R5 9686  10.625   3.622   6.483 -0.2311  0.2254  0.0262
  663ERGO    C1 9687  10.766   3.499   6.816 -0.3185 -0.0070 -0.0206
  663ERGO    C2 9688  10.689   3.478   7.111 -0.1497  0.2128  0.2132
  664ERGO   ROH 9689  17.722  10.839   5.851  0.1404 -0.0528  0.0545
  664ERGO    R1 9690  17.841  10.960   6.077  0.0109 -0.0286  0.1085
  664ERGO    R2 9691  17.787  11.220   6.152  0.0008 -0.0134  0.0219
  664ERGO    R3 9692  17.726  11.105   6.391 -0.1677  0.0484  0.0116
  664ERGO    R4 9693  17.826  11.373   6.460  0.1363 -0.0515  0.0255
  664ERGO    R5 9694  17.898  11.182   6.539 -0.0902 -0.1453  0.0352
  664ERGO    C1 9695  17.791  11.354   6.863  0.0570 -0.0158  0.0179
  664ERGO    C2 9696  17.848  11.489   7.281  0.1982 -0.1123 -0.2112
  665ERGO   ROH 9697  16.928  15.099   9.816  0.1608 -0.3714  0.0564
  665ERGO    R1 9698  16.898  14.985   9.559 -0.1184 -0.2256  0.0193
  665ERGO    R2 9699  16.704  15.067   9.380 -0.0458  0.1726  0.1144
  665ERGO    R3 9700  16.917  15.100   9.214 -0.0394 -0.1187  0.0591
  665ERGO    R4 9701  16.682  15.123   9.040 -0.0554  0.2476  0.1270
  665ERGO    R5 9702  16.852  14.989   9.012 -0.2572 -0.0001  0.0627
  665ERGO    C1 9703  16.869  15.187   8.686 -0.0551  0.0179  0.0823
  665ERGO    C2 9704  16.860  15.222   8.444 -0.2374 -0.0293  0.2136
  666ERGO   ROH 9705   0.296   0.974   9.905 -0.1111  0.2081 -0.2098
  666ERGO    R1 9706   0.437   1.143   9.728 -0.0581  0.1997 -0.1754
  666ERGO    R2 9707   0.515   1.063   9.475  0.1279  0.1448 -0.1013
  666ERGO    R3 9708   0.381   1.287   9.398  0.0990  0.0755 -0.2579
  666ERGO    R4 9709   0.489   1.175   9.149  0.1476 -0.0644 -0.1769
  666ERGO    R5 9710   0.516   1.379   9.223  0.1050 -0.0120 -0.3007
  666ERGO    C1 9711   0.349   1.451   8.887  0.1320 -0.2512 -0.3678
  666ERGO    C2 9712   0.378   1.445   8.634 -0.1558 -0.1308 -0.3072
  667ERGO   ROH 9713   2.272   3.778   5.840  0.1132  0.0265 -0.0741
  667ERGO    R1 9714   2.182   3.695   6.095  0.0653 -0.0184 -0.1064
  667ERGO    R2 9715   2.319   3.513   6.249  0.0533 -0.0136 -0.0998
  667ERGO    R3 9716   2.306   3.710   6.437 -0.0208 -0.0440 -0.0718
  667ERGO    R4 9717   2.273   3.460   6.588  0.0969 -0.0942 -0.1059
  667ERGO    R5 9718   2.139   3.632   6.591  0.0171 -0.1468 -0.0736
  667ERGO    C1 9719   2.233   3.613   6.961  0.0527 -0.1697 -0.0831
  667ERGO    C2 9720   2.131   3.653   7.231 -0.0674  0.1099  0.4464
  668ERGO   ROH 9721  15.487   5.560   6.082  0.0228  0.1283  0.0521
  668ERGO    R1 9722  15.616   5.481   6.321 -0.0126 -0.1264 -0.0116
  668ERGO    R2 9723  15.583   5.618   6.558  0.2977 -0.1165  0.0187
  668ERGO    R3 9724  15.514   5.372   6.653 -0.0628 -0.0256  0.0092
  668ERGO    R4 9725  15.634   5.511   6.883  0.3065 -0.2484 -0.0237
  668ERGO    R5 9726  15.692   5.315   6.804 -0.0597 -0.3442 -0.0965
  668ERGO    C1 9727  15.599   5.219   7.162 -0.0270 -0.2399 -0.0574
  668ERGO    C2 9728  15.623   5.121   7.555 -0.4380 -0.2154 -0.1865
  669ERGO   ROH 9729  16.258   1.733   9.748 -0.0725 -0.3315 -0.0630
  669ERGO    R1 9730  16.384   1.832   9.515 -0.0389 -0.1283  0.0401
  669ERGO    R2 9731  16.454   1.670   9.302  0.1127  0.0346 -0.0355
  669ERGO    R3 9732  16.308   1.849   9.159  0.0771  0.0517  0.0219
  669ERGO    R4 9733  16.473   1.711   8.960 -0.2028 -0.1515 -0.0796
  669ERGO    R5 9734  16.458   1.927   8.990 -0.0406 -0.1248 -0.1702
  669ERGO    C1 9735  16.347   1.903   8.626 -0.4199 -0.2438 -0.0514
  669ERGO    C2 9736  16.405   2.157   8.349  0.3120 -0.0024 -0.0847
  670ERGO   ROH 9737  17.415  11.914   5.761 -0.0767 -0.0247  0.0317
  670ERGO    R1 9738  17.247  11.984   5.978 -0.0740 -0.0793  0.0515
  670ERGO    R2 9739  17.249  11.847   6.218  0.1536  0.0552  0.1275
  670ERGO    R3 9740  17.291  12.095   6.322 -0.0678  0.1590 -0.0238
  670ERGO    R4 9741  17.243  11.923   6.555  0.2631  0.2140  0.0945
  670ERGO    R5 9742  17.138  12.108   6.506  0.0203  0.0741  0.0585
  670ERGO    C1 9743  17.279  12.200   6.848  0.1186  0.4041 -0.0667
  670ERGO    C2 9744  17.347  12.135   7.162 -0.0497  0.0283 -0.1387
  671ERGO   ROH 9745   5.795  15.529   5.478  0.2883  0.0296 -0.0607
  671ERGO    R1 9746   5.874  15.416   5.726  0.2817  0.1999  0.0210
  671ERGO    R2 9747   5.940  15.571   5.945 -0.0650  0.3514  0.0289
  671ERGO    R3 9748   5.752  15.419   6.069  0.0537  0.1298 -0.0587
  671ERGO    R4 9749   5.958  15.463   6.273 -0.1018  0.3804  0.0401
  671ERGO    R5 9750   5.878  15.271   6.209  0.1591  0.2832  0.0073
  671ERGO    C1 9751   5.791  15.257   6.580 -0.0118  0.1892 -0.0355
  671ERGO    C2 9752   5.587  15.336   6.869  0.2482 -0.3029 -0.4032
  672ERGO   ROH 9753   3.114   2.443   5.946 -0.0039  0.1250 -0.0360
  672ERGO    R1 9754   3.213   2.421   6.211  0.0377  0.1142 -0.0512
  672ERGO    R2 9755   3.046   2.401   6.431  0.0664  0.2805 -0.0050
  672ERGO    R3 9756   3.192   2.177   6.480 -0.0803  0.1863  0.0028
  672ERGO    R4 9757   3.131   2.285   6.745 -0.0541  0.1885 -0.0066
  672ERGO    R5 9758   3.328   2.235   6.669 -0.0780  0.0754  0.0280
  672ERGO    C1 9759   3.317   2.007   6.975 -0.2621  0.0465 -0.0002
  672ERGO    C2 9760   3.301   1.745   7.253  0.1652 -0.0008  0.2558
  673ERGO   ROH 9761  10.015   6.978   9.776  0.0209 -0.0543  0.1333
  673ERGO    R1 9762  10.133   6.796   9.594  0.0188 -0.0700  0.1462
  673ERGO    R2 9763   9.984   6.644   9.418  0.0039 -0.2047  0.2677
  673ERGO    R3 9764  10.148   6.757   9.232 -0.1310 -0.1955  0.1539
  673ERGO    R4 9765  10.092   6.488   9.129 -0.1148 -0.2241  0.2341
  673ERGO    R5 9766  10.289   6.577   9.160 -0.1234 -0.1667  0.1060
  673ERGO    C1 9767  10.309   6.504   8.786 -0.3105 -0.2269  0.1076
  673ERGO    C2 9768  10.283   6.288   8.487 -0.1618 -0.1996  0.1746
  674ERGO   ROH 9769  16.159   9.762   6.124 -0.0625  0.0321  0.1619
  674ERGO    R1 9770  16.189   9.744   6.405  0.0583 -0.0324  0.1467
  674ERGO    R2 9771  16.433   9.782   6.531  0.0936  0.0636  0.0659
  674ERGO    R3 9772  16.293   9.966   6.674  0.0456 -0.0517  0.1648
  674ERGO    R4 9773  16.482   9.851   6.866  0.1962  0.0358  0.0555
  674ERGO    R5 9774  16.266   9.865   6.890  0.2039 -0.1024  0.1563
  674ERGO    C1 9775  16.379  10.063   7.195  0.2110 -0.0887  0.1422
  674ERGO    C2 9776  16.460  10.153   7.562  0.1913  0.0093  0.0246
  675loPI    C1 9777  18.606   5.781   5.379 -0.1226  0.1908  0.3107
  675loPI    C2 9778  18.934   5.872   5.168 -0.0129 -0.0222  0.3859
  675loPI    C3 9779  18.589   5.799   4.979  0.1119 -0.3240  0.2701
  675loPI   PO4 9780  18.603   5.996   5.575  0.0963  0.0721  0.0813
  675loPI   GL1 9781  18.712   5.937   5.966  0.1310  0.1910  0.1657
  675loPI   GL2 9782  18.344   6.136   6.050 -0.2204  0.0683  0.0376
  675loPI   C1A 9783  18.817   5.725   6.319  0.1290 -0.0403 -0.1089
  675loPI   C2A 9784  18.833   5.849   6.705 -0.1020  0.1836 -0.0652
  675loPI   C3A 9785  18.905   5.718   7.128 -0.0234 -0.0860  0.0207
  675loPI   C4A 9786  19.114   5.973   7.402 -0.0829 -0.0623  0.0198
  675loPI   C5A 9787  19.432   5.964   7.750  0.0627  0.1108  0.6454
  675loPI   C6A 9788  19.408   6.184   8.057 -0.3314  0.1094  0.1076
  675loPI   C1B 9789  18.517   6.124   6.473  0.1700  0.0014 -0.1817
  675loPI   C2B 9790  18.542   6.275   6.874 -0.2609 -0.0436  0.0936
  675loPI   C3B 9791  18.800   6.328   7.274  0.0189 -0.2533 -0.0444
  675loPI   C4B 9792  18.600   6.349   7.776  0.1015  0.3003 -0.1420
  676loPI    C1 9793  17.231  12.581   4.935 -0.2309 -0.0239  0.0962
  676loPI    C2 9794  16.909  12.440   4.744 -0.0004 -0.2135 -0.1591
  676loPI    C3 9795  17.091  12.771   4.611 -0.0339 -0.1594 -0.0706
  676loPI   PO4 9796  17.229  12.573   5.143 -0.4623 -0.0986  0.0630
  676loPI   GL1 9797  17.163  12.632   5.516 -0.0600  0.0518 -0.3433
  676loPI   GL2 9798  17.385  12.379   5.580  0.0896 -0.0723  0.1165
  676loPI   C1A 9799  17.120  12.467   5.993  0.1853  0.1330  0.0875
  676loPI   C2A 9800  17.257  12.574   6.422 -0.0508 -0.0370  0.2374
  676loPI   C3A 9801  17.170  12.655   6.862  0.1318  0.2280  0.1630
  676loPI   C4A 9802  17.308  12.633   7.343  0.1527  0.2219  0.0643
  676loPI   C5A 9803  17.399  12.766   7.773 -0.0179  0.1027 -0.1290
  676loPI   C6A 9804  17.761  12.578   7.951 -0.0316 -0.2949  0.0528
  676loPI   C1B 9805  17.587  12.712   5.831  0.2232  0.2490 -0.0689
  676loPI   C2B 9806  17.624  12.843   6.225  0.0704 -0.3920 -0.0756
  676loPI   C3B 9807  17.630  12.958   6.629  0.2659  0.1126  0.1906
  676loPI   C4B 9808  17.576  12.945   7.077  0.1168  0.0459  0.5104
  677loPI    C1 9809  15.404   3.216   5.147  0.1149 -0.2620 -0.1042
  677loPI    C2 9810  15.528   3.582   5.044  0.0357 -0.1727  0.1113
  677loPI    C3 9811  15.141   3.486   5.014  0.0385 -0.2012  0.1646
  677loPI   PO4 9812  15.616   3.195   5.343  0.0903  0.1450  0.3594
  677loPI   GL1 9813  15.703   3.330   5.686  0.0893 -0.1015  0.1436
  677loPI   GL2 9814  15.604   3.530   5.849  0.2167 -0.3479 -0.0972
  677loPI   C1A 9815  15.622   3.049   6.046  0.0784  0.2672  0.1836
  677loPI   C2A 9816  15.466   2.856   6.391 -0.1602 -0.5670  0.0796
  677loPI   C3A 9817  15.295   2.678   6.784  0.1294  0.2425  0.1022
  677loPI   C4A 9818  14.998   2.841   7.084  0.1364 -0.3778 -0.3393
  677loPI   C5A 9819  14.900   3.056   7.395 -0.0230 -0.1664 -0.1623
  677loPI   C6A 9820  14.836   3.128   7.899  0.4695  0.1813 -0.2787
  677loPI   C1B 9821  15.228   3.394   5.954  0.1079  0.0623  0.1233
  677loPI   C2B 9822  14.715   3.393   6.028  0.0910 -0.1169  0.2497
  677loPI   C3B 9823  14.420   3.228   6.325 -0.2565  0.0093  0.2468
  677loPI   C4B 9824  14.282   3.361   6.675  0.0280 -0.0554  0.1161
  678loPI    C1 9825   4.400   0.488   4.795  0.1780 -0.1037  0.0159
  678loPI    C2 9826   4.052   0.396   4.621  0.0354  0.2109  0.1266
  678loPI    C3 9827   4.371   0.485   4.396  0.0043  0.0697  0.0254
  678loPI   PO4 9828   4.398   0.520   5.052  0.0124 -0.2361  0.0388
  678loPI   GL1 9829   4.407   0.579   5.412  0.3915 -0.0051  0.2052
  678loPI   GL2 9830   4.338   0.850   5.613 -0.1035 -0.3861  0.0066
  678loPI   C1A 9831   4.524   0.356   5.759 -0.0353 -0.3361  0.0325
  678loPI   C2A 9832   4.595   0.399   6.230  0.0235  0.0847 -0.0642
  678loPI   C3A 9833   4.677   0.501   6.641  0.0963 -0.1904  0.2703
  678loPI   C4A 9834   4.811   0.295   7.044  0.4416  0.1070  0.1142
  678loPI   C5A 9835   4.894   0.053   7.346  0.1072 -0.1637 -0.0062
  678loPI   C6A 9836   5.151  -0.249   7.392 -0.0211 -0.3508 -0.2011
  678loPI   C1B 9837   4.621   0.847   5.996 -0.1813  0.0602  0.1021
  678loPI   C2B 9838   4.864   0.917   6.399  0.1733 -0.2038 -0.4264
  678loPI   C3B 9839   4.823   1.121   6.667  0.1148 -0.2095  0.1227
  678loPI   C4B 9840   5.024   1.284   6.964  0.1302 -0.1902 -0.0204
  679loPI    C1 9841   3.919   3.759   5.060 -0.1968  0.1519  0.0225
  679loPI    C2 9842   3.938   4.134   4.923  0.1659  0.1277 -0.0032
  679loPI    C3 9843   3.959   3.826   4.668  0.1643  0.0874  0.0453
  679loPI   PO4 9844   3.767   3.722   5.160 -0.1942 -0.2174 -0.1158
  679loPI   GL1 9845   3.691   3.738   5.633  0.0928  0.1194  0.4493
  679loPI   GL2 9846   3.767   3.443   5.596 -0.2265  0.5236  0.2878
  679loPI   C1A 9847   3.720   3.587   6.076  0.0277  0.4793  0.0581
  679loPI   C2A 9848   3.654   3.508   6.440  0.1079  0.1366 -0.2001
  679loPI   C3A 9849   3.680   3.441   6.909 -0.4635  0.0703 -0.3799
  679loPI   C4A 9850   3.902   3.263   7.296  0.1663  0.1840  0.0976
  679loPI   C5A 9851   3.999   3.475   7.752  0.1968  0.0232 -0.1065
  679loPI   C6A 9852   4.478   3.505   7.921  0.0200 -0.2348  0.0942
  679loPI   C1B 9853   3.615   3.144   5.807  0.3904  0.2988  0.0529
  679loPI   C2B 9854   3.985   2.860   5.992  0.2047  0.0928  0.2140
  679loPI   C3B 9855   3.967   2.814   6.455  0.3704 -0.0136 -0.1904
  679loPI   C4B 9856   3.964   2.993   6.912 -0.1472 -0.1341  0.1651
  680loPI    C1 9857  11.874   5.289   5.402  0.1064  0.0930  0.1344
  680loPI    C2 9858  11.547   5.117   5.250  0.1045  0.0410  0.1970
  680loPI    C3 9859  11.615   5.506   5.188  0.0480  0.0444  0.1555
  680loPI   PO4 9860  11.834   5.138   5.711  0.3361 -0.0277  0.3986
  680loPI   GL1 9861  11.709   4.996   6.059 -0.1875 -0.1176  0.0668
  680loPI   GL2 9862  11.602   5.274   6.194 -0.0531 -0.0422  0.1732
  680loPI   C1A 9863  11.672   4.807   6.375 -0.0024 -0.3426  0.0106
  680loPI   C2A 9864  11.498   4.724   6.617 -0.4206  0.2087  0.4083
  680loPI   C3A 9865  11.501   4.713   7.034 -0.1111 -0.3941 -0.0807
  680loPI   C4A 9866  11.687   4.859   7.413 -0.0445  0.3666  0.1899
  680loPI   C5A 9867  11.471   4.591   7.770 -0.1569 -0.0633 -0.1833
  680loPI   C6A 9868  11.333   4.633   8.184 -0.1127 -0.2147 -0.0991
  680loPI   C1B 9869  11.360   5.247   6.457  0.0751 -0.1641 -0.0274
  680loPI   C2B 9870  11.448   5.255   6.792 -0.2249  0.2671 -0.3170
  680loPI   C3B 9871  11.393   5.277   7.138 -0.0454 -0.2079  0.3162
  680loPI   C4B 9872  11.189   5.038   7.353 -0.3281 -0.3845  0.0762
  681loPI    C1 9873  17.892  12.604   4.881 -0.0954  0.0862 -0.0394
  681loPI    C2 9874  17.975  12.929   4.664 -0.1977  0.0063 -0.1996
  681loPI    C3 9875  17.600  12.860   4.784 -0.1142  0.1371  0.1475
  681loPI   PO4 9876  18.068  12.534   5.194 -0.2204  0.1797  0.0703
  681loPI   GL1 9877  18.014  12.636   5.620 -0.1094  0.0617  0.3950
  681loPI   GL2 9878  18.006  13.004   5.684  0.0437  0.2469  0.0960
  681loPI   C1A 9879  18.054  12.591   6.076 -0.2705  0.0629  0.0837
  681loPI   C2A 9880  18.155  12.654   6.456  0.4890 -0.1058  0.0830
  681loPI   C3A 9881  18.105  12.671   6.888  0.0351 -0.2910  0.0300
  681loPI   C4A 9882  18.271  12.771   7.306  0.1826  0.1873 -0.1041
  681loPI   C5A 9883  18.130  12.808   7.661  0.1018  0.0902 -0.0903
  681loPI   C6A 9884  17.972  13.121   7.975 -0.0284 -0.1262 -0.2069
  681loPI   C1B 9885  18.069  13.123   6.104 -0.4716  0.0363  0.2842
  681loPI   C2B 9886  17.864  13.451   6.344 -0.0367  0.0134 -0.3463
  681loPI   C3B 9887  17.834  13.631   6.732  0.0848  0.0964 -0.2679
  681loPI   C4B 9888  17.664  13.538   7.060  0.2593 -0.1665  0.0787
  682loPI    C1 9889   1.924  17.751   5.381  0.0678 -0.1200  0.1747
  682loPI    C2 9890   2.024  17.996   5.682  0.1001  0.0192  0.0522
  682loPI    C3 9891   1.868  18.146   5.345 -0.1285 -0.1555  0.0773
  682loPI   PO4 9892   1.806  17.580   5.466 -0.2087  0.5633  0.1661
  682loPI   GL1 9893   1.578  17.496   5.755 -0.0516 -0.1244 -0.1159
  682loPI   GL2 9894   1.812  17.471   6.043  0.1969  0.0754 -0.2636
  682loPI   C1A 9895   1.683  17.994   6.039  0.2188 -0.4045 -0.1281
  682loPI   C2A 9896   1.763  18.041   6.442 -0.0155 -0.1338 -0.4798
  682loPI   C3A 9897   1.554  17.962   6.771  0.2103 -0.0935 -0.0450
  682loPI   C4A 9898   1.662  17.836   7.239 -0.1417 -0.1151  0.3408
  682loPI   C5A 9899   2.002  17.720   7.532  0.1291  0.3407 -0.4765
  682loPI   C6A 9900   1.876  17.458   7.844  0.1750 -0.0923 -0.1374
  682loPI   C1B 9901   1.855  17.439   6.486 -0.1369  0.0702 -0.0723
  682loPI   C2B 9902   1.551  17.393   6.842  0.0557 -0.0375  0.0355
  682loPI   C3B 9903   1.265  17.634   7.021 -0.0317  0.1857 -0.0528
  682loPI   C4B 9904   1.206  18.043   7.094  0.0517  0.0206 -0.0996
  683loPI    C1 9905  10.013   7.073   5.604 -0.0023  0.0351 -0.0552
  683loPI    C2 9906  10.100   6.986   5.223 -0.2057  0.1444 -0.1282
  683loPI    C3 9907   9.926   7.335   5.314 -0.0780  0.1567  0.0760
  683loPI   PO4 9908  10.274   7.106   5.882 -0.1195 -0.0335  0.3741
  683loPI   GL1 9909  10.240   6.856   6.323  0.1733  0.0574  0.0267
  683loPI   GL2 9910   9.997   6.589   6.379  0.1542  0.0046  0.1230
  683loPI   C1A 9911  10.458   7.136   6.622  0.0803  0.0468  0.1471
  683loPI   C2A 9912  10.681   7.145   6.984  0.0672  0.0854  0.1375
  683loPI   C3A 9913  10.544   7.125   7.425  0.0542  0.0790 -0.3942
  683loPI   C4A 9914  10.476   7.096   7.798  0.1505 -0.0467 -0.0561
  683loPI   C5A 9915  10.603   6.962   8.067 -0.1241 -0.0684 -0.2265
  683loPI   C6A 9916  10.895   7.070   8.381 -0.0775  0.2791 -0.0715
  683loPI   C1B 9917   9.877   6.440   6.753  0.0298  0.1934 -0.0120
  683loPI   C2B 9918   9.952   6.614   7.237 -0.2569  0.2460 -0.1843
  683loPI   C3B 9919  10.051   6.961   7.371 -0.0917 -0.3605  0.1143
  683loPI   C4B 9920  10.221   7.355   7.087  0.0338  0.0697  0.2216
  684loPI    C1 9921  11.773  11.770   5.076  0.0174  0.2445 -0.2333
  684loPI    C2 9922  11.377  11.815   5.109  0.0157  0.2228 -0.2243
  684loPI    C3 9923  11.528  11.563   4.837  0.0193  0.1396 -0.1456
  684loPI   PO4 9924  11.834  11.935   5.300 -0.1536  0.0938 -0.0079
  684loPI   GL1 9925  11.870  11.811   5.785  0.1560 -0.0973 -0.0140
  684loPI   GL2 9926  11.600  11.897   5.827 -0.1596  0.1922 -0.1204
  684loPI   C1A 9927  12.022  11.855   6.186  0.0656 -0.0674  0.1124
  684loPI   C2A 9928  11.857  11.933   6.605  0.0561 -0.1874  0.4196
  684loPI   C3A 9929  11.845  12.145   6.945  0.3617 -0.0182  0.1582
  684loPI   C4A 9930  11.689  12.240   7.377 -0.1614 -0.0508  0.0155
  684loPI   C5A 9931  11.555  12.130   7.779  0.1328  0.0502 -0.0081
  684loPI   C6A 9932  11.420  11.881   8.067  0.0516 -0.0658 -0.2758
  684loPI   C1B 9933  11.461  12.193   6.130  0.0700  0.1406 -0.0284
  684loPI   C2B 9934  11.525  12.322   6.606 -0.0730 -0.2732  0.1428
  684loPI   C3B 9935  11.320  12.416   7.116  0.1369  0.1416 -0.1710
  684loPI   C4B 9936  11.171  12.406   7.538 -0.0568  0.0387 -0.1092
  685loPI    C1 9937  13.464  13.275   5.088  0.0244 -0.1318 -0.1472
  685loPI    C2 9938  13.770  13.460   5.268 -0.2461  0.0653  0.1208
  685loPI    C3 9939  13.652  13.576   4.904 -0.2296  0.2284  0.1669
  685loPI   PO4 9940  13.429  13.120   5.374  0.4123  0.0793  0.2843
  685loPI   GL1 9941  13.628  13.048   5.760 -0.0747 -0.0536 -0.2309
  685loPI   GL2 9942  13.861  12.825   5.724  0.1569  0.0574  0.1279
  685loPI   C1A 9943  13.531  13.043   6.134  0.0072  0.0810 -0.1491
  685loPI   C2A 9944  13.553  13.094   6.570  0.0412 -0.1149  0.1464
  685loPI   C3A 9945  13.462  13.298   6.993 -0.1073 -0.3225  0.1515
  685loPI   C4A 9946  13.581  13.436   7.354  0.0435 -0.1028 -0.2953
  685loPI   C5A 9947  13.822  13.627   7.669  0.1194 -0.1187 -0.2317
  685loPI   C6A 9948  13.929  14.047   7.747  0.0818  0.2358 -0.2046
  685loPI   C1B 9949  14.129  12.795   6.074 -0.0477  0.0877  0.3728
  685loPI   C2B 9950  14.163  12.553   6.532 -0.3461 -0.0707 -0.1642
  685loPI   C3B 9951  14.092  12.621   6.875  0.3536 -0.0168 -0.1597
  685loPI   C4B 9952  14.096  12.634   7.322  0.1041 -0.0513 -0.2151
  686loPI    C1 9953   6.040   2.841   5.025  0.2048  0.1153 -0.2364
  686loPI    C2 9954   6.118   2.655   4.680  0.0211  0.2018 -0.3260
  686loPI    C3 9955   5.743   2.766   4.767  0.0500  0.0935 -0.0543
  686loPI   PO4 9956   6.057   2.714   5.259 -0.0272  0.3951  0.0342
  686loPI   GL1 9957   6.044   2.639   5.661 -0.0025  0.0959 -0.0956
  686loPI   GL2 9958   6.375   2.523   5.757  0.2491 -0.0945  0.0297
  686loPI   C1A 9959   5.835   2.631   5.984 -0.0828  0.1691 -0.2281
  686loPI   C2A 9960   5.750   2.417   6.329 -0.2927  0.3065 -0.2541
  686loPI   C3A 9961   5.780   2.303   6.647  0.3292  0.0218  0.1357
  686loPI   C4A 9962   5.857   2.406   7.101  0.0981 -0.2667 -0.0280
  686loPI   C5A 9963   5.576   2.323   7.495  0.3232 -0.3371 -0.2076
  686loPI   C6A 9964   5.392   2.068   7.788 -0.0774 -0.0979  0.1586
  686loPI   C1B 9965   6.582   2.603   6.171  0.1543 -0.2324  0.1129
  686loPI   C2B 9966   6.710   2.607   6.633  0.0444  0.2597  0.1066
  686loPI   C3B 9967   6.735   2.305   6.979  0.1087  0.0515 -0.2553
  686loPI   C4B 9968   6.951   2.113   7.441  0.3248 -0.0081 -0.1342
  687loPI    C1 9969   1.255   9.476   4.858  0.0128 -0.1279  0.0905
  687loPI    C2 9970   0.957   9.346   4.625  0.0015  0.1416 -0.0485
  687loPI    C3 9971   1.323   9.397   4.472  0.0500  0.0931  0.0508
  687loPI   PO4 9972   1.235   9.386   5.061  0.3461 -0.0019  0.1320
  687loPI   GL1 9973   1.258   9.514   5.413 -0.0875  0.2575  0.0683
  687loPI   GL2 9974   1.540   9.221   5.489  0.3943  0.1251  0.3574
  687loPI   C1A 9975   1.272   9.493   5.904 -0.2048 -0.1352  0.0511
  687loPI   C2A 9976   1.393   9.634   6.346  0.1407 -0.1814 -0.0620
  687loPI   C3A 9977   1.564   9.890   6.624  0.0581 -0.0392 -0.1641
  687loPI   C4A 9978   1.884  10.141   6.538 -0.0969  0.0443  0.3874
  687loPI   C5A 9979   1.927  10.184   6.097 -0.1649 -0.2792 -0.0973
  687loPI   C6A 9980   2.156  10.208   5.673 -0.2112  0.0173  0.0769
  687loPI   C1B 9981   1.720   9.118   5.973  0.2244  0.1034  0.0469
  687loPI   C2B 9982   1.826   9.087   6.368 -0.2449  0.2592  0.1094
  687loPI   C3B 9983   1.920   9.164   6.850  0.0893  0.1532  0.1364
  687loPI   C4B 9984   1.924   9.057   7.361 -0.1287 -0.0069 -0.0607
  688loPI    C1 9985   6.979  10.632   5.237  0.2198 -0.0685  0.1570
  688loPI    C2 9986   6.979  10.665   4.838  0.2332  0.0732  0.1680
  688loPI    C3 9987   7.326  10.664   5.039  0.2425 -0.2932  0.1578
  688loPI   PO4 9988   6.676  10.807   5.294  0.1511 -0.1820 -0.1677
  688loPI   GL1 9989   6.644  11.039   5.629  0.1262  0.0765  0.1726
  688loPI   GL2 9990   6.478  11.212   5.785 -0.0358  0.2824  0.1218
  688loPI   C1A 9991   6.733  10.963   6.125  0.0706  0.0778  0.0641
  688loPI   C2A 9992   6.816  10.877   6.554  0.2348  0.2553  0.0778
  688loPI   C3A 9993   6.990  10.836   6.973 -0.0984  0.0794 -0.2236
  688loPI   C4A 9994   6.982  10.848   7.416  0.1178 -0.1716 -0.4346
  688loPI   C5A 9995   7.194  10.473   7.650  0.0214 -0.2008  0.0499
  688loPI   C6A 9996   7.385  10.004   7.677  0.0694  0.0080  0.0490
  688loPI   C1B 9997   6.905  11.409   5.978 -0.0253  0.1577 -0.0136
  688loPI   C2B 9998   6.994  11.435   6.400  0.0809  0.0128  0.2033
  688loPI   C3B 9999   7.043  11.332   6.945 -0.0135  0.0514  0.0412
  688loPI   C4B10000   6.976  11.469   7.382  0.1400 -0.0249  0.1152
  689loPI    C110001   0.736  12.026   5.341  0.1622 -0.0061  0.1224
  689loPI    C210002   0.689  12.359   5.558  0.0323 -0.2292  0.4446
  689loPI    C310003   0.369  12.162   5.422  0.1129 -0.0928  0.0454
  689loPI   PO410004   0.875  11.899   5.552  0.0400  0.0955 -0.1759
  689loPI   GL110005   1.134  11.977   5.868  0.1260 -0.6316 -0.0762
  689loPI   GL210006   1.143  12.369   5.782  0.2231  0.1104 -0.1131
  689loPI   C1A10007   1.092  11.801   6.322  0.1346 -0.1865  0.1331
  689loPI   C2A10008   1.176  11.751   6.747 -0.4858 -0.1320 -0.0097
  689loPI   C3A10009   0.921  11.774   7.200 -0.0549  0.1993  0.0777
  689loPI   C4A10010   0.574  11.921   7.520  0.0132 -0.0253 -0.1584
  689loPI   C5A10011   0.555  11.798   7.883 -0.0668 -0.0090 -0.1140
  689loPI   C6A10012   0.266  12.081   8.165  0.1528  0.0633  0.2265
  689loPI   C1B10013   1.291  12.537   6.159  0.2024  0.1322 -0.1395
  689loPI   C2B10014   1.464  12.508   6.545 -0.0519  0.1294 -0.0960
  689loPI   C3B10015   1.496  12.685   6.951  0.1327 -0.3052 -0.1267
  689loPI   C4B10016   1.473  12.849   7.417 -0.0007 -0.1408  0.2073
  690loPI    C110017   0.037   4.809   5.293  0.0676  0.0222 -0.1316
  690loPI    C210018  -0.297   5.010   5.205  0.0728  0.1333  0.0939
  690loPI    C310019  -0.272   4.619   5.124 -0.0616  0.1519 -0.0435
  690loPI   PO410020   0.084   4.989   5.565  0.2456  0.1372  0.1669
  690loPI   GL110021   0.111   5.011   6.002 -0.4286  0.1820  0.0763
  690loPI   GL210022  -0.052   4.697   6.042 -0.0034  0.2220 -0.0633
  690loPI   C1A10023   0.328   4.963   6.398  0.0900  0.2351 -0.0189
  690loPI   C2A10024   0.366   4.982   6.857  0.1982  0.2206 -0.1108
  690loPI   C3A10025   0.247   5.101   7.204  0.0861  0.1831 -0.3235
  690loPI   C4A10026   0.395   5.080   7.646 -0.3017 -0.0326  0.3359
  690loPI   C5A10027   0.630   5.247   7.997  0.0798  0.3580  0.0422
  690loPI   C6A10028   1.160   5.178   8.090  0.0674 -0.1434  0.0027
  690loPI   C1B10029  -0.014   4.647   6.367 -0.1168  0.4737  0.0409
  690loPI   C2B10030  -0.072   4.714   6.811  0.0443 -0.0462 -0.0877
  690loPI   C3B10031  -0.069   4.748   7.177  0.2114 -0.4710 -0.2773
  690loPI   C4B10032   0.087   4.713   7.606 -0.1280 -0.0981 -0.1047
  691loPI    C110033   3.096  18.691   5.109  0.0150 -0.1211 -0.1969
  691loPI    C210034   2.749  18.752   4.918  0.0181 -0.0292 -0.1736
  691loPI    C310035   3.050  19.013   4.876 -0.1213  0.2145  0.2790
  691loPI   PO410036   3.089  18.573   5.470 -0.1123 -0.2094  0.1504
  691loPI   GL110037   2.818  18.270   5.714  0.1652  0.2232 -0.0539
  691loPI   GL210038   3.210  18.128   5.676  0.1926 -0.0451 -0.2882
  691loPI   C1A10039   2.624  18.456   6.117  0.3039  0.1460 -0.0060
  691loPI   C2A10040   2.532  18.586   6.506  0.2367 -0.1709 -0.0581
  691loPI   C3A10041   2.484  18.470   6.925  0.3207  0.3815 -0.3424
  691loPI   C4A10042   2.762  18.488   7.287  0.0096  0.1649  0.2188
  691loPI   C5A10043   2.997  18.196   7.543  0.1435  0.1527 -0.3764
  691loPI   C6A10044   3.083  17.983   7.858 -0.1605  0.0369 -0.1321
  691loPI   C1B10045   3.165  18.311   6.094 -0.0709 -0.1144  0.3357
  691loPI   C2B10046   3.113  18.414   6.525  0.1679 -0.1218  0.1893
  691loPI   C3B10047   3.081  18.306   6.978 -0.0518  0.0685  0.4311
  691loPI   C4B10048   3.386  18.507   7.252 -0.1057 -0.2316  0.0767
  692loPI    C110049   4.363  10.073   5.229  0.0036  0.0179  0.0328
  692loPI    C210050   4.381   9.775   4.963  0.0194  0.2273 -0.2046
  692loPI    C310051   4.047   9.993   4.996 -0.0617  0.0616  0.1057
  692loPI   PO410052   4.595   9.967   5.481  0.1560  0.2674 -0.1724
  692loPI   GL110053   4.630  10.068   5.882 -0.1713 -0.0646  0.2500
  692loPI   GL210054   4.845  10.355   5.904  0.0646  0.3003 -0.1974
  692loPI   C1A10055   4.640   9.773   6.277 -0.2954 -0.2071 -0.0112
  692loPI   C2A10056   4.659   9.610   6.673 -0.0085  0.0287  0.2660
  692loPI   C3A10057   4.769   9.508   7.132  0.2358  0.2505  0.0107
  692loPI   C4A10058   4.814   9.703   7.492  0.1076  0.1186 -0.3762
  692loPI   C5A10059   4.599   9.849   7.881 -0.0256  0.0529  0.0859
  692loPI   C6A10060   4.801  10.018   8.348  0.0133  0.4719  0.4197
  692loPI   C1B10061   4.774  10.297   6.327 -0.2748 -0.2469  0.0395
  692loPI   C2B10062   5.010  10.350   6.797  0.2303  0.1541  0.1527
  692loPI   C3B10063   5.001  10.206   7.242  0.0809  0.1427  0.1109
  692loPI   C4B10064   4.979  10.203   7.713  0.0566 -0.0225 -0.1724
  693loPI    C110065   1.038   3.511   5.131  0.0322 -0.1598 -0.1754
  693loPI    C210066   0.817   3.814   4.992  0.2066  0.0526  0.0034
  693loPI    C310067   0.932   3.522   4.745 -0.5403 -0.2356 -0.0295
  693loPI   PO410068   1.231   3.589   5.291 -0.1066  0.2401 -0.1207
  693loPI   GL110069   1.397   3.739   5.653 -0.2603  0.0449 -0.3216
  693loPI   GL210070   1.042   3.619   5.903 -0.0420 -0.1498 -0.0027
  693loPI   C1A10071   1.632   3.702   6.003 -0.1356 -0.1347 -0.0160
  693loPI   C2A10072   1.673   3.733   6.396  0.2831 -0.1619 -0.0969
  693loPI   C3A10073   1.643   3.729   6.762  0.1165 -0.2432  0.0583
  693loPI   C4A10074   1.697   3.829   7.146 -0.1923 -0.2900  0.1281
  693loPI   C5A10075   1.731   4.031   7.524  0.1941 -0.3907  0.0584
  693loPI   C6A10076   1.877   3.965   7.847 -0.1170 -0.2247 -0.0889
  693loPI   C1B10077   0.793   3.508   6.241 -0.1538 -0.1762  0.0767
  693loPI   C2B10078   0.729   3.447   6.670  0.4815  0.1808 -0.3313
  693loPI   C3B10079   0.826   3.185   6.978 -0.0227  0.0925 -0.0758
  693loPI   C4B10080   0.673   3.014   7.417 -0.0688 -0.0147  0.2462
  694loPI    C110081  17.256  16.613   5.491 -0.1269  0.0936  0.0153
  694loPI    C210082  16.863  16.540   5.518 -0.1244  0.1094  0.0958
  694loPI    C310083  17.022  16.652   5.169 -0.1720 -0.0094  0.0352
  694loPI   PO410084  17.292  16.736   5.682  0.0637 -0.2296 -0.1360
  694loPI   GL110085  17.181  16.718   6.139  0.4984  0.1820  0.1847
  694loPI   GL210086  16.918  16.649   6.018 -0.2190 -0.1478 -0.0308
  694loPI   C1A10087  17.245  16.622   6.600 -0.1140 -0.0498 -0.0794
  694loPI   C2A10088  17.288  16.793   7.010 -0.0825 -0.0174  0.1847
  694loPI   C3A10089  17.403  16.610   7.339 -0.0183  0.1725 -0.1913
  694loPI   C4A10090  17.674  16.666   7.628 -0.1238  0.1982  0.4736
  694loPI   C5A10091  17.958  16.477   7.909  0.0850 -0.0479  0.1581
  694loPI   C6A10092  18.411  16.514   7.871 -0.0919  0.0896 -0.2677
  694loPI   C1B10093  16.801  16.635   6.538 -0.0779  0.1418 -0.2943
  694loPI   C2B10094  16.811  16.690   6.969  0.1604 -0.1201 -0.2221
  694loPI   C3B10095  16.813  16.434   7.295 -0.2036  0.3186  0.1646
  694loPI   C4B10096  16.791  16.290   7.808  0.1287 -0.2316  0.2595
  695loPI    C110097   2.036   9.476   4.695 -0.0839 -0.1059 -0.2401
  695loPI    C210098   2.093   9.857   4.803  0.2930 -0.1956 -0.1039
  695loPI    C310099   1.722   9.713   4.766  0.1480  0.0632  0.2770
  695loPI   PO410100   2.226   9.373   4.833 -0.2562 -0.0142 -0.2789
  695loPI   GL110101   2.180   9.420   5.175 -0.3870 -0.3426 -0.1030
  695loPI   GL210102   2.024   9.266   5.348 -0.3127 -0.0661 -0.1355
  695loPI   C1A10103   2.470   9.589   5.553 -0.2143  0.2365  0.1827
  695loPI   C2A10104   2.457   9.834   5.889 -0.3548 -0.0689 -0.0008
  695loPI   C3A10105   2.382   9.875   6.282  0.0781  0.2805  0.3735
  695loPI   C4A10106   2.377   9.968   6.678  0.2986 -0.1159 -0.2222
  695loPI   C5A10107   2.384   9.983   7.093 -0.2955  0.2188  0.0063
  695loPI   C6A10108   2.303   9.884   7.453  0.1798 -0.1442  0.1852
  695loPI   C1B10109   2.164   9.276   5.733  0.0623  0.1020 -0.2415
  695loPI   C2B10110   2.294   9.102   6.165  0.0440 -0.1871  0.0279
  695loPI   C3B10111   2.363   9.132   6.578  0.2878 -0.4045 -0.0895
  695loPI   C4B10112   2.388   9.182   7.112  0.2519 -0.0293  0.0709
  696loPI    C110113   8.400   3.421   4.992  0.0103 -0.0622 -0.0041
  696loPI    C210114   8.122   3.265   5.234 -0.0587  0.1396  0.0487
  696loPI    C310115   8.182   3.108   4.870 -0.2226  0.0779  0.0474
  696loPI   PO410116   8.228   3.720   4.970 -0.2252 -0.0099 -0.0275
  696loPI   GL110117   8.240   3.763   5.448  0.1057  0.2588 -0.0401
  696loPI   GL210118   8.517   3.701   5.414  0.1771  0.0288 -0.1093
  696loPI   C1A10119   8.218   4.012   5.713  0.0274  0.1364  0.3068
  696loPI   C2A10120   8.251   4.122   6.066 -0.0167 -0.0281  0.2362
  696loPI   C3A10121   8.277   4.157   6.480 -0.3335 -0.0331 -0.4080
  696loPI   C4A10122   8.102   4.268   6.890 -0.1766 -0.0513  0.0100
  696loPI   C5A10123   8.019   4.467   7.219 -0.1279  0.1343  0.0201
  696loPI   C6A10124   8.088   4.284   7.675  0.0492 -0.0891 -0.0837
  696loPI   C1B10125   8.412   3.554   5.833  0.0255 -0.2536  0.1514
  696loPI   C2B10126   8.555   3.766   6.181  0.1202  0.1002  0.2142
  696loPI   C3B10127   8.632   3.825   6.624 -0.0771 -0.0577 -0.0829
  696loPI   C4B10128   8.601   4.109   6.926  0.2010  0.2544  0.0995
  697loPI    C110129  14.913   6.207   5.448  0.0584  0.0010  0.2295
  697loPI    C210130  15.033   5.827   5.408  0.0971  0.0630 -0.3102
  697loPI    C310131  14.785   5.988   5.139 -0.2993  0.2844  0.1712
  697loPI   PO410132  14.832   6.218   5.748  0.4439 -0.1617 -0.0235
  697loPI   GL110133  14.878   6.120   6.101  0.3906 -0.1886  0.2731
  697loPI   GL210134  15.143   6.107   6.173 -0.1951 -0.1728 -0.0743
  697loPI   C1A10135  14.727   6.190   6.489 -0.1394 -0.2689  0.0637
  697loPI   C2A10136  14.695   6.178   6.907  0.1103  0.0581 -0.0084
  697loPI   C3A10137  14.672   6.174   7.361 -0.1486  0.0192 -0.1741
  697loPI   C4A10138  15.087   6.060   7.507  0.1501  0.0759 -0.2460
  697loPI   C5A10139  15.097   5.883   7.941  0.0824 -0.1091  0.2539
  697loPI   C6A10140  14.919   5.540   8.116 -0.1196  0.0028 -0.1877
  697loPI   C1B10141  15.248   6.174   6.622  0.0693 -0.2732 -0.1727
  697loPI   C2B10142  15.346   6.014   7.006  0.0623 -0.1434 -0.2382
  697loPI   C3B10143  15.448   5.741   7.329 -0.0575 -0.0079 -0.0908
  697loPI   C4B10144  15.221   5.493   7.604  0.1244  0.0516 -0.0990
  698loPI    C110145  12.175   1.269   5.313 -0.1461  0.0481  0.2525
  698loPI    C210146  12.443   1.551   5.405  0.1262 -0.1423  0.0591
  698loPI    C310147  12.166   1.622   5.125  0.0613  0.0048  0.1588
  698loPI   PO410148  12.377   1.059   5.295  0.0827 -0.0266  0.2483
  698loPI   GL110149  12.319   0.786   5.565 -0.3001  0.0914  0.2302
  698loPI   GL210150  12.195   0.934   5.786  0.1268 -0.0176  0.2836
  698loPI   C1A10151  12.681   0.680   5.733  0.0976 -0.1138 -0.1089
  698loPI   C2A10152  12.714   0.689   6.165 -0.0807  0.0557  0.0480
  698loPI   C3A10153  12.757   0.962   6.456 -0.2177 -0.0706 -0.1369
  698loPI   C4A10154  12.734   0.820   6.891  0.1593 -0.2601  0.0591
  698loPI   C5A10155  12.454   0.880   7.230  0.2864  0.4183  0.2414
  698loPI   C6A10156  12.369   1.109   7.580 -0.0653 -0.0334 -0.2608
  698loPI   C1B10157  12.257   0.846   6.206  0.2623 -0.0951 -0.2290
  698loPI   C2B10158  12.253   1.055   6.574 -0.0245 -0.1329 -0.3395
  698loPI   C3B10159  12.285   1.259   6.917  0.2302 -0.2997 -0.3340
  698loPI   C4B10160  11.934   1.436   7.010  0.0619  0.0286 -0.0477
  699loPI    C110161  18.684  13.733   4.761 -0.0653  0.1047  0.0753
  699loPI    C210162  18.792  13.976   4.462 -0.1177 -0.0239 -0.0491
  699loPI    C310163  18.687  13.598   4.384 -0.1576 -0.0502  0.1294
  699loPI   PO410164  18.823  13.706   4.932  0.1955 -0.3079 -0.1069
  699loPI   GL110165  18.858  13.752   5.408 -0.0580  0.1507  0.0449
  699loPI   GL210166  18.780  14.107   5.457 -0.0770 -0.0401  0.0593
  699loPI   C1A10167  18.954  13.635   5.855 -0.2938  0.4281 -0.0523
  699loPI   C2A10168  19.027  13.547   6.282  0.1387  0.1792 -0.0187
  699loPI   C3A10169  19.116  13.666   6.736 -0.0338 -0.0309  0.0693
  699loPI   C4A10170  19.003  13.552   7.158 -0.1142  0.2996 -0.0120
  699loPI   C5A10171  19.214  13.176   7.304 -0.2415 -0.0535  0.0725
  699loPI   C6A10172  19.170  12.895   7.707  0.1259  0.2026  0.0553
  699loPI   C1B10173  18.871  14.176   5.908 -0.0864  0.1677 -0.0751
  699loPI   C2B10174  19.088  14.028   6.309  0.0455 -0.0834 -0.0598
  699loPI   C3B10175  19.215  14.138   6.636  0.1245 -0.2252 -0.2088
  699loPI   C4B10176  19.183  14.098   7.101 -0.2958 -0.1313 -0.3028
  700loPI    C110177   2.439  11.077   4.945  0.1873  0.3502  0.0452
  700loPI    C210178   2.064  11.093   5.084  0.1863 -0.0434  0.0982
  700loPI    C310179   2.131  11.096   4.690  0.1176 -0.1170  0.0856
  700loPI   PO410180   2.537  11.188   5.181 -0.2208 -0.2547 -0.2676
  700loPI   GL110181   2.330  11.044   5.498  0.2173  0.1275 -0.0470
  700loPI   GL210182   2.479  11.389   5.609  0.0294 -0.2334 -0.2842
  700loPI   C1A10183   2.165  11.157   5.888  0.2421  0.1891 -0.1636
  700loPI   C2A10184   2.002  11.197   6.372 -0.0388  0.1914 -0.1175
  700loPI   C3A10185   1.796  11.101   6.724  0.2276 -0.1010  0.3817
  700loPI   C4A10186   1.785  10.978   7.084  0.0681 -0.1835  0.0977
  700loPI   C5A10187   1.884  10.659   7.411  0.1292 -0.3003  0.0875
  700loPI   C6A10188   1.871  10.314   7.683 -0.1323  0.0097 -0.0011
  700loPI   C1B10189   2.557  11.384   6.083 -0.1866  0.2355  0.1117
  700loPI   C2B10190   2.451  11.413   6.456  0.1132  0.3023 -0.0537
  700loPI   C3B10191   2.547  11.337   6.894  0.0864  0.0281  0.0542
  700loPI   C4B10192   2.562  11.308   7.409  0.2041  0.1804  0.1289
  701loPI    C110193   1.413  15.451   4.821 -0.0331 -0.0627  0.2094
  701loPI    C210194   1.370  15.068   4.930  0.0501 -0.0550  0.2708
  701loPI    C310195   1.711  15.191   4.761 -0.0668 -0.0601  0.0258
  701loPI   PO410196   1.408  15.614   5.106  0.1833 -0.2455 -0.0893
  701loPI   GL110197   1.323  15.604   5.493 -0.3779 -0.2428 -0.0775
  701loPI   GL210198   1.574  15.667   5.618  0.0336 -0.2621  0.3522
  701loPI   C1A10199   1.185  15.459   5.831  0.0959 -0.2425  0.0441
  701loPI   C2A10200   1.103  15.625   6.191  0.2663 -0.2011 -0.1914
  701loPI   C3A10201   1.252  15.606   6.550  0.0078 -0.1109 -0.3069
  701loPI   C4A10202   1.016  15.687   6.844  0.1770  0.0754  0.0954
  701loPI   C5A10203   0.892  15.719   7.258 -0.2512  0.1227  0.2211
  701loPI   C6A10204   0.773  15.888   7.551  0.1227  0.0867 -0.3318
  701loPI   C1B10205   1.775  15.530   5.976  0.0375 -0.1186 -0.0373
  701loPI   C2B10206   1.709  15.588   6.391 -0.2988  0.3211 -0.1448
  701loPI   C3B10207   1.763  15.858   6.698 -0.0590  0.1367 -0.1244
  701loPI   C4B10208   1.998  15.793   7.133 -0.0608 -0.0224  0.0814
  702loPI    C110209   6.023   2.286   5.021 -0.0530 -0.1931 -0.0989
  702loPI    C210210   6.297   2.273   5.312 -0.0387  0.2227 -0.0880
  702loPI    C310211   6.412   2.296   4.929 -0.0588  0.1193 -0.1005
  702loPI   PO410212   5.819   2.221   5.250 -0.0284 -0.2644 -0.1612
  702loPI   GL110213   5.943   2.119   5.672  0.5533 -0.0269 -0.0393
  702loPI   GL210214   6.177   2.000   5.757  0.1320 -0.1718  0.1184
  702loPI   C1A10215   5.732   2.116   5.943  0.0398 -0.2878 -0.3200
  702loPI   C2A10216   5.518   2.000   6.197 -0.3935 -0.1272 -0.4200
  702loPI   C3A10217   5.436   1.824   6.569  0.3000  0.0413 -0.3423
  702loPI   C4A10218   5.465   1.485   6.826 -0.4093  0.0172 -0.1417
  702loPI   C5A10219   5.655   1.375   7.226 -0.0692 -0.1191  0.4127
  702loPI   C6A10220   5.822   1.094   7.484 -0.4274 -0.2336 -0.1019
  702loPI   C1B10221   6.191   2.250   6.168 -0.1614 -0.2083  0.0562
  702loPI   C2B10222   6.287   2.375   6.528 -0.1939 -0.0498 -0.3132
  702loPI   C3B10223   6.359   2.680   7.015 -0.0391 -0.0477  0.0111
  702loPI   C4B10224   6.347   2.810   7.375  0.0262  0.1237  0.3772
  703loPI    C110225   4.766   6.801   5.016  0.0105 -0.0125 -0.0217
  703loPI    C210226   4.494   6.574   4.830  0.1021  0.0037 -0.1773
  703loPI    C310227   4.884   6.491   4.792  0.1302  0.1190 -0.1428
  703loPI   PO410228   4.665   6.823   5.266  0.0442 -0.1451  0.2303
  703loPI   GL110229   4.800   6.535   5.625 -0.1268 -0.0277  0.0160
  703loPI   GL210230   4.625   6.346   5.656  0.1891  0.2845  0.0408
  703loPI   C1A10231   4.930   6.630   6.067 -0.0029 -0.1461  0.1608
  703loPI   C2A10232   4.934   6.755   6.516  0.1850 -0.2071 -0.0486
  703loPI   C3A10233   4.708   6.627   6.928  0.0026 -0.2131 -0.0702
  703loPI   C4A10234   4.540   6.644   7.345  0.0635 -0.2839  0.0900
  703loPI   C5A10235   4.215   6.834   7.620 -0.0048 -0.2376  0.1070
  703loPI   C6A10236   3.833   6.766   7.535  0.1345 -0.0057 -0.2819
  703loPI   C1B10237   4.422   6.694   5.962  0.1005 -0.0836 -0.0956
  703loPI   C2B10238   4.463   6.604   6.376  0.0856  0.2892 -0.0473
  703loPI   C3B10239   4.198   6.585   6.727  0.0082 -0.2186  0.1378
  703loPI   C4B10240   4.077   6.566   7.187  0.1622 -0.0089  0.3008
  704loPI    C110241   6.158   0.566   4.635 -0.0005  0.1870 -0.1030
  704loPI    C210242   6.416   0.274   4.547  0.0937  0.2153  0.0752
  704loPI    C310243   6.336   0.557   4.277  0.1287  0.1182 -0.0379
  704loPI   PO410244   6.160   0.614   4.920 -0.0630  0.1864 -0.0352
  704loPI   GL110245   6.120   0.636   5.371  0.0177  0.1086  0.0024
  704loPI   GL210246   5.944   0.877   5.507 -0.0187  0.1950  0.0701
  704loPI   C1A10247   6.323   0.221   5.539  0.2455 -0.1825  0.3247
  704loPI   C2A10248   6.313   0.017   5.893 -0.1514  0.0145  0.0499
  704loPI   C3A10249   6.400  -0.064   6.262 -0.2634 -0.1652 -0.0542
  704loPI   C4A10250   6.307  -0.145   6.689 -0.2782  0.0405 -0.1990
  704loPI   C5A10251   6.071  -0.112   6.998  0.2376  0.0759  0.2034
  704loPI   C6A10252   6.141  -0.252   7.408  0.2495 -0.2403 -0.0047
  704loPI   C1B10253   5.959   0.997   5.998  0.0837 -0.2652  0.0547
  704loPI   C2B10254   6.188   0.777   6.367 -0.3034  0.1115 -0.1734
  704loPI   C3B10255   6.465   0.771   6.689 -0.3048 -0.0149  0.0040
  704loPI   C4B10256   6.555   0.596   7.084  0.1800  0.0905 -0.0678
  705loPI    C110257   6.413  14.663   5.097 -0.1060  0.1259  0.2328
  705loPI    C210258   6.272  14.939   4.843  0.1461  0.0295 -0.0170
  705loPI    C310259   6.297  14.556   4.730  0.1832 -0.0289  0.1835
  705loPI   PO410260   6.381  14.831   5.303  0.1542  0.1079 -0.0884
  705loPI   GL110261   6.160  14.906   5.734  0.2298  0.0127 -0.0276
  705loPI   GL210262   6.421  15.252   5.602 -0.0609  0.4082  0.3704
  705loPI   C1A10263   6.171  14.850   6.197  0.1332 -0.0267  0.0400
  705loPI   C2A10264   6.170  14.862   6.528  0.4042  0.4327 -0.1158
  705loPI   C3A10265   6.059  14.980   6.954 -0.1940 -0.0811  0.0310
  705loPI   C4A10266   5.805  15.068   7.198 -0.1847  0.3904 -0.2066
  705loPI   C5A10267   5.970  14.859   7.636  0.2087  0.1090 -0.0549
  705loPI   C6A10268   6.177  14.455   7.762 -0.0043  0.1682 -0.3547
  705loPI   C1B10269   6.401  15.283   6.050 -0.0097 -0.0020  0.0342
  705loPI   C2B10270   6.332  15.332   6.520 -0.2841  0.3532  0.1287
  705loPI   C3B10271   6.296  15.403   6.987  0.2715  0.0043  0.2375
  705loPI   C4B10272   6.197  15.323   7.437 -0.4959 -0.1893  0.1441
  706loPI    C110273   5.382   9.309   5.364  0.0855  0.0704  0.0850
  706loPI    C210274   5.545   9.197   5.017  0.2885  0.1223  0.1626
  706loPI    C310275   5.414   9.572   5.064  0.0532  0.0536  0.0667
  706loPI   PO410276   5.546   9.164   5.622 -0.1068 -0.1411  0.0830
  706loPI   GL110277   5.477   9.023   6.038 -0.0523  0.1601  0.1165
  706loPI   GL210278   5.832   9.066   6.087 -0.3471 -0.1487  0.1377
  706loPI   C1A10279   5.377   8.931   6.373  0.0216 -0.2543 -0.1734
  706loPI   C2A10280   5.417   8.686   6.773 -0.0124  0.1988 -0.3043
  706loPI   C3A10281   5.354   8.694   7.206 -0.0156  0.1546  0.1380
  706loPI   C4A10282   5.415   8.883   7.619 -0.1289  0.3637 -0.2239
  706loPI   C5A10283   5.720   8.923   7.930  0.0749  0.0695  0.0877
  706loPI   C6A10284   6.175   8.829   7.922  0.4497 -0.0146  0.0777
  706loPI   C1B10285   5.850   8.934   6.552 -0.0464 -0.0723  0.0189
  706loPI   C2B10286   5.784   8.935   6.929 -0.4471  0.4654 -0.1698
  706loPI   C3B10287   5.851   8.801   7.244 -0.0388 -0.1501 -0.1655
  706loPI   C4B10288   5.962   8.462   7.555 -0.0129  0.1217  0.1489
  707loPI    C110289   8.432  17.139   4.812  0.2435 -0.1853  0.1055
  707loPI    C210290   8.594  17.333   4.502  0.2957 -0.0165  0.2369
  707loPI    C310291   8.240  17.153   4.462  0.3310 -0.0485  0.0619
  707loPI   PO410292   8.451  17.188   5.120 -0.3496  0.0405  0.0950
  707loPI   GL110293   8.217  17.064   5.512  0.0413  0.0710  0.0277
  707loPI   GL210294   8.525  17.012   5.666 -0.0244  0.3799  0.1195
  707loPI   C1A10295   8.094  17.221   5.948 -0.2754 -0.0812  0.2238
  707loPI   C2A10296   8.021  17.152   6.384 -0.1061  0.2849 -0.0054
  707loPI   C3A10297   8.005  17.060   6.753 -0.0321  0.0923  0.2224
  707loPI   C4A10298   7.936  16.899   7.137  0.1071  0.1402  0.2043
  707loPI   C5A10299   8.236  16.701   7.362 -0.0610 -0.0580  0.1353
  707loPI   C6A10300   8.546  16.277   7.434  0.0028 -0.0603  0.0122
  707loPI   C1B10301   8.495  16.944   6.119  0.2807 -0.1299 -0.0656
  707loPI   C2B10302   8.518  16.861   6.487  0.1843  0.2988  0.1636
  707loPI   C3B10303   8.682  16.700   6.855 -0.0770 -0.0162  0.1410
  707loPI   C4B10304   8.875  16.877   7.180  0.2637  0.4578 -0.0226
  708loPI    C110305  18.435   7.218   5.349 -0.2098 -0.0518  0.2143
  708loPI    C210306  18.793   7.065   5.256 -0.3007 -0.2106  0.1190
  708loPI    C310307  18.572   7.242   4.973 -0.2478 -0.0068  0.2032
  708loPI   PO410308  18.399   6.942   5.634  0.0031  0.0124 -0.0605
  708loPI   GL110309  18.192   6.911   5.998 -0.1275  0.1230 -0.3092
  708loPI   GL210310  18.425   7.160   6.095  0.1528  0.0483 -0.1501
  708loPI   C1A10311  18.081   6.913   6.442  0.0697  0.0884  0.1331
  708loPI   C2A10312  18.074   6.719   6.955  0.0503  0.0567 -0.2583
  708loPI   C3A10313  17.883   6.853   7.342 -0.0128 -0.0898 -0.0627
  708loPI   C4A10314  17.730   6.480   7.588  0.0366  0.1175  0.0231
  708loPI   C5A10315  17.341   6.256   7.780  0.0389 -0.1892 -0.0966
  708loPI   C6A10316  17.126   6.394   8.165  0.1387 -0.3473 -0.3945
  708loPI   C1B10317  18.335   7.430   6.390  0.0899 -0.3757  0.0504
  708loPI   C2B10318  18.304   7.396   6.729  0.4218  0.2842 -0.1084
  708loPI   C3B10319  18.465   7.036   6.845 -0.0615 -0.0909  0.1311
  708loPI   C4B10320  18.780   6.722   6.945 -0.1318 -0.0858  0.1609
  709loPI    C110321  15.607   9.164   5.721 -0.0412  0.1947  0.0049
  709loPI    C210322  15.485   8.887   5.459 -0.2542  0.1984  0.0976
  709loPI    C310323  15.775   9.144   5.358  0.0157 -0.1189  0.0457
  709loPI   PO410324  15.362   9.336   5.840  0.0207 -0.0882 -0.1854
  709loPI   GL110325  15.260   9.203   6.286  0.0923  0.1071  0.0565
  709loPI   GL210326  15.263   9.601   6.241 -0.3236 -0.1766 -0.0156
  709loPI   C1A10327  15.012   9.167   6.710  0.0570  0.0921 -0.2888
  709loPI   C2A10328  15.075   8.939   7.199 -0.1415 -0.0131  0.1608
  709loPI   C3A10329  15.367   8.931   7.610 -0.2351 -0.3031  0.2370
  709loPI   C4A10330  15.306   8.972   7.965 -0.0869  0.2917  0.0465
  709loPI   C5A10331  15.342   9.364   8.080  0.1533  0.0699 -0.4083
  709loPI   C6A10332  15.363   9.519   8.505 -0.1107  0.0783 -0.1085
  709loPI   C1B10333  15.385   9.757   6.675 -0.0951  0.1230 -0.1347
  709loPI   C2B10334  15.400   9.902   6.984  0.0316 -0.3134 -0.1565
  709loPI   C3B10335  15.279   9.933   7.378  0.0850 -0.0569  0.1130
  709loPI   C4B10336  15.456   9.744   7.655 -0.0547  0.2982 -0.0090
  710loPI    C110337  11.827   8.696   5.443  0.4045  0.0575  0.1755
  710loPI    C210338  12.037   8.980   5.255  0.2499  0.1227  0.0989
  710loPI    C310339  11.653   8.919   5.160  0.1702  0.1534  0.3915
  710loPI   PO410340  11.850   8.711   5.669 -0.2216 -0.2233  0.0038
  710loPI   GL110341  11.739   8.890   6.012 -0.1978 -0.0403  0.3351
  710loPI   GL210342  11.525   8.905   6.144  0.1186  0.0474  0.1671
  710loPI   C1A10343  11.889   8.903   6.454 -0.0598  0.1327 -0.1335
  710loPI   C2A10344  11.847   8.914   6.859 -0.0813 -0.1256 -0.2928
  710loPI   C3A10345  11.619   8.869   7.194 -0.1316 -0.5297  0.2096
  710loPI   C4A10346  11.768   8.796   7.563  0.1528 -0.0276 -0.0530
  710loPI   C5A10347  11.661   8.638   8.006 -0.2117 -0.1408  0.1610
  710loPI   C6A10348  11.519   8.245   8.186  0.0839 -0.1014 -0.0633
  710loPI   C1B10349  11.359   8.851   6.679  0.2494 -0.2313  0.2624
  710loPI   C2B10350  11.138   8.887   7.071 -0.1031 -0.0982  0.1946
  710loPI   C3B10351  11.078   8.934   7.541 -0.1812  0.2284  0.0181
  710loPI   C4B10352  11.197   8.559   7.705 -0.1957 -0.0607  0.3204
  711loPI    C110353  15.573  12.538   5.369 -0.0730  0.0466  0.3034
  711loPI    C210354  15.225  12.343   5.342 -0.1221  0.1649  0.0498
  711loPI    C310355  15.552  12.194   5.166 -0.0498  0.0704  0.2603
  711loPI   PO410356  15.458  12.716   5.545  0.2439 -0.4554  0.0111
  711loPI   GL110357  15.394  13.031   5.876  0.2444 -0.0145  0.0984
  711loPI   GL210358  15.159  12.788   5.958 -0.1116 -0.0268  0.1026
  711loPI   C1A10359  15.634  12.926   6.324 -0.0623 -0.0165  0.1287
  711loPI   C2A10360  15.837  13.068   6.641 -0.2137 -0.0013  0.3599
  711loPI   C3A10361  15.883  13.397   6.890 -0.0887  0.0674 -0.0074
  711loPI   C4A10362  16.042  13.472   7.387 -0.1036  0.5342  0.0964
  711loPI   C5A10363  15.805  13.439   7.835 -0.1412 -0.6060 -0.1904
  711loPI   C6A10364  15.750  13.039   7.973 -0.1056 -0.2181 -0.0763
  711loPI   C1B10365  15.161  12.509   6.326 -0.1390 -0.0713 -0.2019
  711loPI   C2B10366  15.077  12.279   6.706 -0.2199  0.1366 -0.2444
  711loPI   C3B10367  15.004  12.241   7.132  0.0794  0.0988  0.0693
  711loPI   C4B10368  15.136  12.451   7.445 -0.0921  0.2414 -0.2108
  712loPI    C110369   7.354  17.568   4.945 -0.2216 -0.2457  0.0426
  712loPI    C210370   7.244  17.243   4.739 -0.1344 -0.2378 -0.0169
  712loPI    C310371   7.070  17.327   5.089 -0.1644 -0.3428 -0.0065
  712loPI   PO410372   7.617  17.503   4.958 -0.2854 -0.1181  0.2931
  712loPI   GL110373   7.642  17.317   5.330 -0.1272 -0.0454 -0.0838
  712loPI   GL210374   7.526  17.705   5.388  0.0348 -0.1237 -0.2400
  712loPI   C1A10375   7.676  17.310   5.685 -0.1502  0.0377 -0.2422
  712loPI   C2A10376   7.490  17.322   6.122 -0.2445 -0.0314  0.3318
  712loPI   C3A10377   7.544  17.287   6.529  0.0664 -0.0290 -0.4347
  712loPI   C4A10378   7.651  17.310   6.930  0.3502  0.1279  0.0090
  712loPI   C5A10379   7.599  17.529   7.283  0.0713 -0.0372 -0.2488
  712loPI   C6A10380   7.567  17.764   7.694  0.0818 -0.1204  0.2195
  712loPI   C1B10381   7.099  17.570   5.587  0.1298  0.0315 -0.1544
  712loPI   C2B10382   6.735  17.320   5.416 -0.2003 -0.0640 -0.2077
  712loPI   C3B10383   6.484  17.359   5.790 -0.2720 -0.2448 -0.2598
  712loPI   C4B10384   6.264  16.982   5.953 -0.0826 -0.3941  0.0887
  713loPI    C110385  14.082  12.422   5.112 -0.1321  0.0047  0.0714
  713loPI    C210386  13.970  12.039   5.137 -0.0473 -0.0226  0.0369
  713loPI    C310387  14.345  12.131   5.032 -0.0013  0.0655  0.2702
  713loPI   PO410388  14.056  12.508   5.299  0.0577  0.0891 -0.0249
  713loPI   GL110389  13.906  12.305   5.666  0.0424 -0.1475  0.1533
  713loPI   GL210390  13.747  12.321   5.951 -0.1180  0.0289 -0.0350
  713loPI   C1A10391  14.258  12.304   6.058  0.1548 -0.0406  0.0230
  713loPI   C2A10392  14.633  12.682   6.124  0.1125  0.1680  0.0208
  713loPI   C3A10393  14.742  12.741   6.569 -0.0218  0.1639 -0.0508
  713loPI   C4A10394  15.020  12.779   6.960  0.2007  0.0523  0.2379
  713loPI   C5A10395  15.367  12.890   7.272 -0.0458  0.0671 -0.0519
  713loPI   C6A10396  15.664  12.730   7.591 -0.0580  0.0074 -0.1698
  713loPI   C1B10397  13.737  12.563   6.303  0.0987 -0.1170  0.1373
  713loPI   C2B10398  13.613  12.428   6.686  0.2306  0.1574  0.1445
  713loPI   C3B10399  13.577  12.645   7.212  0.0750  0.1486  0.4095
  713loPI   C4B10400  13.342  12.589   7.594 -0.1769 -0.0721 -0.1960
  714loPI    C110401  14.726   5.482   5.271 -0.1515 -0.1597  0.0066
  714loPI    C210402  14.930   5.240   5.027 -0.0121  0.0178 -0.0553
  714loPI    C310403  14.563   5.362   4.926  0.0111  0.0218 -0.1358
  714loPI   PO410404  14.750   5.428   5.461 -0.1791 -0.2508  0.2174
  714loPI   GL110405  14.751   5.083   5.678 -0.2904  0.1587  0.1750
  714loPI   GL210406  14.763   4.850   5.713  0.2816  0.1411 -0.0849
  714loPI   C1A10407  14.728   5.261   6.164 -0.0055  0.0151 -0.1656
  714loPI   C2A10408  14.707   5.329   6.708  0.1159 -0.2662  0.0819
  714loPI   C3A10409  14.567   5.244   7.158  0.1105 -0.1037  0.0342
  714loPI   C4A10410  14.318   5.355   7.451 -0.1406 -0.1102  0.2080
  714loPI   C5A10411  14.036   5.253   7.726 -0.0075  0.0310  0.0107
  714loPI   C6A10412  13.717   5.149   7.731 -0.0926  0.0277 -0.2698
  714loPI   C1B10413  14.769   4.719   6.201 -0.1070  0.2585 -0.1186
  714loPI   C2B10414  14.628   4.865   6.569 -0.1217 -0.1720  0.1019
  714loPI   C3B10415  14.519   4.791   7.048 -0.2199 -0.0751 -0.6476
  714loPI   C4B10416  14.504   4.468   7.334 -0.0928 -0.1046 -0.1301
  715loPI    C110417   5.483  17.232   4.836 -0.0620  0.1642 -0.0185
  715loPI    C210418   5.322  16.909   4.662  0.1083 -0.0122  0.1461
  715loPI    C310419   5.132  17.261   4.646  0.0293 -0.0677 -0.2288
  715loPI   PO410420   5.529  17.165   5.077  0.0454  0.1564 -0.1002
  715loPI   GL110421   5.792  17.137   5.464 -0.0564  0.0464  0.0986
  715loPI   GL210422   5.826  17.517   5.412  0.3623  0.0834 -0.2568
  715loPI   C1A10423   5.736  17.142   5.910  0.0604  0.0401 -0.0067
  715loPI   C2A10424   5.777  16.934   6.292 -0.3132 -0.0166 -0.1327
  715loPI   C3A10425   5.898  16.866   6.749 -0.0592  0.2318  0.4050
  715loPI   C4A10426   5.628  16.744   7.115 -0.3003  0.1640 -0.0017
  715loPI   C5A10427   5.476  16.438   7.455 -0.2270  0.0473 -0.0025
  715loPI   C6A10428   5.490  15.973   7.595 -0.0018 -0.0775 -0.0802
  715loPI   C1B10429   6.006  17.530   5.792  0.3936 -0.1184 -0.0505
  715loPI   C2B10430   6.044  17.396   6.223  0.2263 -0.0415  0.0214
  715loPI   C3B10431   5.817  17.371   6.531 -0.3940  0.2534  0.1635
  715loPI   C4B10432   5.667  17.353   6.936  0.1250  0.1791 -0.0825
  716loPI    C110433   6.127  12.079   5.163  0.0539 -0.0579 -0.0939
  716loPI    C210434   6.204  11.943   4.795 -0.2215 -0.1873 -0.1065
  716loPI    C310435   6.152  11.686   5.097  0.0814 -0.0794  0.0415
  716loPI   PO410436   6.327  12.261   5.201  0.0997 -0.0411 -0.3223
  716loPI   GL110437   6.383  12.591   5.508  0.1996  0.4593 -0.0581
  716loPI   GL210438   6.417  12.305   5.663  0.0388 -0.0410 -0.0945
  716loPI   C1A10439   6.001  12.756   5.803  0.1458  0.2668  0.0907
  716loPI   C2A10440   5.919  12.881   6.160 -0.1166 -0.1727 -0.1565
  716loPI   C3A10441   6.105  12.922   6.610 -0.0153  0.5506  0.1091
  716loPI   C4A10442   6.010  12.822   6.998 -0.0313  0.0431 -0.3808
  716loPI   C5A10443   6.030  12.477   7.283 -0.2115  0.2814 -0.0901
  716loPI   C6A10444   6.207  12.152   7.567  0.3002  0.1714  0.2023
  716loPI   C1B10445   6.120  12.291   5.928  0.0797 -0.1631 -0.0816
  716loPI   C2B10446   6.037  12.417   6.359 -0.2627 -0.1754 -0.0062
  716loPI   C3B10447   6.004  12.361   6.808 -0.0169 -0.0341  0.0787
  716loPI   C4B10448   5.654  12.180   6.899 -0.5392  0.0933 -0.3022
  717loPI    C110449   1.921   7.567   5.148 -0.0783  0.1846 -0.0182
  717loPI    C210450   1.767   7.846   4.906 -0.2764 -0.0341 -0.1488
  717loPI    C310451   1.829   7.475   4.770  0.1869 -0.0032 -0.0398
  717loPI   PO410452   2.100   7.793   5.278  0.0279 -0.0472 -0.4287
  717loPI   GL110453   2.232   7.744   5.716  0.0933 -0.1018  0.1544
  717loPI   GL210454   2.237   7.450   5.855 -0.1663  0.0063  0.1765
  717loPI   C1A10455   2.255   8.096   6.007 -0.0198 -0.1681 -0.2832
  717loPI   C2A10456   2.331   8.267   6.474 -0.0045 -0.4678  0.0654
  717loPI   C3A10457   2.345   8.271   6.928 -0.2953 -0.1270  0.0963
  717loPI   C4A10458   2.485   8.264   7.397 -0.1718 -0.1151 -0.1553
  717loPI   C5A10459   2.669   8.097   7.675  0.0394 -0.3365 -0.0798
  717loPI   C6A10460   2.977   7.935   7.968 -0.2183 -0.1917  0.1477
  717loPI   C1B10461   2.292   7.428   6.211  0.1486  0.1661 -0.1661
  717loPI   C2B10462   2.389   7.327   6.680  0.0222 -0.0749  0.5874
  717loPI   C3B10463   2.346   7.354   7.014 -0.1500 -0.1937 -0.2643
  717loPI   C4B10464   2.423   7.224   7.489 -0.2219  0.0276 -0.0979
  718loPI    C110465   3.315  10.745   5.196 -0.0225 -0.1036  0.1802
  718loPI    C210466   3.381  10.723   4.802  0.1119 -0.1542  0.2048
  718loPI    C310467   3.006  10.734   4.943  0.0627 -0.2134  0.0800
  718loPI   PO410468   3.560  10.803   5.314  0.0468  0.1425 -0.1672
  718loPI   GL110469   3.439  11.074   5.691  0.0770 -0.0663 -0.0549
  718loPI   GL210470   3.632  11.438   5.773  0.0297  0.0048 -0.1227
  718loPI   C1A10471   3.300  11.051   6.072 -0.2525  0.0167 -0.2052
  718loPI   C2A10472   3.517  11.308   6.343 -0.0398  0.1716  0.1299
  718loPI   C3A10473   3.699  11.368   6.755  0.3441 -0.2349  0.0112
  718loPI   C4A10474   3.899  11.201   7.081  0.1513  0.1788 -0.1157
  718loPI   C5A10475   4.183  10.894   7.360 -0.4073 -0.0681 -0.0069
  718loPI   C6A10476   4.433  10.826   7.670 -0.0970 -0.1859 -0.0017
  718loPI   C1B10477   3.211  11.488   5.909 -0.1125 -0.0646  0.0501
  718loPI   C2B10478   2.997  11.361   6.340  0.0118 -0.2617 -0.0818
  718loPI   C3B10479   3.193  11.265   6.764  0.1932 -0.1742  0.2686
  718loPI   C4B10480   3.409  11.214   7.117  0.1523 -0.2543  0.0646
  719loPI    C110481   9.963  17.594   5.067  0.0357 -0.0555 -0.2006
  719loPI    C210482   9.806  17.867   4.820  0.2504  0.0046 -0.2732
  719loPI    C310483   9.874  17.495   4.690 -0.0742 -0.0958 -0.1642
  719loPI   PO410484  10.093  17.712   5.217  0.1448 -0.1731  0.1429
  719loPI   GL110485  10.125  17.570   5.552  0.1149 -0.1072  0.0309
  719loPI   GL210486   9.782  17.688   5.650 -0.1809  0.0786 -0.1513
  719loPI   C1A10487  10.254  17.801   5.907  0.2680 -0.2797  0.0791
  719loPI   C2A10488  10.206  17.865   6.362 -0.1135  0.0515 -0.1891
  719loPI   C3A10489  10.213  17.951   6.870 -0.1641  0.1135 -0.3068
  719loPI   C4A10490  10.453  18.117   7.149 -0.1174 -0.0318 -0.1488
  719loPI   C5A10491  10.663  18.590   7.163 -0.0496 -0.0797 -0.0531
  719loPI   C6A10492  10.654  19.070   7.149 -0.3980  0.2748  0.2540
  719loPI   C1B10493   9.876  17.572   6.092  0.1938  0.1034 -0.0201
  719loPI   C2B10494   9.707  17.874   6.428  0.1349  0.3196  0.1947
  719loPI   C3B10495   9.304  17.838   6.671 -0.2901 -0.1688  0.1445
  719loPI   C4B10496   8.957  18.075   6.526 -0.1568 -0.3759  0.1169
  720loPI    C110497  13.956   2.419   4.813 -0.2125 -0.1141  0.2801
  720loPI    C210498  14.022   2.104   4.576  0.0046  0.1326  0.0044
  720loPI    C310499  13.652   2.249   4.618 -0.0963 -0.1544  0.1319
  720loPI   PO410500  14.039   2.402   5.067  0.0779 -0.1196  0.2674
  720loPI   GL110501  14.394   2.367   5.440 -0.4682  0.1324 -0.1108
  720loPI   GL210502  14.378   2.146   5.478 -0.1885 -0.2234 -0.1052
  720loPI   C1A10503  14.277   2.544   5.894 -0.2888 -0.0061 -0.0995
  720loPI   C2A10504  14.281   2.750   6.268 -0.1429 -0.0563  0.0878
  720loPI   C3A10505  14.197   2.788   6.805 -0.1930  0.1655 -0.1479
  720loPI   C4A10506  13.919   2.913   7.205  0.1277 -0.0675 -0.3252
  720loPI   C5A10507  13.715   2.837   7.723  0.0078  0.2385 -0.0242
  720loPI   C6A10508  13.619   2.620   8.185 -0.1120  0.2786  0.0113
  720loPI   C1B10509  14.562   2.150   5.884  0.0835  0.1749  0.0849
  720loPI   C2B10510  14.576   2.272   6.402 -0.2400 -0.0821  0.2109
  720loPI   C3B10511  14.493   2.418   6.821 -0.0299 -0.0670  0.1442
  720loPI   C4B10512  14.257   2.468   7.241  0.0575  0.0963  0.0943
  721loPI    C110513   0.279   5.512   5.548 -0.1295  0.1483  0.0733
  721loPI    C210514   0.488   5.250   5.330  0.1611  0.2688  0.2010
  721loPI    C310515   0.136   5.387   5.196  0.0995 -0.0340  0.0429
  721loPI   PO410516   0.264   5.433   5.766 -0.0148 -0.0516 -0.1539
  721loPI   GL110517   0.483   5.418   6.165  0.1058 -0.0118  0.0413
  721loPI   GL210518   0.592   5.712   6.037  0.1999 -0.1033 -0.3999
  721loPI   C1A10519   0.487   5.407   6.635  0.1690 -0.1513  0.1069
  721loPI   C2A10520   0.622   5.415   7.038  0.0905 -0.0759 -0.0476
  721loPI   C3A10521   0.606   5.477   7.430  0.0978 -0.1636  0.0965
  721loPI   C4A10522   0.363   5.599   7.762  0.0557  0.1037  0.2489
  721loPI   C5A10523   0.167   5.524   8.172  0.0749  0.0549  0.3329
  721loPI   C6A10524   0.041   5.375   8.524  0.3055 -0.0157  0.2680
  721loPI   C1B10525   0.620   5.807   6.429  0.2377 -0.3688  0.1993
  721loPI   C2B10526   0.588   5.943   6.815  0.0503 -0.0821  0.0613
  721loPI   C3B10527   0.854   5.872   7.164 -0.1099 -0.1078 -0.0359
  721loPI   C4B10528   1.133   6.000   7.498  0.1109  0.0278 -0.1678
  722loPI    C110529  15.662   5.655   5.378  0.3499  0.0313 -0.1250
  722loPI    C210530  15.792   5.277   5.371  0.1130 -0.0556  0.0175
  722loPI    C310531  15.740   5.477   5.029  0.0466 -0.2202 -0.0698
  722loPI   PO410532  15.415   5.619   5.583 -0.0217 -0.2642 -0.0654
  722loPI   GL110533  15.096   5.411   5.863  0.0570  0.1036  0.1108
  722loPI   GL210534  14.942   5.665   5.903  0.3646  0.1635 -0.1912
  722loPI   C1A10535  15.166   5.135   6.109  0.4499  0.1225  0.0106
  722loPI   C2A10536  15.098   5.025   6.499 -0.1244  0.1764  0.0444
  722loPI   C3A10537  15.202   5.158   6.968  0.1534  0.1510 -0.0298
  722loPI   C4A10538  14.991   5.184   7.295 -0.1616  0.2561 -0.3432
  722loPI   C5A10539  15.190   4.954   7.698  0.0590 -0.1224 -0.1596
  722loPI   C6A10540  15.244   4.613   8.073  0.1764 -0.0039 -0.4486
  722loPI   C1B10541  15.103   5.589   6.364  0.0592  0.0002 -0.0878
  722loPI   C2B10542  14.994   5.766   6.737  0.1089  0.1751  0.1723
  722loPI   C3B10543  14.975   5.622   7.105  0.0495  0.2328 -0.2094
  722loPI   C4B10544  14.731   5.681   7.456  0.1344  0.1932 -0.3345
  723loPI    C110545   7.814   8.747   5.121  0.1089  0.0833  0.2445
  723loPI    C210546   7.932   9.128   5.096  0.0672  0.0705 -0.2465
  723loPI    C310547   8.125   8.845   4.890 -0.0157 -0.1485 -0.0280
  723loPI   PO410548   7.634   8.754   5.367 -0.1281  0.0573  0.2076
  723loPI   GL110549   7.476   8.606   5.662  0.1181 -0.1591  0.1935
  723loPI   GL210550   7.355   8.349   5.844  0.1209  0.0224  0.2787
  723loPI   C1A10551   7.183   8.844   5.956 -0.0563  0.2372 -0.2701
  723loPI   C2A10552   7.284   9.072   6.133 -0.1373 -0.4307  0.2601
  723loPI   C3A10553   7.379   9.067   6.482 -0.4108  0.0098  0.1882
  723loPI   C4A10554   7.576   8.871   6.804 -0.0364 -0.1813 -0.0186
  723loPI   C5A10555   7.636   9.018   7.187 -0.1330  0.1994  0.4431
  723loPI   C6A10556   7.487   9.090   7.537  0.1521 -0.1153  0.3555
  723loPI   C1B10557   7.143   8.388   6.224  0.0026 -0.1131 -0.1439
  723loPI   C2B10558   6.975   8.435   6.580  0.3389  0.0340 -0.1744
  723loPI   C3B10559   6.780   8.517   6.993 -0.3698 -0.1226  0.1979
  723loPI   C4B10560   6.807   8.376   7.401  0.1379  0.2191  0.0889
  724loPI    C110561   2.097   7.216   5.415 -0.0891  0.1394  0.0266
  724loPI    C210562   1.990   7.091   5.050 -0.1362  0.0244  0.0791
  724loPI    C310563   2.377   7.100   5.153 -0.1110  0.2033 -0.0255
  724loPI   PO410564   1.919   7.079   5.590 -0.0315  0.1753  0.4472
  724loPI   GL110565   2.027   6.927   5.923  0.0002 -0.0103  0.0981
  724loPI   GL210566   1.803   6.859   6.030 -0.0374  0.2493 -0.2704
  724loPI   C1A10567   2.222   6.549   6.245  0.1304  0.1187 -0.4782
  724loPI   C2A10568   2.457   6.146   6.468 -0.1046 -0.1247  0.1055
  724loPI   C3A10569   2.433   6.180   6.928 -0.2865  0.1260 -0.2673
  724loPI   C4A10570   2.670   6.322   7.323  0.1343  0.5378 -0.1184
  724loPI   C5A10571   3.037   6.405   7.506  0.2441  0.2099 -0.0502
  724loPI   C6A10572   3.420   6.379   7.727  0.0809 -0.1484 -0.0011
  724loPI   C1B10573   1.995   7.038   6.395  0.0700  0.1691  0.0834
  724loPI   C2B10574   1.997   7.007   6.869  0.5341 -0.1059 -0.3011
  724loPI   C3B10575   2.309   6.693   7.165  0.1990 -0.1395  0.1784
  724loPI   C4B10576   2.367   6.593   7.649  0.1371 -0.0056  0.1402
  725loPI    C110577   7.132   3.862   4.736  0.0683 -0.0871  0.0547
  725loPI    C210578   7.385   3.992   4.455 -0.0000  0.2259  0.1343
  725loPI    C310579   6.990   4.019   4.397 -0.0183 -0.1350  0.0684
  725loPI   PO410580   7.286   3.884   4.987  0.2864 -0.1000  0.1915
  725loPI   GL110581   7.413   3.963   5.436  0.0040  0.0872  0.3862
  725loPI   GL210582   7.170   4.226   5.375 -0.0072 -0.1903 -0.1348
  725loPI   C1A10583   7.703   3.701   5.649 -0.3746  0.0405 -0.1471
  725loPI   C2A10584   7.950   3.717   5.991  0.0003 -0.1058 -0.1960
  725loPI   C3A10585   8.065   3.648   6.409 -0.0312 -0.2234 -0.3801
  725loPI   C4A10586   8.226   3.725   6.853 -0.0665 -0.4024 -0.3818
  725loPI   C5A10587   8.199   3.622   7.262  0.1400 -0.1674 -0.1488
  725loPI   C6A10588   8.015   3.424   7.660 -0.2319  0.1125  0.1753
  725loPI   C1B10589   7.087   4.348   5.845  0.0682  0.1879 -0.1852
  725loPI   C2B10590   6.946   4.181   6.230  0.0297  0.0873  0.0980
  725loPI   C3B10591   6.771   3.964   6.617  0.1314 -0.1248 -0.3327
  725loPI   C4B10592   6.747   3.601   6.885  0.0753 -0.4586 -0.2357
  726loPI    C110593   3.610   4.264   5.261 -0.1573 -0.2498  0.0914
  726loPI    C210594   3.529   4.537   4.981  0.1302 -0.1224  0.1285
  726loPI    C310595   3.438   4.153   4.918  0.0699 -0.0748 -0.0826
  726loPI   PO410596   3.673   4.303   5.478 -0.4448  0.1956 -0.0286
  726loPI   GL110597   3.924   4.164   5.788  0.1169 -0.0233 -0.0580
  726loPI   GL210598   3.801   4.159   6.044  0.0667 -0.1182  0.1026
  726loPI   C1A10599   4.276   4.275   6.063  0.0725 -0.1971  0.0682
  726loPI   C2A10600   4.446   4.379   6.436 -0.3722 -0.1162 -0.1530
  726loPI   C3A10601   4.743   4.450   6.803 -0.2005  0.0278  0.2272
  726loPI   C4A10602   4.875   4.372   7.250  0.0171 -0.3597  0.0396
  726loPI   C5A10603   4.817   4.211   7.612  0.2074  0.2460 -0.2040
  726loPI   C6A10604   4.775   3.991   8.048  0.1135 -0.0026 -0.2030
  726loPI   C1B10605   3.955   4.298   6.448  0.2089 -0.0420 -0.4308
  726loPI   C2B10606   3.818   4.396   6.882  0.0198 -0.1950 -0.0723
  726loPI   C3B10607   3.443   4.442   7.072  0.0811  0.1366 -0.0243
  726loPI   C4B10608   3.265   4.182   7.473 -0.1142  0.0683  0.0567
  727loPI    C110609  18.692   8.499   5.394 -0.1764 -0.0938  0.0104
  727loPI    C210610  18.468   8.223   5.579 -0.1296 -0.1322  0.0101
  727loPI    C310611  18.604   8.155   5.209  0.0806 -0.2101  0.1006
  727loPI   PO410612  18.892   8.519   5.592 -0.2641 -0.1734  0.0837
  727loPI   GL110613  18.966   8.311   5.996 -0.0351  0.3081 -0.1884
  727loPI   GL210614  19.127   8.682   6.006  0.5954 -0.2525 -0.0265
  727loPI   C1A10615  18.736   8.011   6.181  0.0004 -0.0567  0.0839
  727loPI   C2A10616  18.596   7.808   6.619 -0.0337  0.1202  0.2030
  727loPI   C3A10617  18.467   7.664   7.084  0.1681  0.0072 -0.0416
  727loPI   C4A10618  18.171   7.354   7.267 -0.0773 -0.1000  0.2054
  727loPI   C5A10619  18.097   7.239   7.725  0.0040 -0.0301 -0.2819
  727loPI   C6A10620  17.831   7.281   8.098  0.0526  0.2177 -0.2791
  727loPI   C1B10621  19.226   8.561   6.446 -0.2713 -0.2169 -0.0467
  727loPI   C2B10622  19.138   8.117   6.453 -0.3897 -0.3858 -0.1157
  727loPI   C3B10623  19.100   7.690   6.556  0.0859  0.1099  0.2692
  727loPI   C4B10624  18.838   7.364   6.492 -0.0149  0.0326  0.0857
  728loPI    C110625  13.050   7.199   5.141 -0.0002  0.0915 -0.1335
  728loPI    C210626  12.773   7.441   5.299 -0.2788  0.0080 -0.4801
  728loPI    C310627  12.914   7.511   4.931 -0.1331 -0.1804 -0.4619
  728loPI   PO410628  13.112   7.127   5.433 -0.3579  0.2849  0.1364
  728loPI   GL110629  13.226   7.266   5.845  0.1513 -0.0386  0.0787
  728loPI   GL210630  12.978   6.978   5.946  0.2231 -0.0231  0.2382
  728loPI   C1A10631  13.264   7.211   6.323  0.0499 -0.2559  0.0328
  728loPI   C2A10632  13.138   7.377   6.751 -0.0431  0.2224 -0.0922
  728loPI   C3A10633  13.104   7.233   7.078  0.1363  0.0466 -0.0100
  728loPI   C4A10634  13.272   7.288   7.402 -0.2073 -0.0897 -0.1386
  728loPI   C5A10635  13.232   6.952   7.780  0.0247  0.2643  0.0930
  728loPI   C6A10636  13.024   6.712   8.034 -0.3514 -0.1676  0.0211
  728loPI   C1B10637  12.843   7.045   6.394 -0.2615  0.0625 -0.2889
  728loPI   C2B10638  12.798   6.964   6.806 -0.3582  0.0634 -0.0930
  728loPI   C3B10639  12.624   6.510   6.904  0.0257 -0.0694 -0.0460
  728loPI   C4B10640  12.912   6.242   7.071 -0.0203 -0.0815 -0.3181
  729loPI    C110641   0.972  14.837   4.654  0.1790  0.2106 -0.2511
  729loPI    C210642   0.863  15.212   4.742 -0.2675  0.0677 -0.1720
  729loPI    C310643   0.898  15.099   4.360 -0.2757  0.1497 -0.1973
  729loPI   PO410644   0.854  14.618   4.834 -0.1152 -0.1599  0.0349
  729loPI   GL110645   0.813  14.592   5.286 -0.0293 -0.0812 -0.0632
  729loPI   GL210646   1.130  14.746   5.206  0.2800  0.0853  0.0850
  729loPI   C1A10647   0.952  14.529   5.745 -0.1880 -0.0666  0.2955
  729loPI   C2A10648   1.123  14.604   6.179 -0.1324  0.0557 -0.0375
  729loPI   C3A10649   1.323  14.705   6.477 -0.0214 -0.3212 -0.3365
  729loPI   C4A10650   1.175  14.717   7.004  0.2255  0.0950  0.0518
  729loPI   C5A10651   1.264  14.701   7.402 -0.0069 -0.0737  0.0225
  729loPI   C6A10652   1.115  14.902   7.762  0.5696  0.0383 -0.0069
  729loPI   C1B10653   0.893  14.994   5.651  0.3288 -0.1980  0.3142
  729loPI   C2B10654   1.037  15.025   5.956 -0.0613 -0.1042  0.0307
  729loPI   C3B10655   1.042  15.147   6.362  0.1520 -0.0572  0.2436
  729loPI   C4B10656   1.146  15.158   6.785  0.2310 -0.0836  0.0097
  730loPI    C110657   8.633  12.659   5.355 -0.1234  0.1556  0.1250
  730loPI    C210658   8.665  12.634   4.957 -0.1017  0.1377  0.1278
  730loPI    C310659   8.640  12.992   5.134 -0.1124  0.1456  0.1103
  730loPI   PO410660   8.491  12.446   5.489 -0.0496  0.0745 -0.1767
  730loPI   GL110661   8.336  12.432   5.856  0.2941  0.1071  0.1041
  730loPI   GL210662   8.626  12.459   6.002 -0.2030  0.1560 -0.0680
  730loPI   C1A10663   8.116  12.113   5.973 -0.0422  0.3316 -0.3497
  730loPI   C2A10664   7.876  12.055   6.389 -0.1566 -0.0212 -0.1003
  730loPI   C3A10665   7.776  11.982   6.794  0.3013  0.1387  0.1952
  730loPI   C4A10666   7.992  11.698   7.009 -0.0916 -0.1368  0.1174
  730loPI   C5A10667   8.227  11.623   7.356 -0.0618  0.1902  0.2229
  730loPI   C6A10668   8.394  11.996   7.510  0.0179  0.1613 -0.1180
  730loPI   C1B10669   8.394  12.305   6.365 -0.1348 -0.1080 -0.0283
  730loPI   C2B10670   8.237  12.122   6.714 -0.2029  0.0322  0.1770
  730loPI   C3B10671   8.210  12.202   7.074 -0.2437 -0.2683  0.2620
  730loPI   C4B10672   8.333  12.740   7.139 -0.0735  0.2512  0.2392
  731loPI    C110673   2.791   5.409   5.137 -0.0731  0.0691  0.0421
  731loPI    C210674   2.644   5.767   5.035  0.1886  0.1658 -0.0028
  731loPI    C310675   2.689   5.483   4.757 -0.4996 -0.0834  0.1215
  731loPI   PO410676   2.914   5.358   5.421 -0.0852 -0.3393 -0.0530
  731loPI   GL110677   2.712   5.132   5.793  0.0816 -0.1379 -0.1283
  731loPI   GL210678   2.882   4.905   5.709  0.4693 -0.0209  0.0483
  731loPI   C1A10679   2.826   5.191   6.103 -0.0142 -0.0628  0.1124
  731loPI   C2A10680   2.691   5.082   6.545  0.1067 -0.0076 -0.1632
  731loPI   C3A10681   2.594   5.011   6.932  0.2368  0.1830 -0.2338
  731loPI   C4A10682   2.618   4.965   7.303  0.1722 -0.2265 -0.0556
  731loPI   C5A10683   2.646   4.920   7.682  0.0478 -0.2674 -0.0784
  731loPI   C6A10684   2.784   4.965   8.128 -0.0454 -0.1760 -0.0350
  731loPI   C1B10685   2.911   4.754   6.164  0.2020  0.1906  0.0000
  731loPI   C2B10686   2.820   4.549   6.553  0.1128  0.1210 -0.0059
  731loPI   C3B10687   2.846   4.524   7.011  0.1698 -0.1789 -0.0227
  731loPI   C4B10688   2.753   4.467   7.399 -0.1271  0.0727 -0.0143
  732loPI    C110689   9.693   8.821   5.458  0.1559 -0.1298  0.0066
  732loPI    C210690   9.913   8.621   5.726 -0.0290 -0.0871  0.1935
  732loPI    C310691  10.091   8.863   5.461  0.1470 -0.0326  0.3591
  732loPI   PO410692   9.516   8.699   5.492  0.4650  0.0441  0.2445
  732loPI   GL110693   9.388   8.363   5.710  0.2425 -0.0731 -0.0763
  732loPI   GL210694   9.172   8.362   5.781  0.1916 -0.2953  0.1164
  732loPI   C1A10695   9.645   8.426   6.064  0.0561 -0.3355  0.1670
  732loPI   C2A10696   9.562   8.649   6.344  0.1730  0.4479 -0.1795
  732loPI   C3A10697   9.524   8.754   6.740 -0.0710  0.3327  0.1199
  732loPI   C4A10698   9.377   8.946   6.971  0.0686 -0.2456 -0.3470
  732loPI   C5A10699   9.289   8.878   7.399 -0.0674  0.2765  0.3052
  732loPI   C6A10700   9.082   8.854   7.729 -0.0081  0.1342  0.3339
  732loPI   C1B10701   9.251   8.160   6.253 -0.2894  0.1720  0.3374
  732loPI   C2B10702   9.419   8.186   6.655  0.2405  0.1238 -0.1045
  732loPI   C3B10703   9.257   8.169   6.918 -0.0477 -0.2367 -0.1097
  732loPI   C4B10704   9.249   8.325   7.311  0.2662 -0.1033  0.0192
  733loPI    C110705  10.661   3.005   4.946 -0.0472 -0.0094 -0.1202
  733loPI    C210706  10.367   2.735   4.913 -0.0182 -0.0317 -0.1980
  733loPI    C310707  10.424   3.005   4.623 -0.2617  0.2743  0.0332
  733loPI   PO410708  10.665   3.000   5.216  0.2681  0.1987 -0.0106
  733loPI   GL110709  10.486   3.100   5.604  0.1343  0.4281 -0.3727
  733loPI   GL210710  10.369   2.744   5.504  0.2704 -0.1536  0.2220
  733loPI   C1A10711  10.438   2.853   6.039 -0.0742  0.3468 -0.0760
  733loPI   C2A10712  10.508   3.089   6.393  0.0977 -0.2098 -0.0083
  733loPI   C3A10713  10.420   3.139   6.842 -0.1416  0.2031 -0.2175
  733loPI   C4A10714  10.422   2.994   7.272  0.0836  0.0876 -0.0012
  733loPI   C5A10715  10.535   2.555   7.422  0.0221  0.0933 -0.3414
  733loPI   C6A10716  10.341   2.102   7.509  0.3835 -0.2780 -0.1434
  733loPI   C1B10717  10.148   2.404   5.721 -0.1097  0.1804 -0.0529
  733loPI   C2B10718  10.137   2.264   6.198 -0.0213  0.3014  0.2712
  733loPI   C3B10719   9.944   2.337   6.619  0.0347  0.1151  0.2137
  733loPI   C4B10720  10.057   2.273   7.041 -0.0045  0.0962  0.0657
  734loPI    C110721  12.344  16.878   5.122  0.1341  0.0521  0.0834
  734loPI    C210722  12.296  16.696   4.768  0.0598  0.1349  0.0506
  734loPI    C310723  12.045  16.987   4.880  0.0639  0.0873  0.1854
  734loPI   PO410724  12.355  16.675   5.305 -0.2207  0.0395  0.0527
  734loPI   GL110725  12.331  16.609   5.690 -0.1053 -0.0360  0.0076
  734loPI   GL210726  12.705  16.803   5.630  0.2447 -0.0097 -0.2907
  734loPI   C1A10727  12.382  16.515   6.150  0.0884 -0.5224 -0.2187
  734loPI   C2A10728  12.400  16.459   6.548  0.0538  0.4972 -0.2221
  734loPI   C3A10729  12.457  16.552   6.983  0.1761 -0.1592  0.1295
  734loPI   C4A10730  12.592  16.539   7.242 -0.1077  0.3425 -0.0628
  734loPI   C5A10731  12.733  16.713   7.616  0.2209  0.1821  0.1487
  734loPI   C6A10732  12.906  17.070   7.705  0.0259 -0.1887  0.1025
  734loPI   C1B10733  12.877  16.570   6.004  0.2651  0.1178 -0.0417
  734loPI   C2B10734  12.874  16.426   6.372 -0.1306  0.0901 -0.1410
  734loPI   C3B10735  13.022  16.344   6.758 -0.1912  0.0534 -0.1265
  734loPI   C4B10736  13.050  16.364   7.174 -0.0280  0.1048 -0.0294
  735loPI    C110737   9.980  16.435   5.425  0.1537 -0.0310  0.0084
  735loPI    C210738   9.757  16.279   5.132 -0.1110  0.3122  0.0208
  735loPI    C310739   9.726  16.668   5.221  0.0596  0.2389  0.4204
  735loPI   PO410740  10.043  16.305   5.518 -0.1855 -0.2786 -0.2109
  735loPI   GL110741  10.169  16.356   5.894  0.0118 -0.2614 -0.2247
  735loPI   GL210742   9.896  16.518   5.926  0.0085 -0.0354  0.1636
  735loPI   C1A10743  10.102  16.481   6.360  0.2035  0.0659 -0.2455
  735loPI   C2A10744   9.819  16.561   6.731 -0.0159 -0.1129 -0.2970
  735loPI   C3A10745   9.961  16.639   7.133 -0.1092  0.1598  0.2270
  735loPI   C4A10746   9.839  16.814   7.450  0.1106 -0.1286  0.3788
  735loPI   C5A10747   9.605  16.827   7.720 -0.0930  0.3425 -0.0906
  735loPI   C6A10748   9.506  16.866   8.097 -0.1182 -0.2195  0.1166
  735loPI   C1B10749   9.662  16.323   6.183 -0.1644 -0.1852 -0.1627
  735loPI   C2B10750   9.576  16.149   6.604  0.0645 -0.1183  0.0745
  735loPI   C3B10751   9.710  16.089   7.131 -0.1769 -0.1357 -0.0378
  735loPI   C4B10752   9.862  16.373   7.548 -0.2894 -0.1222  0.3541
  736loPI    C110753  11.727   1.358   5.031 -0.1133 -0.0401  0.0729
  736loPI    C210754  11.810   1.681   4.809 -0.4024  0.1039  0.1685
  736loPI    C310755  11.702   1.338   4.632  0.1119 -0.0079  0.0562
  736loPI   PO410756  11.663   1.468   5.239 -0.0847  0.3240 -0.0581
  736loPI   GL110757  11.453   1.429   5.627 -0.0258 -0.0186  0.1531
  736loPI   GL210758  11.692   1.738   5.673 -0.0316  0.1106 -0.0818
  736loPI   C1A10759  11.485   1.466   6.037  0.1088  0.0944  0.2413
  736loPI   C2A10760  11.408   1.069   6.339  0.2121 -0.0564 -0.2113
  736loPI   C3A10761  11.147   0.998   6.676  0.0224 -0.2855 -0.0822
  736loPI   C4A10762  10.957   1.237   7.102  0.3756  0.0423 -0.2739
  736loPI   C5A10763  10.604   1.277   7.368 -0.1395 -0.1843 -0.3530
  736loPI   C6A10764  10.480   1.210   7.825 -0.2714 -0.1458 -0.1292
  736loPI   C1B10765  11.851   1.863   6.068 -0.0257 -0.1134  0.2625
  736loPI   C2B10766  11.811   1.821   6.543  0.1006 -0.0007 -0.4199
  736loPI   C3B10767  11.539   1.802   6.932 -0.3200 -0.1744 -0.2278
  736loPI   C4B10768  11.507   1.537   7.323 -0.0445 -0.0890  0.0829
  737loPI    C110769   4.656   7.527   5.108 -0.1009 -0.3561  0.1606
  737loPI    C210770   4.431   7.612   4.788  0.1117 -0.1783  0.0555
  737loPI    C310771   4.673   7.293   4.784  0.2420 -0.0792 -0.0282
  737loPI   PO410772   4.453   7.484   5.357  0.1312 -0.0295  0.2701
  737loPI   GL110773   4.083   7.554   5.617  0.0204 -0.0192  0.0051
  737loPI   GL210774   4.425   7.526   5.850 -0.0581 -0.0425  0.0908
  737loPI   C1A10775   3.947   7.733   5.923 -0.0051 -0.0044 -0.1231
  737loPI   C2A10776   3.789   7.892   6.292 -0.1786 -0.2222  0.0360
  737loPI   C3A10777   3.729   7.988   6.670 -0.0892  0.2496  0.1059
  737loPI   C4A10778   3.745   8.233   6.987  0.3104 -0.1465 -0.2656
  737loPI   C5A10779   3.616   8.576   7.299 -0.0194 -0.1826  0.0206
  737loPI   C6A10780   3.385   8.927   7.551 -0.1256  0.0411 -0.1304
  737loPI   C1B10781   4.232   7.567   6.306  0.0432  0.1365 -0.1894
  737loPI   C2B10782   4.072   7.503   6.662  0.0362  0.0393  0.3234
  737loPI   C3B10783   3.766   7.621   7.057  0.2876  0.2824  0.1295
  737loPI   C4B10784   3.844   7.770   7.445  0.5475 -0.3292  0.1442
  738loPI    C110785  16.296   9.213   5.444  0.3395  0.1621  0.2088
  738loPI    C210786  16.327   8.821   5.516 -0.1098  0.1300  0.2530
  738loPI    C310787  16.589   9.000   5.273  0.0531 -0.2113  0.1706
  738loPI   PO410788  16.164   9.311   5.670 -0.2498 -0.0449  0.2165
  738loPI   GL110789  16.082   9.141   6.083  0.2331  0.0938  0.1645
  738loPI   GL210790  15.772   9.373   6.132 -0.0017 -0.0242  0.2880
  738loPI   C1A10791  16.104   9.255   6.439 -0.0499 -0.1925 -0.3194
  738loPI   C2A10792  16.323   9.344   6.751  0.0737  0.1375  0.1546
  738loPI   C3A10793  16.495   9.299   7.167  0.0652  0.0029  0.1627
  738loPI   C4A10794  16.812   9.303   7.392 -0.1046 -0.0442  0.1359
  738loPI   C5A10795  16.834   9.552   7.828  0.0319 -0.3437  0.0725
  738loPI   C6A10796  16.562   9.831   7.939 -0.1768  0.0222  0.0681
  738loPI   C1B10797  15.746   9.584   6.376 -0.1363 -0.0902 -0.1633
  738loPI   C2B10798  15.836   9.630   6.735  0.0378  0.1568  0.0777
  738loPI   C3B10799  15.972   9.336   7.078 -0.0895 -0.0419 -0.2042
  738loPI   C4B10800  15.780   9.282   7.455  0.0769  0.0547 -0.0989
  739loPI    C110801   2.645  12.135   4.930 -0.0804  0.1736 -0.0933
  739loPI    C210802   2.457  11.998   4.604 -0.1069  0.0335 -0.0197
  739loPI    C310803   2.857  12.018   4.611 -0.1155  0.3018 -0.1645
  739loPI   PO410804   2.509  12.007   5.160  0.1696 -0.0060  0.1518
  739loPI   GL110805   2.154  12.050   5.466 -0.2257  0.1234  0.2466
  739loPI   GL210806   2.418  11.882   5.647 -0.0614  0.1846 -0.0333
  739loPI   C1A10807   2.117  12.144   5.992 -0.0419  0.0890  0.2497
  739loPI   C2A10808   2.044  12.273   6.428 -0.0088  0.1443 -0.0236
  739loPI   C3A10809   2.069  12.401   6.828  0.0240 -0.0578  0.1369
  739loPI   C4A10810   2.072  12.195   7.174 -0.0198  0.2229 -0.0889
  739loPI   C5A10811   1.989  11.807   7.242  0.1735  0.0498  0.0616
  739loPI   C6A10812   1.869  11.557   7.500  0.0741  0.1798 -0.1881
  739loPI   C1B10813   2.478  11.860   6.036  0.2919  0.1191  0.0879
  739loPI   C2B10814   2.439  11.943   6.393  0.1461  0.3718  0.0364
  739loPI   C3B10815   2.370  11.887   6.840 -0.0747  0.3305 -0.0864
  739loPI   C4B10816   2.479  11.790   7.188  0.0821  0.1023  0.1324
  740loPI    C110817  17.644  12.269   5.170  0.1272 -0.3246  0.1990
  740loPI    C210818  17.795  12.107   4.837  0.0689  0.2445 -0.1177
  740loPI    C310819  17.399  12.133   4.885  0.0668 -0.2658  0.2227
  740loPI   PO410820  17.685  12.008   5.369  0.0831 -0.1466 -0.0256
  740loPI   GL110821  17.863  12.153   5.743  0.0201  0.0448  0.1388
  740loPI   GL210822  18.095  11.976   5.740 -0.1067  0.0748 -0.0399
  740loPI   C1A10823  17.676  12.265   6.059  0.5639 -0.1078  0.0622
  740loPI   C2A10824  17.676  12.384   6.519 -0.1493 -0.3307 -0.2509
  740loPI   C3A10825  17.702  12.416   6.943 -0.3486 -0.1778  0.1449
  740loPI   C4A10826  17.785  12.622   7.373  0.1189  0.0430 -0.1496
  740loPI   C5A10827  17.733  13.076   7.504  0.2801  0.0424 -0.2015
  740loPI   C6A10828  17.660  13.554   7.671 -0.3633 -0.0229  0.0302
  740loPI   C1B10829  18.115  12.061   6.229 -0.0445  0.1779 -0.2083
  740loPI   C2B10830  18.190  12.159   6.660 -0.1783 -0.0713  0.1744
  740loPI   C3B10831  18.254  12.234   7.115  0.1542  0.0994 -0.0835
  740loPI   C4B10832  18.237  12.351   7.553  0.1657  0.0982 -0.3194
  741loPI    C110833   4.118  16.018   5.127  0.1934  0.0583  0.1426
  741loPI    C210834   4.488  16.088   4.992  0.1214  0.0234 -0.0771
  741loPI    C310835   4.228  15.886   4.766  0.0123 -0.0782  0.1363
  741loPI   PO410836   4.112  15.979   5.386 -0.1112 -0.2268  0.0696
  741loPI   GL110837   3.968  15.779   5.724  0.1743 -0.0651 -0.1335
  741loPI   GL210838   3.860  15.504   6.017  0.0449  0.0024 -0.0549
  741loPI   C1A10839   3.946  16.080   6.076  0.2676 -0.1386  0.0110
  741loPI   C2A10840   3.940  16.211   6.570  0.0467 -0.1508  0.2436
  741loPI   C3A10841   3.874  16.304   6.967 -0.1940  0.0837  0.0817
  741loPI   C4A10842   3.943  16.442   7.425  0.0083  0.0395 -0.0583
  741loPI   C5A10843   4.202  16.692   7.677  0.1095  0.2541  0.0811
  741loPI   C6A10844   4.433  16.639   7.967 -0.1584  0.0296  0.0386
  741loPI   C1B10845   3.908  15.380   6.361  0.0890 -0.0172 -0.0364
  741loPI   C2B10846   3.886  15.445   6.919 -0.0509 -0.0924 -0.1642
  741loPI   C3B10847   3.967  15.274   7.228  0.0805 -0.0514  0.1009
  741loPI   C4B10848   4.218  14.811   7.493  0.1283 -0.1977  0.0008
  742loPI    C110849   4.413   3.560   5.261 -0.1567  0.1683  0.0292
  742loPI    C210850   4.700   3.838   5.251  0.0966 -0.0907 -0.0707
  742loPI    C310851   4.407   3.844   4.979  0.0372  0.1414 -0.0042
  742loPI   PO410852   4.298   3.561   5.472  0.2679 -0.1368 -0.1208
  742loPI   GL110853   4.182   3.740   5.832  0.3264 -0.0919  0.0337
  742loPI   GL210854   4.520   3.885   5.789  0.3624 -0.3310  0.4450
  742loPI   C1A10855   4.207   3.795   6.347  0.0767  0.1062  0.1276
  742loPI   C2A10856   4.052   3.835   6.709  0.1335  0.1016 -0.0940
  742loPI   C3A10857   4.013   3.863   7.150 -0.1477 -0.0741 -0.4364
  742loPI   C4A10858   3.828   3.889   7.550 -0.2186  0.0668  0.1478
  742loPI   C5A10859   3.570   3.711   7.910  0.0514  0.2174 -0.0893
  742loPI   C6A10860   3.469   3.378   8.140  0.0356 -0.0716  0.1014
  742loPI   C1B10861   4.656   3.925   6.246  0.0233 -0.1728  0.0786
  742loPI   C2B10862   4.736   3.953   6.720 -0.0499 -0.6113  0.0756
  742loPI   C3B10863   4.340   4.186   6.982  0.3250  0.1827  0.0878
  742loPI   C4B10864   4.121   4.293   7.346 -0.1456 -0.3316  0.0758
  743loPI    C110865   9.449   1.454   4.635 -0.1137  0.2200  0.0042
  743loPI    C210866   9.606   1.598   4.296  0.0697 -0.1917 -0.0922
  743loPI    C310867   9.720   1.240   4.433 -0.1039 -0.0893  0.3360
  743loPI   PO410868   9.441   1.725   4.818  0.0845 -0.1335  0.1062
  743loPI   GL110869   9.313   1.855   5.170 -0.1455  0.0468  0.0762
  743loPI   GL210870   9.435   1.681   5.481  0.2932 -0.0837 -0.1144
  743loPI   C1A10871   9.236   2.138   5.544 -0.1874 -0.1354  0.2487
  743loPI   C2A10872   9.274   2.079   5.940  0.1281 -0.0956  0.0924
  743loPI   C3A10873   9.102   2.272   6.386 -0.1434  0.2330  0.0506
  743loPI   C4A10874   9.013   2.349   6.816  0.1268 -0.1795  0.1476
  743loPI   C5A10875   9.083   2.702   7.054 -0.2173 -0.0031 -0.0715
  743loPI   C6A10876   8.971   2.946   7.368  0.4213  0.2285 -0.0798
  743loPI   C1B10877   9.402   1.539   5.897  0.4354  0.2189 -0.0311
  743loPI   C2B10878   9.144   1.714   6.234 -0.0334  0.0564  0.2994
  743loPI   C3B10879   9.154   1.696   6.610 -0.1425  0.2257  0.1057
  743loPI   C4B10880   9.137   1.755   6.990 -0.3022  0.0129 -0.1969
  744loPI    C110881   6.979   0.825   4.841  0.2538  0.0636 -0.1966
  744loPI    C210882   6.726   1.108   4.967  0.1824 -0.0186 -0.1538
  744loPI    C310883   6.591   0.803   4.747  0.2305 -0.1035 -0.0661
  744loPI   PO410884   7.092   0.690   5.060  0.0558  0.1338  0.3626
  744loPI   GL110885   7.182   0.342   5.379  0.0484  0.1656  0.0309
  744loPI   GL210886   7.327   0.543   5.500 -0.0535  0.1071 -0.0789
  744loPI   C1A10887   6.839   0.282   5.710  0.0386  0.2423 -0.1404
  744loPI   C2A10888   6.831  -0.008   6.078 -0.0418 -0.0898  0.1965
  744loPI   C3A10889   6.934  -0.089   6.508  0.1896 -0.0349 -0.0586
  744loPI   C4A10890   6.857  -0.371   6.842 -0.1543 -0.1226 -0.1416
  744loPI   C5A10891   6.589  -0.249   7.195  0.0554 -0.2028  0.0533
  744loPI   C6A10892   6.590   0.089   7.441 -0.0184  0.0867  0.1103
  744loPI   C1B10893   7.326   0.326   5.848  0.1332  0.3076 -0.0879
  744loPI   C2B10894   7.203   0.311   6.288  0.1058  0.2333 -0.3755
  744loPI   C3B10895   7.036   0.459   6.586 -0.0169  0.0866 -0.1028
  744loPI   C4B10896   7.094   0.592   7.048  0.0573 -0.1637  0.2172
  745loPI    C110897  11.319  18.285   5.115  0.0077 -0.1461  0.1129
  745loPI    C210898  11.415  18.609   4.902  0.3836 -0.2252  0.1550
  745loPI    C310899  11.338  18.263   4.716 -0.0755 -0.1036  0.1064
  745loPI   PO410900  11.501  18.251   5.310  0.1953  0.2869 -0.1763
  745loPI   GL110901  11.407  18.029   5.700 -0.0577 -0.2414 -0.0718
  745loPI   GL210902  11.590  17.853   5.747  0.0543  0.1411 -0.1093
  745loPI   C1A10903  11.192  18.055   6.098 -0.1367 -0.1988  0.0372
  745loPI   C2A10904  11.251  18.136   6.541  0.2981 -0.1369 -0.1612
  745loPI   C3A10905  11.514  18.156   6.936 -0.1494 -0.0741  0.0309
  745loPI   C4A10906  11.365  18.248   7.432  0.0065 -0.0105 -0.0549
  745loPI   C5A10907  11.389  17.973   7.867  0.0810 -0.0432  0.1580
  745loPI   C6A10908  11.678  18.049   8.266 -0.1722 -0.0091 -0.0521
  745loPI   C1B10909  11.705  17.863   6.141  0.1826 -0.1096  0.1322
  745loPI   C2B10910  11.742  17.753   6.574 -0.0717 -0.3404 -0.0988
  745loPI   C3B10911  11.572  17.506   6.795  0.1105 -0.0847  0.2226
  745loPI   C4B10912  11.289  17.281   7.136 -0.1137 -0.0651 -0.0653
  746loPI    C110913   3.071  16.907   5.087 -0.0597  0.0050  0.1565
  746loPI    C210914   3.096  16.960   4.691  0.1979  0.0611  0.1784
  746loPI    C310915   2.844  17.183   4.907 -0.1152 -0.1301  0.0175
  746loPI   PO410916   3.357  16.945   5.180 -0.2038  0.3494  0.3646
  746loPI   GL110917   3.288  17.042   5.578 -0.2222 -0.0828  0.0465
  746loPI   GL210918   3.008  17.275   5.393 -0.1264 -0.0157 -0.0161
  746loPI   C1A10919   3.171  16.844   5.965  0.0895  0.0021 -0.1801
  746loPI   C2A10920   3.264  16.885   6.372 -0.1404 -0.1296 -0.0987
  746loPI   C3A10921   3.377  16.997   6.861  0.0369 -0.0888  0.0677
  746loPI   C4A10922   3.301  17.076   7.339 -0.1404  0.0936  0.2298
  746loPI   C5A10923   3.224  16.689   7.594  0.0587  0.0272 -0.1291
  746loPI   C6A10924   3.158  16.420   7.881 -0.2044 -0.2647 -0.4302
  746loPI   C1B10925   2.721  17.259   5.633 -0.0319  0.3634 -0.3651
  746loPI   C2B10926   2.658  17.322   6.013  0.2364 -0.1233 -0.1286
  746loPI   C3B10927   2.753  17.460   6.356 -0.3329 -0.0414  0.0148
  746loPI   C4B10928   2.703  17.563   6.805 -0.0177  0.3149  0.4753
  747loPI    C110929  10.306   4.781   5.530  0.0257 -0.0064  0.0016
  747loPI    C210930  10.414   4.688   5.156 -0.0427 -0.0037 -0.0190
  747loPI    C310931  10.201   5.019   5.226 -0.0994 -0.0466  0.0126
  747loPI   PO410932  10.514   4.862   5.661 -0.1777  0.2256 -0.0232
  747loPI   GL110933  10.733   4.700   6.075  0.3794  0.1421 -0.1838
  747loPI   GL210934  10.406   4.696   6.137 -0.3024 -0.0036  0.0521
  747loPI   C1A10935  10.796   4.286   6.243 -0.1488  0.0946  0.1333
  747loPI   C2A10936  11.007   4.180   6.648  0.3906  0.2155  0.2818
  747loPI   C3A10937  11.068   4.439   6.972  0.0200  0.1748 -0.0922
  747loPI   C4A10938  11.044   4.608   7.363 -0.1044 -0.0182 -0.3601
  747loPI   C5A10939  11.043   4.799   7.781 -0.1615 -0.0906  0.1833
  747loPI   C6A10940  10.964   4.976   8.111 -0.0599  0.0928  0.4478
  747loPI   C1B10941  10.537   4.586   6.513 -0.2118  0.3687  0.1754
  747loPI   C2B10942  10.617   4.647   6.949  0.0287  0.1865 -0.0844
  747loPI   C3B10943  10.565   4.361   7.301  0.2024  0.0060  0.2141
  747loPI   C4B10944  10.296   4.012   7.240 -0.0174 -0.1456 -0.0351
  748loPI    C110945   1.249   2.721   5.319 -0.2593  0.1403  0.1707
  748loPI    C210946   1.236   3.086   5.156 -0.0152  0.0052 -0.1641
  748loPI    C310947   0.969   2.809   5.048 -0.0465  0.0087 -0.0965
  748loPI   PO410948   1.281   2.710   5.552 -0.0087 -0.3419  0.0540
  748loPI   GL110949   1.459   2.916   5.910  0.2267 -0.2512 -0.0096
  748loPI   GL210950   1.283   3.186   5.893 -0.2127 -0.1061  0.1232
  748loPI   C1A10951   1.471   2.848   6.309 -0.1274 -0.0594 -0.2361
  748loPI   C2A10952   1.661   2.890   6.638 -0.1016  0.4673  0.3230
  748loPI   C3A10953   1.699   2.822   7.077 -0.1175  0.1145  0.1163
  748loPI   C4A10954   1.633   2.866   7.459 -0.1064 -0.1130  0.0009
  748loPI   C5A10955   1.647   3.109   7.787  0.2562 -0.0611  0.3788
  748loPI   C6A10956   1.430   3.365   8.055 -0.0810 -0.4337  0.1957
  748loPI   C1B10957   1.351   3.356   6.263 -0.0988  0.1744  0.0773
  748loPI   C2B10958   1.318   3.174   6.726  0.0393  0.1149  0.0553
  748loPI   C3B10959   1.169   2.820   7.051  0.0529  0.0497  0.0492
  748loPI   C4B10960   0.881   2.543   7.249 -0.1247 -0.0668  0.1786
  749loPI    C110961  17.332  13.685   5.086 -0.1278 -0.1168  0.0775
  749loPI    C210962  17.260  13.508   4.734 -0.1980 -0.0652  0.0659
  749loPI    C310963  17.356  13.896   4.747 -0.2248 -0.0598  0.1058
  749loPI   PO410964  17.118  13.680   5.198  0.1689 -0.2496  0.2198
  749loPI   GL110965  16.914  13.511   5.477 -0.1720 -0.1567  0.0416
  749loPI   GL210966  17.080  13.136   5.546  0.2349  0.0332 -0.0136
  749loPI   C1A10967  16.976  13.448   5.927 -0.1835 -0.0466  0.2924
  749loPI   C2A10968  16.903  13.459   6.387 -0.0191 -0.1608  0.0892
  749loPI   C3A10969  16.791  13.454   6.837 -0.0892 -0.2414 -0.1480
  749loPI   C4A10970  16.713  13.545   7.266  0.1260  0.2175 -0.0837
  749loPI   C5A10971  16.751  13.246   7.732  0.0160 -0.1168  0.0490
  749loPI   C6A10972  16.972  12.902   7.977  0.0311 -0.0864 -0.3867
  749loPI   C1B10973  17.181  12.994   5.879  0.2200  0.1511 -0.0129
  749loPI   C2B10974  17.044  13.014   6.199 -0.0131 -0.0930  0.0979
  749loPI   C3B10975  17.033  12.999   6.567 -0.2042 -0.1407 -0.0079
  749loPI   C4B10976  16.777  12.940   6.951 -0.0847 -0.0075  0.2653
  750loPI    C110977  11.858  10.981   5.581  0.1395 -0.0173  0.2489
  750loPI    C210978  11.772  10.745   5.270 -0.1396  0.0260  0.2903
  750loPI    C310979  11.949  11.099   5.210 -0.0289 -0.0444  0.1979
  750loPI   PO410980  11.567  10.989   5.728 -0.0797  0.4875  0.2755
  750loPI   GL110981  11.487  10.852   6.182  0.0936 -0.1836 -0.0415
  750loPI   GL210982  11.561  10.584   6.247  0.2759 -0.2105 -0.1611
  750loPI   C1A10983  11.197  11.148   6.498  0.2345  0.0698  0.0436
  750loPI   C2A10984  10.901  11.120   6.846 -0.1495 -0.0974 -0.0139
  750loPI   C3A10985  10.810  11.149   7.101  0.2332 -0.0667  0.0032
  750loPI   C4A10986  10.747  11.208   7.489  0.0262  0.1629 -0.0577
  750loPI   C5A10987  11.083  11.270   7.783 -0.1694  0.0984 -0.1085
  750loPI   C6A10988  11.355  11.186   7.933  0.2169  0.0971 -0.0931
  750loPI   C1B10989  11.512  10.586   6.613 -0.3811  0.1559  0.2033
  750loPI   C2B10990  11.193  10.672   6.913 -0.2646  0.5000  0.1122
  750loPI   C3B10991  11.169  10.831   7.326 -0.2077  0.0935 -0.4125
  750loPI   C4B10992  11.239  10.793   7.678 -0.1917  0.1985  0.0646
  751loPI    C110993  17.290   5.723   5.666 -0.0943  0.1548 -0.0636
  751loPI    C210994  17.067   5.652   5.990  0.1448 -0.0846  0.0522
  751loPI    C310995  16.897   5.663   5.629 -0.0618 -0.2118  0.1441
  751loPI   PO410996  17.497   5.941   5.734  0.0803 -0.1648 -0.1941
  751loPI   GL110997  17.463   6.087   6.000 -0.4440 -0.0707  0.0621
  751loPI   GL210998  17.384   5.949   6.283  0.2964 -0.1838  0.1321
  751loPI   C1A10999  17.685   6.377   6.251 -0.1617  0.0544  0.4146
  751loPI   C2A11000  18.096   6.405   6.442 -0.0197  0.2819  0.0242
  751loPI   C3A11001  17.954   6.195   6.833  0.1073  0.1152  0.0783
  751loPI   C4A11002  18.120   6.298   7.339 -0.1692  0.1035  0.2267
  751loPI   C5A11003  18.339   6.660   7.444  0.2333 -0.0560  0.1792
  751loPI   C6A11004  18.582   6.999   7.476  0.0759 -0.3320  0.3861
  751loPI   C1B11005  17.391   6.056   6.786  0.0081  0.0741 -0.1584
  751loPI   C2B11006  17.058   6.011   6.954  0.0942 -0.0680  0.0534
  751loPI   C3B11007  16.910   6.121   7.296  0.1314  0.2007  0.1025
  751loPI   C4B11008  16.673   6.035   7.726 -0.1202  0.0244  0.0552
  752loPI    C111009   0.281   0.969   5.239  0.0167 -0.0538  0.2030
  752loPI    C211010  -0.097   0.894   5.348  0.1053 -0.2033  0.4137
  752loPI    C311011   0.086   0.656   5.084 -0.0856  0.1175 -0.0198
  752loPI   PO411012   0.426   0.974   5.457 -0.1352  0.0363  0.1765
  752loPI   GL111013   0.567   0.858   5.885 -0.1780 -0.2267  0.0138
  752loPI   GL211014   0.636   0.603   5.857  0.2161  0.1420 -0.4068
  752loPI   C1A11015   0.660   0.852   6.350  0.3746  0.3135 -0.3338
  752loPI   C2A11016   0.477   0.871   6.778  0.2743 -0.0922  0.1047
  752loPI   C3A11017   0.558   0.917   7.194 -0.0771 -0.0138 -0.0885
  752loPI   C4A11018   0.573   1.122   7.588 -0.0537  0.1800  0.1464
  752loPI   C5A11019   0.600   0.918   7.860  0.1637  0.0472 -0.0284
  752loPI   C6A11020   0.625   0.732   8.232  0.0140  0.1408 -0.2387
  752loPI   C1B11021   0.686   0.394   6.169 -0.1396 -0.2403 -0.3071
  752loPI   C2B11022   0.679   0.329   6.590 -0.0793  0.0762  0.0301
  752loPI   C3B11023   0.674   0.332   7.130  0.2733  0.0262  0.1391
  752loPI   C4B11024   0.700   0.061   7.583  0.3656 -0.0332  0.0972
  753loPI    C111025  16.449   9.782   5.439 -0.0433 -0.2488 -0.1010
  753loPI    C211026  16.779   9.765   5.215 -0.0113 -0.3139 -0.0493
  753loPI    C311027  16.470   9.524   5.134  0.0636 -0.4537  0.0770
  753loPI   PO411028  16.470   9.697   5.667  0.0577 -0.1796  0.1742
  753loPI   GL111029  16.607   9.913   6.075 -0.3053  0.0580 -0.1462
  753loPI   GL211030  16.834   9.698   6.041 -0.0838 -0.0512  0.0593
  753loPI   C1A11031  16.849  10.021   6.494  0.4850 -0.0449 -0.1191
  753loPI   C2A11032  16.926  10.187   6.932  0.1740 -0.1467 -0.0126
  753loPI   C3A11033  16.858  10.325   7.275 -0.2669  0.1197 -0.0152
  753loPI   C4A11034  16.942  10.189   7.677 -0.1881  0.1001  0.2395
  753loPI   C5A11035  17.272  10.070   7.959 -0.0468  0.2099  0.0588
  753loPI   C6A11036  17.690  10.317   8.091 -0.0640  0.0635  0.3735
  753loPI   C1B11037  17.133   9.553   6.310 -0.1994  0.1096 -0.0153
  753loPI   C2B11038  17.372   9.525   6.629 -0.1786 -0.1863  0.1552
  753loPI   C3B11039  17.362   9.553   7.058 -0.2041  0.2855  0.1721
  753loPI   C4B11040  17.203   9.552   7.455 -0.0815 -0.2917  0.2977
  754loPI    C111041  16.449   3.216   5.250  0.1230  0.0299  0.0824
  754loPI    C211042  16.824   3.312   5.147  0.1351 -0.1379 -0.0360
  754loPI    C311043  16.558   3.214   4.865  0.0192 -0.0831  0.0529
  754loPI   PO411044  16.320   3.473   5.433 -0.0682 -0.0958 -0.0841
  754loPI   GL111045  16.171   3.453   5.805 -0.0046  0.1851  0.0649
  754loPI   GL211046  16.380   3.623   5.944 -0.0626  0.1198  0.0163
  754loPI   C1A11047  15.947   3.364   6.173  0.0492 -0.0772  0.2817
  754loPI   C2A11048  15.906   3.498   6.613  0.0695 -0.2856  0.2152
  754loPI   C3A11049  15.683   3.528   6.976  0.0715  0.1168 -0.0747
  754loPI   C4A11050  15.811   3.460   7.375  0.1003  0.2669 -0.1624
  754loPI   C5A11051  16.171   3.619   7.600  0.0739  0.0584  0.0967
  754loPI   C6A11052  16.449   3.817   7.874 -0.0811 -0.1341 -0.0249
  754loPI   C1B11053  16.438   3.353   6.242  0.1353 -0.1115  0.1067
  754loPI   C2B11054  16.359   3.283   6.710 -0.0379 -0.1112  0.1283
  754loPI   C3B11055  16.348   3.301   7.200 -0.0600 -0.3408 -0.1392
  754loPI   C4B11056  16.259   3.069   7.589 -0.1182 -0.1701 -0.1091
  755loPI    C111057  18.042  17.420   5.603 -0.0705  0.0758  0.0613
  755loPI    C211058  18.140  17.268   5.246  0.2038 -0.1642  0.2340
  755loPI    C311059  17.863  17.555   5.272  0.0939 -0.2291 -0.1574
  755loPI   PO411060  18.109  17.223   5.746 -0.1527 -0.0772  0.0319
  755loPI   GL111061  18.137  16.976   6.041 -0.2042 -0.0699  0.0202
  755loPI   GL211062  17.792  16.818   6.001 -0.0052  0.0034 -0.0304
  755loPI   C1A11063  18.041  16.779   6.500 -0.1766  0.0219 -0.0227
  755loPI   C2A11064  18.174  16.876   6.876 -0.0475 -0.1097 -0.1986
  755loPI   C3A11065  18.490  16.902   7.159  0.0297  0.0272 -0.3409
  755loPI   C4A11066  18.550  16.936   7.503 -0.0279 -0.0235  0.2450
  755loPI   C5A11067  18.417  17.110   7.894  0.2632  0.1184  0.5812
  755loPI   C6A11068  18.122  16.895   8.164  0.2528  0.2148  0.2604
  755loPI   C1B11069  17.662  17.106   6.255 -0.1718 -0.1601 -0.0825
  755loPI   C2B11070  17.657  17.029   6.694  0.0991  0.1210  0.0653
  755loPI   C3B11071  17.741  17.079   7.172 -0.3560 -0.0108 -0.0143
  755loPI   C4B11072  18.033  16.975   7.549 -0.0025 -0.0847 -0.0324
  756loPI    C111073  12.933  15.446   5.029 -0.0416 -0.2952 -0.0909
  756loPI    C211074  12.537  15.482   4.986 -0.0113  0.1671 -0.0369
  756loPI    C311075  12.781  15.751   4.820  0.2653  0.0753  0.2118
  756loPI   PO411076  13.035  15.451   5.218  0.1109  0.0091  0.0056
  756loPI   GL111077  13.238  15.389   5.624 -0.0465  0.2085  0.0889
  756loPI   GL211078  13.354  15.079   5.620  0.1214 -0.1779 -0.2575
  756loPI   C1A11079  13.364  15.615   5.852 -0.0704 -0.0381  0.2399
  756loPI   C2A11080  13.466  15.584   6.250  0.0528 -0.0246 -0.0305
  756loPI   C3A11081  13.615  15.663   6.636 -0.1310  0.0778  0.0858
  756loPI   C4A11082  13.509  15.453   6.888 -0.2434  0.2857 -0.5573
  756loPI   C5A11083  13.453  15.274   7.210 -0.0394 -0.0499 -0.2562
  756loPI   C6A11084  13.189  15.020   7.470  0.1118 -0.0825  0.1288
  756loPI   C1B11085  13.372  15.124   6.105 -0.0205 -0.0806 -0.2255
  756loPI   C2B11086  13.348  14.891   6.473  0.1345 -0.0721  0.2111
  756loPI   C3B11087  13.468  14.910   6.867 -0.1286 -0.2310 -0.2367
  756loPI   C4B11088  13.370  14.578   7.117 -0.3308  0.0250  0.0697
  757loPI    C111089  14.426  11.615   4.931 -0.1429 -0.2158 -0.1096
  757loPI    C211090  14.214  11.521   4.606 -0.0292 -0.0919 -0.2213
  757loPI    C311091  14.437  11.853   4.609  0.1394 -0.2045 -0.0948
  757loPI   PO411092  14.268  11.639   5.223  0.1270 -0.0930 -0.0167
  757loPI   GL111093  14.368  11.694   5.718 -0.1005 -0.0827  0.0050
  757loPI   GL211094  14.179  11.770   5.984  0.0127  0.0378 -0.0793
  757loPI   C1A11095  14.693  11.654   6.052  0.1098 -0.0700  0.1185
  757loPI   C2A11096  14.736  11.493   6.396  0.1458  0.0991  0.0922
  757loPI   C3A11097  14.948  11.274   6.840  0.1755  0.2031  0.0210
  757loPI   C4A11098  14.972  11.447   7.246 -0.0616  0.0641  0.2792
  757loPI   C5A11099  14.998  11.265   7.561  0.0488 -0.1092  0.0341
  757loPI   C6A11100  14.751  11.057   7.882  0.0172 -0.2457 -0.2681
  757loPI   C1B11101  14.363  11.943   6.376  0.2784 -0.0845 -0.2128
  757loPI   C2B11102  14.668  11.897   6.821  0.2009 -0.0487  0.0959
  757loPI   C3B11103  14.645  11.798   7.220  0.2041 -0.0182  0.1416
  757loPI   C4B11104  14.577  11.769   7.640  0.0848 -0.2370  0.0571
  758loPI    C111105  18.004   4.574   5.596 -0.1290 -0.1315  0.0316
  758loPI    C211106  17.942   4.877   5.342  0.0390 -0.1693 -0.0557
  758loPI    C311107  18.152   4.937   5.677 -0.0277 -0.1618 -0.0153
  758loPI   PO411108  17.815   4.479   5.742  0.1883  0.0465 -0.0470
  758loPI   GL111109  17.781   4.573   6.196 -0.1094 -0.4154 -0.0030
  758loPI   GL211110  18.006   4.811   6.225  0.3789 -0.0561  0.1969
  758loPI   C1A11111  17.566   4.482   6.582 -0.0656  0.0801  0.0192
  758loPI   C2A11112  17.859   4.423   6.861  0.2919  0.1991 -0.1344
  758loPI   C3A11113  17.866   4.182   7.249  0.1635 -0.0599 -0.0229
  758loPI   C4A11114  17.889   4.382   7.773  0.1248 -0.0576 -0.0690
  758loPI   C5A11115  17.532   4.435   7.907 -0.2618  0.0943 -0.2806
  758loPI   C6A11116  17.275   4.262   8.215 -0.1922  0.1187 -0.1450
  758loPI   C1B11117  18.136   4.804   6.607 -0.1396  0.1493  0.2183
  758loPI   C2B11118  18.193   4.899   7.034 -0.1139  0.0275  0.1178
  758loPI   C3B11119  18.379   5.017   7.510  0.0059  0.1474  0.1953
  758loPI   C4B11120  18.680   5.051   7.932  0.3746 -0.2765 -0.1199
  759loPI    C111121   5.155  13.040   4.885 -0.0027 -0.0521 -0.0496
  759loPI    C211122   5.061  13.119   4.504 -0.3506 -0.0298  0.0379
  759loPI    C311123   5.444  13.111   4.618 -0.2423 -0.0713 -0.3187
  759loPI   PO411124   5.181  13.208   5.090 -0.0615 -0.0893  0.0984
  759loPI   GL111125   5.293  13.332   5.477 -0.0551  0.0649 -0.5156
  759loPI   GL211126   5.595  13.397   5.611  0.3009 -0.0931 -0.1745
  759loPI   C1A11127   5.019  13.269   5.814  0.1402  0.2276 -0.2076
  759loPI   C2A11128   4.962  13.293   6.256 -0.1009  0.0459  0.2162
  759loPI   C3A11129   4.783  13.392   6.677 -0.2351  0.3635  0.1046
  759loPI   C4A11130   4.677  13.275   7.091  0.3670 -0.2912 -0.2412
  759loPI   C5A11131   4.529  13.426   7.536 -0.1963  0.1759 -0.1430
  759loPI   C6A11132   4.207  13.515   7.827  0.0649 -0.0524 -0.0043
  759loPI   C1B11133   5.888  13.445   5.945 -0.2562 -0.2854 -0.2290
  759loPI   C2B11134   5.960  13.415   6.387  0.2396 -0.0111  0.0385
  759loPI   C3B11135   6.011  13.354   6.816 -0.0545 -0.1658  0.2377
  759loPI   C4B11136   5.930  13.264   7.236 -0.1078 -0.2441  0.0534
  760loPI    C111137  11.366   8.856   5.636  0.1909 -0.0569  0.1493
  760loPI    C211138  11.319   8.552   5.381 -0.0827 -0.1636  0.3227
  760loPI    C311139  11.408   8.480   5.764  0.5349  0.0027  0.2209
  760loPI   PO411140  11.193   8.958   5.627 -0.2288  0.2891  0.0303
  760loPI   GL111141  10.857   8.950   5.868  0.2008  0.0063 -0.2309
  760loPI   GL211142  11.065   8.701   6.048  0.1523 -0.0127  0.1717
  760loPI   C1A11143  11.047   9.109   6.271 -0.0025  0.0868 -0.0666
  760loPI   C2A11144  10.982   9.337   6.653  0.2115 -0.2751 -0.0610
  760loPI   C3A11145  10.997   9.381   6.994 -0.2508 -0.0934  0.0487
  760loPI   C4A11146  10.937   9.329   7.266  0.1221  0.0695 -0.1553
  760loPI   C5A11147  10.647   9.246   7.484  0.0005 -0.0667  0.0310
  760loPI   C6A11148  10.254   9.160   7.395  0.1311  0.1427 -0.1691
  760loPI   C1B11149  10.975   8.624   6.487 -0.1957 -0.0495 -0.0399
  760loPI   C2B11150  10.936   8.540   6.841 -0.0413  0.2268 -0.2527
  760loPI   C3B11151  11.040   8.397   7.276  0.1312 -0.1747 -0.1765
  760loPI   C4B11152  10.938   8.099   7.597 -0.3083 -0.1299  0.3052
  761loPI    C111153   3.295   0.685   5.059  0.1149  0.0759 -0.0170
  761loPI    C211154   3.123   0.751   4.704  0.0249 -0.1809 -0.0236
  761loPI    C311155   3.487   0.587   4.722  0.1093  0.0070 -0.0004
  761loPI   PO411156   3.329   0.836   5.265  0.1848  0.2269 -0.1844
  761loPI   GL111157   3.426   0.869   5.563 -0.1767  0.0114  0.2451
  761loPI   GL211158   3.660   0.986   5.729 -0.0779 -0.3156 -0.1493
  761loPI   C1A11159   3.416   0.415   5.781  0.0080 -0.0122  0.1631
  761loPI   C2A11160   3.528   0.049   6.082 -0.0275 -0.3052  0.0228
  761loPI   C3A11161   3.834  -0.076   6.321  0.0365  0.0200  0.1016
  761loPI   C4A11162   3.973  -0.159   6.677 -0.4413  0.2293 -0.0254
  761loPI   C5A11163   3.954  -0.184   7.254  0.0335 -0.0805 -0.0678
  761loPI   C6A11164   3.988  -0.452   7.612  0.0828  0.4423 -0.3560
  761loPI   C1B11165   3.560   0.755   6.111  0.0886 -0.1385  0.0913
  761loPI   C2B11166   3.497   0.386   6.409  0.0365 -0.3862 -0.0262
  761loPI   C3B11167   3.474   0.060   6.644  0.0144 -0.1158  0.0935
  761loPI   C4B11168   3.560  -0.444   6.553 -0.2442 -0.2579  0.1224
  762loPI    C111169  15.022   8.990   5.715  0.1286  0.2067  0.1511
  762loPI    C211170  15.033   9.003   5.316 -0.2629 -0.0645  0.1265
  762loPI    C311171  14.816   9.271   5.519  0.0609  0.1702  0.1697
  762loPI   PO411172  14.938   8.800   5.830  0.1221  0.3258 -0.0412
  762loPI   GL111173  14.917   8.842   6.217  0.3124 -0.0578  0.0980
  762loPI   GL211174  14.576   8.797   6.223 -0.3959  0.0599 -0.1386
  762loPI   C1A11175  15.081   8.645   6.601 -0.0022 -0.0768  0.1526
  762loPI   C2A11176  15.412   8.633   6.782 -0.2590  0.1869 -0.1727
  762loPI   C3A11177  15.600   8.674   7.231  0.0531  0.2068  0.0383
  762loPI   C4A11178  15.710   8.588   7.744 -0.3507  0.2096 -0.0908
  762loPI   C5A11179  15.805   8.871   7.967  0.2414 -0.1271 -0.3157
  762loPI   C6A11180  15.627   9.042   8.363 -0.0821  0.1850  0.0562
  762loPI   C1B11181  14.531   8.751   6.671 -0.1377 -0.3054  0.0264
  762loPI   C2B11182  14.693   8.699   7.102  0.1290 -0.1729  0.1643
  762loPI   C3B11183  14.749   8.713   7.536  0.0529 -0.2305  0.2229
  762loPI   C4B11184  14.911   8.654   7.938 -0.2908  0.2380 -0.0025
  763loPI    C111185   9.335   9.214   5.412  0.4709  0.0868 -0.0596
  763loPI    C211186   9.380   9.018   5.067  0.0256  0.0940 -0.1278
  763loPI    C311187   9.368   9.418   5.070  0.1990  0.0998 -0.0802
  763loPI   PO411188   9.083   9.079   5.535 -0.0216  0.0133  0.0558
  763loPI   GL111189   8.893   9.147   5.912  0.0106 -0.3376  0.2283
  763loPI   GL211190   8.825   8.802   5.849  0.1690 -0.0336  0.0184
  763loPI   C1A11191   9.035   9.169   6.246 -0.3020  0.1026 -0.1681
  763loPI   C2A11192   9.089   9.095   6.626 -0.0660  0.0394  0.1696
  763loPI   C3A11193   8.911   9.136   7.047  0.2288  0.0196 -0.1228
  763loPI   C4A11194   8.702   9.063   7.458 -0.2197  0.2708  0.0585
  763loPI   C5A11195   8.526   8.873   7.745 -0.0817  0.0419 -0.0450
  763loPI   C6A11196   8.488   8.799   8.261 -0.1644 -0.2399  0.2469
  763loPI   C1B11197   8.990   8.708   6.230 -0.2223  0.2302  0.0558
  763loPI   C2B11198   9.016   8.551   6.623 -0.3447 -0.0459 -0.1950
  763loPI   C3B11199   8.984   8.614   7.038 -0.1396  0.1191  0.0284
  763loPI   C4B11200   8.811   8.530   7.394 -0.1299 -0.0560  0.0579
  764loPI    C111201   9.351  15.524   5.402 -0.1554  0.0947 -0.1158
  764loPI    C211202   9.158  15.178   5.352 -0.0283  0.0205 -0.0966
  764loPI    C311203   9.235  15.411   5.036 -0.1632  0.0586 -0.1023
  764loPI   PO411204   9.613  15.402   5.567  0.1219 -0.1741 -0.0671
  764loPI   GL111205   9.969  15.586   5.857 -0.2757  0.0437 -0.2817
  764loPI   GL211206   9.806  15.923   5.953 -0.1486  0.1394  0.0996
  764loPI   C1A11207   9.977  15.381   6.214  0.3595 -0.0676  0.2027
  764loPI   C2A11208  10.100  15.447   6.594  0.0567  0.2317 -0.1222
  764loPI   C3A11209  10.004  15.222   7.083  0.1319  0.3203 -0.0601
  764loPI   C4A11210  10.350  15.075   7.454 -0.1947  0.2055 -0.1836
  764loPI   C5A11211  10.776  15.151   7.640  0.1666  0.0632  0.1499
  764loPI   C6A11212  11.267  15.152   7.820 -0.1713 -0.0270  0.2590
  764loPI   C1B11213   9.638  15.784   6.259 -0.0964 -0.1251  0.1876
  764loPI   C2B11214   9.510  15.501   6.410 -0.1553 -0.0894  0.1921
  764loPI   C3B11215   9.115  15.367   6.701 -0.1399  0.1145 -0.1446
  764loPI   C4B11216   8.927  15.453   7.130  0.2882 -0.0620 -0.5178
  765loPI    C111217   2.141   2.927   5.162 -0.2604  0.2018  0.1721
  765loPI    C211218   2.317   3.110   4.854  0.2051 -0.1672  0.2062
  765loPI    C311219   2.151   2.750   4.804  0.0731 -0.1253  0.3360
  765loPI   PO411220   2.051   3.158   5.326 -0.0461 -0.0691  0.0167
  765loPI   GL111221   2.138   3.280   5.785 -0.4322  0.0995  0.1757
  765loPI   GL211222   1.831   3.317   5.941  0.0383  0.0193  0.2710
  765loPI   C1A11223   2.241   3.028   6.038  0.2287  0.0407 -0.0955
  765loPI   C2A11224   2.094   2.800   6.406  0.0854  0.1067  0.0556
  765loPI   C3A11225   2.143   2.960   6.808 -0.1242 -0.3776  0.1696
  765loPI   C4A11226   2.156   3.148   7.246  0.2537 -0.0151 -0.0485
  765loPI   C5A11227   2.153   3.044   7.633  0.1138  0.2061 -0.2206
  765loPI   C6A11228   1.971   2.764   8.040 -0.0106 -0.4335 -0.3237
  765loPI   C1B11229   1.874   3.287   6.406  0.0668  0.0949 -0.0935
  765loPI   C2B11230   1.803   3.347   6.914 -0.0980  0.2125  0.1430
  765loPI   C3B11231   1.645   3.333   7.280  0.0504 -0.0304 -0.1935
  765loPI   C4B11232   1.842   3.496   7.626 -0.3124  0.3452  0.1118
  766loPI    C111233  11.303   0.952   5.107  0.1429 -0.6571  0.3481
  766loPI    C211234  11.018   0.726   4.941 -0.2960  0.1672 -0.0817
  766loPI    C311235  11.315   0.871   4.716 -0.0261  0.0384  0.1849
  766loPI   PO411236  11.223   0.947   5.448 -0.3140  0.1975 -0.0941
  766loPI   GL111237  11.347   0.978   5.832 -0.0968  0.1226  0.2539
  766loPI   GL211238  11.686   0.984   5.851 -0.3339  0.3052 -0.1161
  766loPI   C1A11239  11.238   0.635   6.117  0.0479  0.2003  0.0171
  766loPI   C2A11240  11.418   0.457   6.409  0.0165 -0.0944 -0.1152
  766loPI   C3A11241  11.366   0.547   6.853 -0.1684 -0.0157 -0.1497
  766loPI   C4A11242  11.004   0.741   7.082  0.2135 -0.3141 -0.0799
  766loPI   C5A11243  10.775   0.817   7.455 -0.2306 -0.1858 -0.1446
  766loPI   C6A11244  10.533   0.706   7.910 -0.0582  0.1396  0.0924
  766loPI   C1B11245  11.788   0.789   6.268 -0.0379 -0.2476  0.1590
  766loPI   C2B11246  11.857   0.779   6.702  0.2991 -0.2006 -0.2727
  766loPI   C3B11247  11.946   0.955   7.157 -0.0288 -0.1245 -0.1799
  766loPI   C4B11248  11.900   1.308   7.542 -0.1975  0.1277  0.0074
  767loPI    C111249   0.648   1.773   5.396 -0.1518  0.1990  0.0486
  767loPI    C211250   0.529   1.417   5.258  0.3533  0.0414 -0.0015
  767loPI    C311251   0.457   1.747   5.045 -0.1000 -0.0274  0.0354
  767loPI   PO411252   0.901   1.796   5.563 -0.1218 -0.3468  0.1110
  767loPI   GL111253   1.183   1.879   5.877 -0.1507  0.2797 -0.0803
  767loPI   GL211254   1.289   2.056   6.146 -0.0717 -0.0089 -0.4560
  767loPI   C1A11255   1.390   1.549   6.026  0.2278  0.1698  0.1951
  767loPI   C2A11256   1.498   1.521   6.511  0.2312 -0.0508 -0.0838
  767loPI   C3A11257   1.378   1.448   6.798  0.2176  0.0464 -0.0907
  767loPI   C4A11258   1.330   1.500   7.315 -0.1070 -0.1065 -0.0197
  767loPI   C5A11259   1.287   1.366   7.750  0.1251 -0.1281 -0.0079
  767loPI   C6A11260   1.196   1.165   8.100  0.1540  0.2190  0.1230
  767loPI   C1B11261   1.330   2.007   6.572 -0.0696  0.2871 -0.1488
  767loPI   C2B11262   1.489   1.884   7.021 -0.1639 -0.3377 -0.1200
  767loPI   C3B11263   1.755   1.838   7.372 -0.3874  0.0666  0.4278
  767loPI   C4B11264   1.818   1.381   7.609  0.1870  0.0644  0.2858
  768loPI    C111265   2.549   6.216   5.323 -0.0528  0.2703 -0.0409
  768loPI    C211266   2.384   6.347   4.983  0.1053  0.0559 -0.2033
  768loPI    C311267   2.778   6.285   5.002  0.0829 -0.0329 -0.0124
  768loPI   PO411268   2.488   6.339   5.467  0.1830 -0.0354  0.1701
  768loPI   GL111269   2.709   6.502   5.707 -0.1259 -0.1562 -0.0285
  768loPI   GL211270   2.914   6.149   5.761  0.1089 -0.2413  0.1119
  768loPI   C1A11271   2.832   6.568   6.095 -0.0610  0.1423  0.0251
  768loPI   C2A11272   2.873   6.598   6.577 -0.0554 -0.1119  0.0381
  768loPI   C3A11273   2.835   6.516   6.960  0.0891 -0.0483  0.3646
  768loPI   C4A11274   2.739   6.791   7.400 -0.0812  0.2432 -0.0194
  768loPI   C5A11275   2.901   7.123   7.718  0.1180  0.0168 -0.1894
  768loPI   C6A11276   3.176   7.350   7.893  0.0321 -0.3155  0.2196
  768loPI   C1B11277   2.894   6.012   6.216  0.1562 -0.3049  0.1088
  768loPI   C2B11278   2.879   5.936   6.690 -0.1667 -0.1227 -0.2691
  768loPI   C3B11279   2.778   5.900   7.129  0.0903  0.0399 -0.3927
  768loPI   C4B11280   2.341   5.817   7.346 -0.1276  0.0227  0.0694
  769loPI    C111281  14.624   2.257   5.030  0.0624 -0.1386  0.1032
  769loPI    C211282  14.699   1.895   4.876 -0.1016 -0.0809 -0.1188
  769loPI    C311283  14.323   2.005   4.955 -0.0566  0.0591 -0.0958
  769loPI   PO411284  14.905   2.225   5.194 -0.2273  0.0742  0.1274
  769loPI   GL111285  15.105   1.972   5.542 -0.0169  0.1925 -0.1543
  769loPI   GL211286  14.773   1.733   5.355  0.0927  0.1885 -0.3715
  769loPI   C1A11287  14.959   1.795   5.902 -0.3431 -0.2059  0.0485
  769loPI   C2A11288  14.581   1.803   6.229 -0.0465 -0.1877 -0.1426
  769loPI   C3A11289  14.554   1.848   6.705 -0.1864 -0.1463 -0.2846
  769loPI   C4A11290  14.494   1.539   6.970  0.1102 -0.4604 -0.3018
  769loPI   C5A11291  14.439   1.534   7.433 -0.1079 -0.0287 -0.2801
  769loPI   C6A11292  14.645   1.580   7.778 -0.0370  0.1731 -0.0561
  769loPI   C1B11293  14.432   1.689   5.745 -0.1145 -0.2096  0.2597
  769loPI   C2B11294  14.611   1.339   6.056 -0.0098  0.0143 -0.0872
  769loPI   C3B11295  14.423   1.303   6.474  0.0953  0.0591 -0.2063
  769loPI   C4B11296  14.455   1.109   6.864  0.0726  0.1763 -0.2992
  770loPI    C111297   0.225   4.383   5.115 -0.2090  0.0479 -0.0192
  770loPI    C211298   0.116   4.281   4.744 -0.1080 -0.3151  0.0466
  770loPI    C311299   0.484   4.194   4.875 -0.0737 -0.0043  0.1656
  770loPI   PO411300   0.065   4.280   5.280 -0.1488  0.1377 -0.0361
  770loPI   GL111301   0.191   4.093   5.785  0.2028 -0.1927 -0.1914
  770loPI   GL211302   0.541   4.084   5.782 -0.1373  0.1356  0.3792
  770loPI   C1A11303   0.018   4.060   6.127 -0.2514 -0.0815  0.0105
  770loPI   C2A11304   0.164   4.136   6.596  0.1340 -0.1088  0.0169
  770loPI   C3A11305   0.140   4.273   7.042 -0.2703  0.0215  0.0730
  770loPI   C4A11306   0.251   3.990   7.407  0.0416 -0.2110  0.0272
  770loPI   C5A11307   0.474   4.125   7.848  0.0950  0.1005  0.1477
  770loPI   C6A11308   0.539   3.904   8.189  0.2549 -0.1184 -0.0323
  770loPI   C1B11309   0.667   3.999   6.175  0.0773  0.4889 -0.0457
  770loPI   C2B11310   0.649   3.978   6.650 -0.1521  0.4183 -0.0025
  770loPI   C3B11311   0.557   3.989   7.048  0.1513  0.0648 -0.0169
  770loPI   C4B11312   0.729   4.046   7.428  0.0192  0.0417 -0.0900
  771loPI    C111313  13.156   0.837   4.596 -0.0692 -0.0522 -0.0679
  771loPI    C211314  13.458   1.034   4.422  0.0526  0.0514  0.2544
  771loPI    C311315  13.115   0.981   4.224  0.2393  0.0333 -0.0722
  771loPI   PO411316  13.038   0.963   4.939 -0.2556  0.2246  0.1719
  771loPI   GL111317  12.962   0.962   5.390  0.1962 -0.0516  0.3366
  771loPI   GL211318  12.783   1.187   5.512  0.1484 -0.4622  0.2075
  771loPI   C1A11319  13.104   1.014   5.917  0.2535  0.0559  0.0614
  771loPI   C2A11320  13.300   0.921   6.265 -0.2495  0.0907  0.0918
  771loPI   C3A11321  13.269   1.069   6.602  0.3258 -0.0272  0.0918
  771loPI   C4A11322  13.109   1.183   6.984 -0.1119  0.0767 -0.2745
  771loPI   C5A11323  13.034   0.993   7.397  0.0110 -0.1031 -0.0448
  771loPI   C6A11324  12.931   0.709   7.724  0.1427 -0.0048 -0.4442
  771loPI   C1B11325  12.619   1.158   5.947  0.1924  0.2112  0.1092
  771loPI   C2B11326  12.484   1.474   6.238  0.0225  0.3198  0.4262
  771loPI   C3B11327  12.221   1.619   6.601 -0.3641  0.3498 -0.2708
  771loPI   C4B11328  12.419   1.798   6.935 -0.0049  0.0873  0.1073
  772loPI    C111329   6.024   7.013   5.312 -0.0911  0.0894 -0.0304
  772loPI    C211330   5.663   6.992   5.141 -0.0756  0.1284 -0.0682
  772loPI    C311331   5.991   6.917   4.925 -0.0806 -0.2689  0.0538
  772loPI   PO411332   6.007   7.045   5.543 -0.1273  0.1811  0.0782
  772loPI   GL111333   5.976   6.942   5.888  0.1593  0.1474 -0.0616
  772loPI   GL211334   6.175   6.823   6.029  0.0827 -0.1876  0.0284
  772loPI   C1A11335   5.761   7.130   6.214  0.0834  0.0577  0.1104
  772loPI   C2A11336   5.625   6.972   6.572  0.0679  0.0888 -0.0134
  772loPI   C3A11337   5.379   6.714   6.880  0.0398  0.0633 -0.1654
  772loPI   C4A11338   5.384   6.872   7.247 -0.2226 -0.0218  0.1164
  772loPI   C5A11339   5.376   6.985   7.651  0.0135 -0.2610 -0.0543
  772loPI   C6A11340   5.090   7.270   7.766 -0.0098 -0.0885 -0.0033
  772loPI   C1B11341   6.114   6.796   6.458 -0.0658 -0.1085 -0.1628
  772loPI   C2B11342   6.014   6.752   6.954 -0.1265 -0.2440  0.2954
  772loPI   C3B11343   5.889   6.762   7.367 -0.1083  0.0609 -0.1478
  772loPI   C4B11344   5.865   6.794   7.780  0.0143  0.0920  0.0653
  773loPI    C111345   9.028   9.638   5.442  0.3910 -0.0319 -0.3523
  773loPI    C211346   8.798   9.365   5.263 -0.0321  0.2692 -0.2831
  773loPI    C311347   8.908   9.695   5.065 -0.1990  0.4301 -0.1129
  773loPI   PO411348   8.913   9.671   5.697  0.2427  0.1561  0.4099
  773loPI   GL111349   8.552   9.699   6.046  0.0697  0.1629 -0.0565
  773loPI   GL211350   8.623   9.433   6.132 -0.0112  0.2732 -0.2180
  773loPI   C1A11351   8.467   9.860   6.410 -0.1025 -0.0666  0.0802
  773loPI   C2A11352   8.420   9.914   6.834  0.2308  0.1395 -0.4220
  773loPI   C3A11353   8.537   9.940   7.250  0.2866 -0.3293  0.2465
  773loPI   C4A11354   8.432  10.125   7.514  0.0207 -0.0851 -0.0903
  773loPI   C5A11355   8.720  10.368   7.527  0.1466 -0.0800  0.2877
  773loPI   C6A11356   9.112  10.535   7.755  0.0840 -0.1300  0.1036
  773loPI   C1B11357   8.647   9.451   6.636 -0.2499  0.2558 -0.1257
  773loPI   C2B11358   8.511   9.410   7.012  0.1338 -0.2852  0.0746
  773loPI   C3B11359   8.422   9.444   7.493 -0.2901 -0.1994  0.1793
  773loPI   C4B11360   8.255   9.237   7.892 -0.1857 -0.0616 -0.0960
  774loPI    C111361   6.061  15.303   5.174 -0.0722  0.0003  0.2141
  774loPI    C211362   5.931  15.322   4.797  0.1862 -0.0998  0.1174
  774loPI    C311363   5.918  15.647   5.029 -0.1058 -0.0739  0.0694
  774loPI   PO411364   5.881  15.027   5.245 -0.0122  0.1062 -0.0088
  774loPI   GL111365   5.653  15.014   5.636 -0.1337  0.1754  0.0523
  774loPI   GL211366   5.286  15.222   5.650 -0.1328  0.0585 -0.0627
  774loPI   C1A11367   5.698  14.794   5.979  0.1678 -0.2101  0.1702
  774loPI   C2A11368   5.694  14.793   6.342 -0.0479 -0.1109 -0.2731
  774loPI   C3A11369   5.549  14.861   6.753 -0.0439  0.1261  0.1174
  774loPI   C4A11370   5.198  15.060   7.005  0.1532 -0.1870 -0.0864
  774loPI   C5A11371   4.817  15.321   7.050  0.0566  0.0193  0.2247
  774loPI   C6A11372   4.431  15.298   7.301 -0.1817  0.0162  0.2639
  774loPI   C1B11373   5.239  15.274   6.049  0.0291  0.1715  0.1301
  774loPI   C2B11374   5.320  15.196   6.389 -0.3298  0.0402 -0.2066
  774loPI   C3B11375   5.188  15.500   6.676  0.1641  0.0821 -0.1132
  774loPI   C4B11376   5.241  15.516   7.225 -0.0098  0.0020  0.3064
  775loPI    C111377  11.322   1.837   5.088 -0.2113 -0.0962  0.0983
  775loPI    C211378  11.181   2.205   5.021 -0.1607 -0.1219 -0.1577
  775loPI    C311379  11.499   2.072   4.817 -0.0194 -0.2152  0.1182
  775loPI   PO411380  11.384   1.844   5.333  0.0237 -0.1653  0.2051
  775loPI   GL111381  11.070   1.959   5.558  0.2197 -0.0346 -0.2199
  775loPI   GL211382  11.139   2.408   5.528 -0.2989 -0.3158  0.0512
  775loPI   C1A11383  11.226   1.897   5.975 -0.0301 -0.0844  0.1594
  775loPI   C2A11384  11.263   1.912   6.325 -0.0908  0.1642 -0.2574
  775loPI   C3A11385  11.377   1.482   6.524  0.0296 -0.3276 -0.0032
  775loPI   C4A11386  11.419   1.320   6.886 -0.3148 -0.3282 -0.0435
  775loPI   C5A11387  11.401   0.989   7.243 -0.4978  0.0036 -0.0074
  775loPI   C6A11388  11.575   0.539   7.291 -0.1473  0.2049  0.1702
  775loPI   C1B11389  11.146   2.354   5.957 -0.1724  0.0371  0.1111
  775loPI   C2B11390  11.055   2.348   6.346  0.2341  0.0719 -0.1727
  775loPI   C3B11391  11.091   2.272   6.796 -0.0106 -0.0842 -0.1320
  775loPI   C4B11392  11.031   1.851   6.881  0.0006 -0.3163 -0.1318
  776loPI    C111393   4.867   4.797   5.065  0.1343  0.1804 -0.1814
  776loPI    C211394   4.837   5.196   5.062 -0.0042  0.1766  0.1800
  776loPI    C311395   4.550   4.972   4.896 -0.1187  0.2212  0.3160
  776loPI   PO411396   4.941   4.789   5.343 -0.0770  0.2128  0.0084
  776loPI   GL111397   5.111   4.759   5.759 -0.1775  0.0080 -0.1085
  776loPI   GL211398   4.989   5.061   5.804  0.1577  0.1064 -0.0656
  776loPI   C1A11399   5.205   4.817   6.258  0.1274 -0.0263 -0.0691
  776loPI   C2A11400   5.117   4.794   6.706  0.0318  0.0095  0.1455
  776loPI   C3A11401   5.372   4.728   7.097  0.0611  0.1703 -0.1789
  776loPI   C4A11402   5.736   4.544   7.246  0.2242 -0.1150  0.0025
  776loPI   C5A11403   5.827   4.461   7.587 -0.1661  0.0625 -0.4372
  776loPI   C6A11404   5.654   4.301   7.960  0.0301 -0.0189  0.0131
  776loPI   C1B11405   4.820   5.181   6.124 -0.1613 -0.1638 -0.0428
  776loPI   C2B11406   4.905   5.245   6.492 -0.1661 -0.0993 -0.0223
  776loPI   C3B11407   5.026   5.324   6.907 -0.0436  0.2066 -0.0070
  776loPI   C4B11408   4.740   5.476   7.277 -0.0766 -0.1033 -0.0709
  777loPI    C111409   8.341  14.357   5.139 -0.4807 -0.2487  0.1345
  777loPI    C211410   8.105  14.500   4.848 -0.1681 -0.2208 -0.1103
  777loPI    C311411   8.460  14.339   4.758  0.0146 -0.0474  0.2721
  777loPI   PO411412   8.269  14.433   5.354  0.0992 -0.1125  0.0342
  777loPI   GL111413   8.125  14.391   5.700  0.0438 -0.1176 -0.3314
  777loPI   GL211414   8.466  14.439   5.853 -0.0330  0.1712  0.1674
  777loPI   C1A11415   7.982  14.265   6.122 -0.1282 -0.1730 -0.0988
  777loPI   C2A11416   7.837  14.095   6.535 -0.1237 -0.0177 -0.2473
  777loPI   C3A11417   7.698  14.082   6.997 -0.0325 -0.0437 -0.1018
  777loPI   C4A11418   7.961  14.223   7.394 -0.0812  0.1351  0.2322
  777loPI   C5A11419   8.032  14.655   7.618  0.0654  0.1030 -0.0864
  777loPI   C6A11420   8.395  14.681   8.000  0.1759  0.0011  0.0009
  777loPI   C1B11421   8.416  14.421   6.270 -0.0046 -0.1664 -0.1786
  777loPI   C2B11422   8.217  14.347   6.597  0.1992  0.2101  0.2274
  777loPI   C3B11423   7.911  14.529   6.752 -0.1122  0.0158 -0.1228
  777loPI   C4B11424   7.822  14.667   7.141 -0.0621 -0.1391 -0.0908
  778loPI    C111425  13.792  11.127   5.734  0.0145  0.0965  0.0210
  778loPI    C211426  14.018  11.341   5.482  0.0384 -0.2482 -0.2573
  778loPI    C311427  13.677  11.175   5.354 -0.0624 -0.2428 -0.0016
  778loPI   PO411428  13.743  11.333   5.968 -0.3343 -0.1330  0.0840
  778loPI   GL111429  13.650  11.309   6.282 -0.0696  0.2575  0.0751
  778loPI   GL211430  13.515  10.957   6.262 -0.1796  0.2847  0.3298
  778loPI   C1A11431  13.831  11.550   6.556 -0.0407 -0.0451 -0.2647
  778loPI   C2A11432  13.945  11.712   6.996 -0.2034  0.0864  0.1375
  778loPI   C3A11433  14.110  11.686   7.412  0.0257  0.0098 -0.0012
  778loPI   C4A11434  14.161  11.720   7.904 -0.3687 -0.1447 -0.1839
  778loPI   C5A11435  14.382  11.346   8.074 -0.1033 -0.2651 -0.1893
  778loPI   C6A11436  14.380  10.944   8.219 -0.0387 -0.1087  0.0057
  778loPI   C1B11437  13.425  11.082   6.695  0.0952  0.2054 -0.2433
  778loPI   C2B11438  13.458  11.419   6.957  0.3978  0.0568 -0.1423
  778loPI   C3B11439  13.622  11.606   7.350  0.4028  0.0399  0.1855
  778loPI   C4B11440  13.714  11.857   7.692  0.0690 -0.1191  0.2035
  779loPI    C111441  18.413   0.415   5.456  0.0171  0.0790  0.0546
  779loPI    C211442  18.128   0.248   5.231 -0.0896  0.2618  0.0518
  779loPI    C311443  18.280   0.604   5.130  0.1815  0.1406  0.0222
  779loPI   PO411444  18.481   0.275   5.704 -0.1649 -0.1057 -0.0395
  779loPI   GL111445  18.265   0.381   6.098  0.1553 -0.0041  0.0236
  779loPI   GL211446  18.591   0.603   6.100 -0.0295  0.2325  0.1918
  779loPI   C1A11447  18.409   0.527   6.510  0.0650 -0.3206 -0.1586
  779loPI   C2A11448  18.424   0.563   6.933  0.0216  0.1495  0.5179
  779loPI   C3A11449  18.388   0.694   7.348 -0.0158 -0.1886 -0.2883
  779loPI   C4A11450  18.064   0.455   7.696  0.2654  0.0672  0.3068
  779loPI   C5A11451  17.806   0.431   8.051  0.3499 -0.1007  0.1533
  779loPI   C6A11452  17.700   0.263   8.447 -0.0448  0.0926  0.1394
  779loPI   C1B11453  18.716   0.885   6.333  0.2643  0.1865  0.3088
  779loPI   C2B11454  18.736   0.970   6.726 -0.0559 -0.1129  0.4257
  779loPI   C3B11455  18.743   1.006   7.122  0.0481 -0.0780 -0.4557
  779loPI   C4B11456  18.810   0.965   7.497  0.0602 -0.0704  0.1621
  780loPI    C111457   3.490   2.336   4.917 -0.0703  0.0663  0.0368
  780loPI    C211458   3.203   2.503   4.694 -0.0024  0.0207 -0.0861
  780loPI    C311459   3.418   2.199   4.548 -0.0760 -0.1279  0.1087
  780loPI   PO411460   3.418   2.373   5.160 -0.1172 -0.1149  0.0206
  780loPI   GL111461   3.497   2.428   5.634 -0.1302  0.0504  0.2366
  780loPI   GL211462   3.403   2.117   5.631  0.0394  0.1054  0.3056
  780loPI   C1A11463   3.699   2.486   6.102  0.1721 -0.3985  0.1565
  780loPI   C2A11464   3.656   2.460   6.382  0.0166  0.0594 -0.0759
  780loPI   C3A11465   3.698   2.566   6.847 -0.1540 -0.1386  0.2517
  780loPI   C4A11466   3.414   2.575   7.189 -0.1165 -0.0577  0.2064
  780loPI   C5A11467   3.481   2.690   7.662 -0.3322 -0.0091  0.1672
  780loPI   C6A11468   3.307   2.496   8.071 -0.2647 -0.0803 -0.1276
  780loPI   C1B11469   3.494   1.987   6.165  0.0391  0.0243 -0.0629
  780loPI   C2B11470   3.615   1.858   6.532  0.1465 -0.0192  0.1151
  780loPI   C3B11471   3.797   1.927   6.944  0.3683 -0.0742  0.4072
  780loPI   C4B11472   3.647   2.170   7.256 -0.0507 -0.0206  0.1411
  781loPI    C111473   7.777  17.163   4.585  0.2346  0.1794 -0.0491
  781loPI    C211474   7.748  17.208   4.189  0.1858  0.0636 -0.0588
  781loPI    C311475   7.683  17.520   4.430  0.0909  0.1044 -0.1365
  781loPI   PO411476   7.647  16.985   4.701 -0.1118  0.2776 -0.0078
  781loPI   GL111477   7.463  16.926   5.132  0.0766 -0.0946  0.0362
  781loPI   GL211478   7.345  16.607   5.203 -0.0003 -0.1175  0.1143
  781loPI   C1A11479   7.255  17.080   5.476  0.1008  0.0273  0.0200
  781loPI   C2A11480   7.044  17.061   5.858  0.2537  0.0438  0.1691
  781loPI   C3A11481   7.099  17.163   6.318  0.0924 -0.1035 -0.0870
  781loPI   C4A11482   7.178  17.083   6.780 -0.3100  0.0293  0.0356
  781loPI   C5A11483   7.227  16.654   6.922  0.0950 -0.0395  0.0461
  781loPI   C6A11484   7.249  16.319   7.196 -0.3534 -0.2931 -0.0382
  781loPI   C1B11485   7.247  16.564   5.616 -0.3962  0.1572 -0.0951
  781loPI   C2B11486   7.120  16.523   5.984 -0.1115  0.1561  0.2074
  781loPI   C3B11487   7.089  16.640   6.340 -0.0124 -0.0450  0.1198
  781loPI   C4B11488   6.716  16.591   6.664  0.2524 -0.0058  0.2321
  782loPI    C111489   3.987   6.666   4.988  0.1200 -0.0469  0.3789
  782loPI    C211490   3.827   6.300   4.976  0.0012  0.0122  0.0351
  782loPI    C311491   4.045   6.432   4.668 -0.0215  0.2598  0.1234
  782loPI   PO411492   3.799   6.822   5.113 -0.1261 -0.3084 -0.1466
  782loPI   GL111493   3.932   6.902   5.503  0.0732  0.1150  0.0393
  782loPI   GL211494   4.300   6.996   5.582  0.2803 -0.0317  0.1969
  782loPI   C1A11495   3.726   7.221   5.740  0.2359  0.3033  0.1795
  782loPI   C2A11496   3.752   7.343   6.254 -0.1789 -0.2402 -0.2645
  782loPI   C3A11497   3.592   7.480   6.597 -0.2818 -0.3450  0.1156
  782loPI   C4A11498   3.286   7.356   6.819  0.2636  0.1646  0.1413
  782loPI   C5A11499   3.244   7.421   7.306  0.2492  0.1224  0.1757
  782loPI   C6A11500   3.557   7.302   7.534 -0.1815 -0.3321  0.0864
  782loPI   C1B11501   4.240   7.150   6.087  0.0190  0.0121 -0.0992
  782loPI   C2B11502   4.117   7.052   6.438 -0.0549 -0.2530  0.1358
  782loPI   C3B11503   3.884   6.963   6.799 -0.1687 -0.3483  0.0437
  782loPI   C4B11504   3.752   7.024   7.163  0.1435  0.3636  0.0280
  783loPI    C111505   4.349   4.387   5.000 -0.0419 -0.3631 -0.0430
  783loPI    C211506   3.997   4.565   5.065  0.0914 -0.0781 -0.0847
  783loPI    C311507   4.200   4.641   4.729  0.1947 -0.2396 -0.0597
  783loPI   PO411508   4.551   4.450   5.226  0.3168 -0.0400 -0.0991
  783loPI   GL111509   4.695   4.405   5.635  0.0131  0.0547 -0.1551
  783loPI   GL211510   4.910   4.171   5.585  0.0683  0.1379  0.0113
  783loPI   C1A11511   4.729   4.600   6.071 -0.1399 -0.0331 -0.0463
  783loPI   C2A11512   4.650   4.836   6.402 -0.2115  0.0121  0.3666
  783loPI   C3A11513   4.647   4.999   6.828 -0.2318 -0.3214  0.0968
  783loPI   C4A11514   4.925   4.929   7.238 -0.0690 -0.3554  0.0954
  783loPI   C5A11515   4.977   5.177   7.583 -0.4246  0.0098  0.0468
  783loPI   C6A11516   5.075   5.576   7.772 -0.5333 -0.0491 -0.1427
  783loPI   C1B11517   4.967   4.209   5.975 -0.1650  0.3286 -0.1606
  783loPI   C2B11518   5.041   4.225   6.428  0.0778 -0.0318  0.2026
  783loPI   C3B11519   5.211   4.301   6.841 -0.0243 -0.2671 -0.3830
  783loPI   C4B11520   5.401   4.127   7.194  0.2549  0.0969  0.0820
  784loPI    C111521   2.726   2.428   4.924  0.1663 -0.0578  0.1106
  784loPI    C211522   2.448   2.401   4.637  0.2865  0.1317 -0.0266
  784loPI    C311523   2.608   2.069   4.793  0.0329  0.0226  0.0069
  784loPI   PO411524   2.617   2.704   5.135  0.1570 -0.1738 -0.2872
  784loPI   GL111525   2.428   2.812   5.604  0.1051 -0.1324 -0.1661
  784loPI   GL211526   2.701   2.950   5.653 -0.1300  0.0130 -0.0799
  784loPI   C1A11527   2.250   2.537   5.961  0.0415  0.0367  0.4287
  784loPI   C2A11528   2.250   2.149   6.210  0.0654  0.0625 -0.4504
  784loPI   C3A11529   2.276   1.772   6.535  0.0574 -0.0993 -0.0647
  784loPI   C4A11530   1.990   1.500   6.679  0.0620  0.1350 -0.0558
  784loPI   C5A11531   1.838   1.390   7.041 -0.2886  0.1091  0.1762
  784loPI   C6A11532   2.026   1.068   7.293  0.0327  0.1429 -0.2560
  784loPI   C1B11533   2.713   2.800   6.051  0.3794 -0.1144 -0.2028
  784loPI   C2B11534   2.573   2.516   6.400 -0.0121 -0.0547  0.0099
  784loPI   C3B11535   2.445   2.479   6.808 -0.1211  0.3013  0.2197
  784loPI   C4B11536   2.491   2.368   7.253 -0.1546  0.2868  0.0675
  785loPI    C111537  16.691  16.383   4.949  0.1885  0.1848  0.0813
  785loPI    C211538  16.430  16.485   4.664  0.1251 -0.0652  0.0480
  785loPI    C311539  16.788  16.339   4.564  0.1408 -0.0601  0.0958
  785loPI   PO411540  16.487  16.224   5.149  0.0842  0.1550 -0.0443
  785loPI   GL111541  16.495  16.131   5.579 -0.0245  0.1751 -0.1301
  785loPI   GL211542  16.343  15.784   5.687  0.1970  0.0706  0.5370
  785loPI   C1A11543  16.860  16.166   5.907  0.2571 -0.2131  0.2564
  785loPI   C2A11544  17.029  16.231   6.267  0.3340  0.2351 -0.0461
  785loPI   C3A11545  17.235  16.157   6.702  0.0960 -0.2140 -0.3944
  785loPI   C4A11546  17.190  16.095   7.083 -0.1549  0.1255  0.1029
  785loPI   C5A11547  17.144  16.105   7.526  0.0354 -0.3501  0.0068
  785loPI   C6A11548  17.027  15.830   7.823 -0.0537 -0.4191 -0.0027
  785loPI   C1B11549  16.433  15.960   6.096  0.0674  0.1615 -0.1714
  785loPI   C2B11550  16.229  16.000   6.466  0.0115 -0.0068 -0.0481
  785loPI   C3B11551  16.062  15.845   6.836 -0.1093 -0.1138  0.0216
  785loPI   C4B11552  15.781  15.677   7.121 -0.0543  0.1974 -0.0773
  786loPI    C111553  15.411  10.308   5.732 -0.0627 -0.1089 -0.0219
  786loPI    C211554  15.427  10.423   5.349  0.1920 -0.2010 -0.0411
  786loPI    C311555  15.096  10.487   5.564  0.1683  0.1589 -0.1786
  786loPI   PO411556  15.583  10.094   5.699 -0.1196  0.3122 -0.2977
  786loPI   GL111557  15.687  10.007   6.071  0.0793  0.0708 -0.0375
  786loPI   GL211558  15.752  10.359   6.088 -0.1939 -0.1047 -0.0962
  786loPI   C1A11559  15.815  10.097   6.543  0.2546  0.1733  0.1019
  786loPI   C2A11560  15.858  10.140   7.002  0.1823 -0.1318 -0.0775
  786loPI   C3A11561  15.795   9.760   7.245 -0.3178 -0.3573  0.0223
  786loPI   C4A11562  16.201   9.712   7.409 -0.1659  0.1201  0.0017
  786loPI   C5A11563  16.375   9.405   7.622 -0.0161 -0.0102  0.0277
  786loPI   C6A11564  16.478   9.401   8.102  0.0501 -0.0733  0.1981
  786loPI   C1B11565  15.966  10.583   6.442  0.1927 -0.1110  0.1951
  786loPI   C2B11566  16.062  10.597   6.781 -0.0372 -0.0778 -0.1990
  786loPI   C3B11567  16.035  10.545   7.209  0.1527 -0.1433 -0.0849
  786loPI   C4B11568  15.936  10.236   7.488 -0.1810  0.0184  0.0686
  787loPI    C111569   4.849   1.194   5.197  0.2687  0.1150 -0.0851
  787loPI    C211570   4.762   0.831   5.055 -0.0445  0.1995 -0.1150
  787loPI    C311571   4.785   1.143   4.806 -0.1754  0.2716 -0.0378
  787loPI   PO411572   4.585   1.284   5.339 -0.1955  0.0211 -0.2258
  787loPI   GL111573   4.376   1.326   5.718 -0.2597 -0.0017 -0.1346
  787loPI   GL211574   4.371   1.530   5.857 -0.0894 -0.1189 -0.1119
  787loPI   C1A11575   3.999   1.245   5.870 -0.0087  0.2321 -0.2092
  787loPI   C2A11576   3.887   1.097   6.325 -0.0825  0.0755 -0.0280
  787loPI   C3A11577   3.612   0.907   6.574 -0.2813 -0.1110  0.5514
  787loPI   C4A11578   3.797   0.545   6.853 -0.1414 -0.0034 -0.2434
  787loPI   C5A11579   3.728   0.253   7.171 -0.1618 -0.0539 -0.3391
  787loPI   C6A11580   3.473   0.430   7.551  0.2351  0.2420 -0.0403
  787loPI   C1B11581   4.413   1.325   6.301 -0.1603  0.1271  0.2429
  787loPI   C2B11582   4.426   1.422   6.738  0.4101  0.0875 -0.1503
  787loPI   C3B11583   4.655   1.612   7.134 -0.3561  0.0319 -0.0909
  787loPI   C4B11584   4.390   1.622   7.490  0.1096 -0.0531  0.4295
  788loPI    C111585  16.724  14.329   5.343  0.1954 -0.0963 -0.0196
  788loPI    C211586  16.519  14.186   5.031  0.1624 -0.1970  0.0474
  788loPI    C311587  16.918  14.152   5.041  0.2031  0.1663 -0.1707
  788loPI   PO411588  16.626  14.267   5.633 -0.0001 -0.6254  0.0753
  788loPI   GL111589  16.810  14.195   5.965 -0.1558 -0.1814  0.3059
  788loPI   GL211590  16.927  13.926   6.061 -0.0070 -0.0360 -0.1979
  788loPI   C1A11591  16.947  14.526   6.239  0.0723 -0.1218 -0.0173
  788loPI   C2A11592  16.916  14.762   6.564  0.0398 -0.0848  0.1715
  788loPI   C3A11593  17.136  14.991   6.867 -0.0663 -0.0914 -0.0668
  788loPI   C4A11594  17.226  14.879   7.360 -0.0630  0.0630 -0.0445
  788loPI   C5A11595  17.127  14.717   7.860 -0.3442  0.1332 -0.1951
  788loPI   C6A11596  16.953  14.296   7.880  0.3453 -0.1548 -0.1851
  788loPI   C1B11597  16.995  14.117   6.490 -0.0330 -0.0057  0.2130
  788loPI   C2B11598  17.183  14.363   6.861 -0.2244 -0.1277  0.1726
  788loPI   C3B11599  17.626  14.507   7.153 -0.3452 -0.0817 -0.1497
  788loPI   C4B11600  17.819  14.675   7.409 -0.1904 -0.1943 -0.0293
  789loPI    C111601  16.637   8.104   5.309 -0.2132 -0.1759 -0.1801
  789loPI    C211602  16.673   8.502   5.335  0.1311 -0.2010 -0.2256
  789loPI    C311603  16.322   8.339   5.232 -0.0099  0.0899 -0.2156
  789loPI   PO411604  16.850   7.988   5.573  0.2499 -0.5644  0.0933
  789loPI   GL111605  16.825   8.010   5.994 -0.0419 -0.2040  0.0158
  789loPI   GL211606  16.674   7.680   6.036  0.3375 -0.0541 -0.0825
  789loPI   C1A11607  17.166   8.000   6.290 -0.0273  0.1963 -0.2385
  789loPI   C2A11608  17.174   8.037   6.699  0.4789 -0.1385 -0.4458
  789loPI   C3A11609  16.874   8.107   7.017  0.1803  0.1080 -0.3063
  789loPI   C4A11610  16.984   8.287   7.467 -0.1319 -0.4680 -0.0513
  789loPI   C5A11611  17.193   8.307   7.940 -0.0179 -0.2730 -0.3605
  789loPI   C6A11612  17.596   8.186   8.183  0.0687 -0.2230 -0.0204
  789loPI   C1B11613  16.737   8.003   6.465 -0.1726  0.2500 -0.0011
  789loPI   C2B11614  16.482   8.278   6.571  0.1096 -0.0730 -0.1996
  789loPI   C3B11615  16.533   8.489   6.992 -0.0114  0.1684 -0.0214
  789loPI   C4B11616  16.489   8.571   7.479  0.3447 -0.4737 -0.0009
  790loPI    C111617   1.653  13.664   4.688 -0.1101  0.1098  0.0512
  790loPI    C211618   1.768  13.824   4.340 -0.2465 -0.1080 -0.0962
  790loPI    C311619   2.030  13.619   4.561 -0.1311  0.1223 -0.0160
  790loPI   PO411620   1.486  13.915   4.818  0.1220 -0.1629 -0.0616
  790loPI   GL111621   1.546  14.197   5.200 -0.0392  0.0729  0.1570
  790loPI   GL211622   1.722  14.079   5.303 -0.0018 -0.1576  0.0962
  790loPI   C1A11623   1.230  14.100   5.583  0.3967 -0.0727  0.1623
  790loPI   C2A11624   1.244  14.045   5.968 -0.0187 -0.0140 -0.2269
  790loPI   C3A11625   1.153  14.182   6.383  0.1574 -0.2008 -0.1310
  790loPI   C4A11626   0.953  14.190   6.875  0.0396 -0.2353 -0.1933
  790loPI   C5A11627   0.949  14.334   7.304 -0.0440  0.2066  0.2129
  790loPI   C6A11628   0.776  14.293   7.695 -0.1836  0.2475 -0.3237
  790loPI   C1B11629   1.702  14.135   5.716 -0.1084  0.2751 -0.0862
  790loPI   C2B11630   1.802  14.008   6.065 -0.4108  0.0383 -0.0710
  790loPI   C3B11631   1.843  13.927   6.501  0.1587  0.1033 -0.0960
  790loPI   C4B11632   1.745  13.809   6.901 -0.1135 -0.3713 -0.3222
  791loPI    C111633   4.535  12.963   5.113 -0.0338 -0.1165  0.0670
  791loPI    C211634   4.304  12.917   4.789  0.2281  0.0276 -0.1440
  791loPI    C311635   4.695  12.833   4.770  0.2366 -0.0105  0.1502
  791loPI   PO411636   4.465  12.816   5.318  0.0342 -0.2261  0.1043
  791loPI   GL111637   4.651  12.460   5.468 -0.0953  0.4036  0.3022
  791loPI   GL211638   4.541  12.570   5.767  0.0386 -0.1039  0.1023
  791loPI   C1A11639   4.690  12.125   5.793  0.0337  0.2806 -0.4905
  791loPI   C2A11640   4.761  11.975   6.105  0.0748 -0.2748  0.1592
  791loPI   C3A11641   4.713  12.047   6.541  0.1225 -0.4586 -0.1054
  791loPI   C4A11642   4.729  12.443   6.811  0.0671 -0.2248 -0.0479
  791loPI   C5A11643   4.769  12.544   7.135  0.1113  0.1310 -0.2815
  791loPI   C6A11644   5.088  12.634   7.415  0.2370  0.1879  0.1182
  791loPI   C1B11645   4.482  12.419   6.142  0.0779 -0.2274  0.0414
  791loPI   C2B11646   4.853  12.449   6.271  0.1377  0.0273 -0.1951
  791loPI   C3B11647   5.177  12.576   6.534  0.2077 -0.6035 -0.3508
  791loPI   C4B11648   5.296  12.563   6.964  0.1231 -0.0775  0.4035
  792loPI    C111649   6.716   6.624   5.181  0.0209 -0.0195  0.1721
  792loPI    C211650   6.450   6.576   4.887  0.1389 -0.1890  0.0914
  792loPI    C311651   6.452   6.913   5.102  0.0832 -0.0431 -0.1333
  792loPI   PO411652   6.651   6.437   5.396 -0.2504  0.1580 -0.1877
  792loPI   GL111653   6.876   6.315   5.806 -0.2101 -0.1356  0.0576
  792loPI   GL211654   6.536   6.448   5.938  0.0460  0.1087 -0.0148
  792loPI   C1A11655   7.002   6.481   6.197 -0.1939 -0.1824  0.0096
  792loPI   C2A11656   7.017   6.227   6.520  0.1255 -0.2315 -0.0472
  792loPI   C3A11657   6.813   6.305   6.859 -0.0247  0.0901 -0.1201
  792loPI   C4A11658   6.780   6.160   7.270 -0.1738  0.2636 -0.1607
  792loPI   C5A11659   7.175   5.879   7.338  0.0405 -0.2001 -0.0435
  792loPI   C6A11660   7.485   5.628   7.525  0.2873 -0.1919  0.1909
  792loPI   C1B11661   6.573   6.392   6.390  0.1157 -0.1593  0.2552
  792loPI   C2B11662   6.296   6.372   6.795  0.3518  0.0950 -0.0396
  792loPI   C3B11663   6.125   6.191   7.221 -0.0278  0.0181  0.0578
  792loPI   C4B11664   5.814   5.911   7.430 -0.1143  0.2513  0.0628
  793loPI    C111665  10.837  12.334   5.477  0.1739  0.1755 -0.1334
  793loPI    C211666  10.973  12.077   5.203 -0.2025 -0.1180 -0.0523
  793loPI    C311667  11.115  12.063   5.577 -0.1233 -0.1164 -0.0820
  793loPI   PO411668  10.523  12.298   5.382 -0.0559 -0.3018 -0.2966
  793loPI   GL111669  10.360  12.155   5.677 -0.0385 -0.0142 -0.0143
  793loPI   GL211670  10.560  11.999   5.843  0.1235 -0.1801 -0.0503
  793loPI   C1A11671  10.104  12.057   5.991  0.2245  0.0144 -0.2993
  793loPI   C2A11672  10.091  12.078   6.357  0.0066 -0.0792  0.2332
  793loPI   C3A11673  10.053  12.315   6.769  0.3442  0.0842 -0.1646
  793loPI   C4A11674   9.999  12.306   7.167  0.0415  0.0368 -0.3190
  793loPI   C5A11675   9.721  12.169   7.465 -0.1337 -0.0593 -0.0586
  793loPI   C6A11676   9.580  11.727   7.422  0.2196  0.0175 -0.1395
  793loPI   C1B11677  10.596  12.068   6.326  0.1902  0.3320 -0.0443
  793loPI   C2B11678  10.505  12.100   6.791  0.1323  0.3456  0.3907
  793loPI   C3B11679  10.446  12.177   7.262 -0.1594  0.5002 -0.1036
  793loPI   C4B11680  10.151  12.214   7.640  0.1307 -0.1061  0.2589
  794loPI    C111681  12.728  12.228   5.667 -0.3578  0.0866  0.0221
  794loPI    C211682  12.817  12.189   5.280  0.0729  0.1861  0.1058
  794loPI    C311683  12.515  12.426   5.392 -0.1465  0.0451 -0.1737
  794loPI   PO411684  12.922  12.226   5.781  0.1583  0.1278  0.1762
  794loPI   GL111685  12.791  12.395   6.210 -0.2834 -0.2286  0.2351
  794loPI   GL211686  12.909  12.644   6.058  0.0162 -0.0331 -0.0211
  794loPI   C1A11687  12.724  12.564   6.609  0.1247  0.1069 -0.0745
  794loPI   C2A11688  12.662  12.952   6.909 -0.0454 -0.0289  0.1114
  794loPI   C3A11689  12.577  13.096   7.310  0.2130  0.0145 -0.2792
  794loPI   C4A11690  12.265  13.407   7.432  0.0001 -0.1678 -0.0573
  794loPI   C5A11691  11.865  13.516   7.694  0.2832 -0.0131  0.2703
  794loPI   C6A11692  11.448  13.256   7.567  0.0529 -0.0809 -0.3050
  794loPI   C1B11693  13.228  12.717   6.350  0.0193  0.3286 -0.0319
  794loPI   C2B11694  13.181  12.809   6.771  0.5739  0.4617  0.2384
  794loPI   C3B11695  12.980  12.742   7.194 -0.2238 -0.1884  0.0624
  794loPI   C4B11696  12.862  12.734   7.638 -0.1703 -0.0078  0.1512
  795loPI    C111697  12.303   9.658   5.607  0.1930  0.0171  0.0079
  795loPI    C211698  12.071   9.594   5.288  0.0660 -0.0802  0.1189
  795loPI    C311699  12.389   9.835   5.259  0.0795 -0.1218 -0.0916
  795loPI   PO411700  12.227   9.332   5.749 -0.1044  0.0736  0.0524
  795loPI   GL111701  12.208   9.108   6.102 -0.1417  0.3699 -0.1554
  795loPI   GL211702  12.494   9.136   6.126 -0.0894  0.0659 -0.1055
  795loPI   C1A11703  12.136   9.290   6.582  0.1589 -0.0890 -0.0487
  795loPI   C2A11704  12.093   9.347   7.027  0.1361 -0.1024  0.3667
  795loPI   C3A11705  11.881   9.379   7.411  0.1448 -0.1490  0.1407
  795loPI   C4A11706  11.983   9.243   7.774 -0.0382  0.4056 -0.1352
  795loPI   C5A11707  12.062   8.879   8.066  0.2665 -0.3279  0.3887
  795loPI   C6A11708  11.876   8.653   8.461  0.0811  0.2955 -0.0886
  795loPI   C1B11709  12.830   9.157   6.309 -0.0981  0.1473  0.0456
  795loPI   C2B11710  12.991   9.217   6.649  0.3282 -0.0293 -0.4612
  795loPI   C3B11711  13.430   9.425   6.755  0.0708 -0.0695 -0.2036
  795loPI   C4B11712  13.883   9.585   6.677 -0.0686 -0.2490 -0.0319
  796loPI    C111713  17.084  14.719   5.098  0.0794 -0.0592 -0.0380
  796loPI    C211714  16.897  15.027   4.923  0.0207 -0.0465  0.0466
  796loPI    C311715  17.273  14.938   4.821 -0.0306 -0.0716 -0.1239
  796loPI   PO411716  17.075  14.683   5.290  0.0003 -0.1797  0.1156
  796loPI   GL111717  17.083  14.518   5.701  0.2726 -0.0832 -0.2132
  796loPI   GL211718  17.109  14.850   5.909 -0.0820  0.0431  0.1499
  796loPI   C1A11719  17.385  14.453   6.035  0.1505 -0.3054  0.0216
  796loPI   C2A11720  17.431  14.529   6.475 -0.5416  0.0788 -0.0774
  796loPI   C3A11721  17.599  14.758   6.745  0.3380  0.0319 -0.1876
  796loPI   C4A11722  17.920  14.921   6.989  0.0542 -0.2047  0.1650
  796loPI   C5A11723  18.196  15.147   7.318 -0.3166 -0.1634  0.0646
  796loPI   C6A11724  18.280  15.569   7.559 -0.0358 -0.0963  0.2141
  796loPI   C1B11725  17.012  15.214   5.967  0.0386  0.1198  0.4928
  796loPI   C2B11726  16.830  15.603   6.163  0.2407 -0.2422  0.0891
  796loPI   C3B11727  16.714  15.802   6.468 -0.3016 -0.1862  0.3137
  796loPI   C4B11728  16.689  16.208   6.762  0.2641 -0.1615  0.0029
  797loPI    C111729  16.711  11.668   5.128  0.2137  0.0310 -0.2067
  797loPI    C211730  16.888  11.978   4.948  0.0180  0.0584 -0.3556
  797loPI    C311731  16.664  11.724   4.735  0.1495 -0.1676 -0.2286
  797loPI   PO411732  16.662  11.808   5.351 -0.0503 -0.1408 -0.2594
  797loPI   GL111733  16.697  12.191   5.705 -0.0186 -0.0275 -0.1451
  797loPI   GL211734  16.774  11.986   5.837 -0.4045  0.2086 -0.0609
  797loPI   C1A11735  16.359  12.295   6.025 -0.0321  0.3802  0.0691
  797loPI   C2A11736  16.279  12.185   6.409 -0.3111  0.2868  0.2279
  797loPI   C3A11737  16.300  12.143   6.858  0.0603  0.1805 -0.2127
  797loPI   C4A11738  16.369  12.128   7.243  0.1397  0.0011 -0.4206
  797loPI   C5A11739  16.052  12.093   7.615  0.0613  0.0389 -0.2003
  797loPI   C6A11740  15.929  12.418   7.865 -0.1490 -0.0156 -0.1493
  797loPI   C1B11741  16.739  12.031   6.233 -0.0339  0.1720 -0.1850
  797loPI   C2B11742  16.682  11.850   6.622  0.2602  0.1395 -0.0180
  797loPI   C3B11743  16.848  11.865   7.045 -0.0128  0.1972  0.0358
  797loPI   C4B11744  16.947  12.032   7.517  0.1061  0.2796  0.1487
  798loPI    C111745   9.527  11.150   5.176  0.0539  0.1385 -0.0891
  798loPI    C211746   9.180  11.271   5.018  0.0207 -0.0196 -0.1401
  798loPI    C311747   9.515  11.480   4.951 -0.0747  0.1679 -0.0398
  798loPI   PO411748   9.481  10.991   5.371  0.0742 -0.1068  0.0886
  798loPI   GL111749   9.233  10.947   5.730  0.1716  0.0785 -0.1428
  798loPI   GL211750   9.558  11.161   5.852  0.1215 -0.2160 -0.0185
  798loPI   C1A11751   9.198  10.673   6.038  0.3574  0.3054 -0.0337
  798loPI   C2A11752   9.201  10.285   6.375 -0.0699  0.0572  0.1839
  798loPI   C3A11753   9.321  10.270   6.779  0.1206  0.0080 -0.0017
  798loPI   C4A11754   9.342  10.395   7.242  0.0076 -0.0909  0.0655
  798loPI   C5A11755   9.591  10.344   7.601 -0.1038  0.1627 -0.0539
  798loPI   C6A11756   9.495  10.184   7.965 -0.1825 -0.1268  0.0153
  798loPI   C1B11757   9.657  10.862   6.219 -0.0162  0.3131 -0.0250
  798loPI   C2B11758   9.375  10.821   6.501 -0.3615  0.0649 -0.0610
  798loPI   C3B11759   9.122  10.767   6.826  0.2596  0.2348  0.3058
  798loPI   C4B11760   8.857  10.699   7.193  0.1056 -0.0235 -0.3517
  799loPI    C111761   3.766  17.818   4.788 -0.0648 -0.1345 -0.0842
  799loPI    C211762   3.684  17.923   4.411 -0.1009  0.3768  0.0584
  799loPI    C311763   3.392  17.789   4.650 -0.0768  0.0459 -0.0923
  799loPI   PO411764   3.883  18.029   4.978 -0.0379 -0.2099  0.0291
  799loPI   GL111765   3.973  17.964   5.366  0.2061  0.0270 -0.0136
  799loPI   GL211766   3.748  17.939   5.630  0.2628 -0.0368  0.0246
  799loPI   C1A11767   4.112  17.807   5.860 -0.4260 -0.1817 -0.1221
  799loPI   C2A11768   4.302  17.794   6.302  0.0429 -0.1694 -0.2762
  799loPI   C3A11769   4.340  17.604   6.666  0.0182 -0.2598 -0.0699
  799loPI   C4A11770   4.173  17.597   7.025 -0.0417 -0.0466  0.4178
  799loPI   C5A11771   3.931  17.568   7.360  0.1996 -0.0641  0.1682
  799loPI   C6A11772   3.426  17.499   7.477  0.0649  0.3012  0.3179
  799loPI   C1B11773   3.632  18.127   5.941  0.1252  0.2594 -0.0694
  799loPI   C2B11774   3.999  18.178   6.257  0.0002  0.2419 -0.3418
  799loPI   C3B11775   4.312  18.197   6.619  0.0862 -0.1997 -0.2289
  799loPI   C4B11776   4.129  18.100   7.067 -0.0921  0.0844  0.0656
  800loPI    C111777  17.993  13.498   4.936  0.1587 -0.1043 -0.0601
  800loPI    C211778  17.820  13.838   4.816 -0.2109 -0.2613  0.0150
  800loPI    C311779  18.115  13.677   4.600 -0.1734 -0.0030 -0.1307
  800loPI   PO411780  17.704  13.361   5.031 -0.2827 -0.0376  0.0045
  800loPI   GL111781  17.622  13.285   5.441  0.0196  0.0596  0.2553
  800loPI   GL211782  17.487  13.697   5.603 -0.0007 -0.0558  0.0015
  800loPI   C1A11783  17.635  13.304   5.873 -0.2201 -0.0991  0.0383
  800loPI   C2A11784  17.378  13.300   6.301  0.1145 -0.2636 -0.1465
  800loPI   C3A11785  17.315  13.319   6.791 -0.1370 -0.2588  0.0857
  800loPI   C4A11786  17.128  13.169   7.156 -0.2913 -0.1008  0.0532
  800loPI   C5A11787  16.904  12.956   7.423  0.0771 -0.4431  0.1098
  800loPI   C6A11788  16.540  12.798   7.653 -0.0119  0.1495  0.0171
  800loPI   C1B11789  17.490  13.818   6.112 -0.3622 -0.2704 -0.1287
  800loPI   C2B11790  17.368  13.773   6.481  0.1943 -0.2661  0.2512
  800loPI   C3B11791  17.231  13.885   6.919  0.1757 -0.0477 -0.2334
  800loPI   C4B11792  17.195  13.705   7.366  0.0420  0.0134  0.4692
  801loPI    C111793  12.068  14.821   4.785 -0.0065 -0.1197 -0.0562
  801loPI    C211794  12.043  14.775   4.389  0.2330 -0.2328 -0.0604
  801loPI    C311795  12.381  14.679   4.580  0.1304 -0.1476  0.1677
  801loPI   PO411796  11.832  14.773   4.990  0.0857  0.0174 -0.0576
  801loPI   GL111797  11.841  14.575   5.529 -0.1726  0.2418  0.0835
  801loPI   GL211798  11.631  14.316   5.651  0.1799 -0.0386  0.0932
  801loPI   C1A11799  11.877  14.806   5.823 -0.1649 -0.1798 -0.1587
  801loPI   C2A11800  11.849  15.062   6.261 -0.1415  0.1532  0.0832
  801loPI   C3A11801  12.052  15.096   6.612 -0.0714 -0.2417  0.0084
  801loPI   C4A11802  12.134  15.307   6.843 -0.0919  0.1741 -0.3794
  801loPI   C5A11803  12.160  15.376   7.246 -0.0185 -0.1227 -0.0237
  801loPI   C6A11804  12.212  15.522   7.728  0.1332 -0.5458  0.0529
  801loPI   C1B11805  11.693  14.390   6.012  0.0320 -0.3853 -0.0600
  801loPI   C2B11806  11.712  14.602   6.406 -0.0025  0.0255 -0.3092
  801loPI   C3B11807  11.700  14.638   6.893 -0.2787 -0.0012 -0.0956
  801loPI   C4B11808  11.619  14.600   7.352  0.0885  0.4489 -0.1157
  802loPI    C111809   1.323   5.465   5.225  0.3303 -0.0685 -0.1063
  802loPI    C211810   1.173   5.131   5.065 -0.2727  0.1895 -0.1085
  802loPI    C311811   1.281   5.435   4.828  0.1661  0.0484 -0.0989
  802loPI   PO411812   1.314   5.436   5.511 -0.0460 -0.1051 -0.3681
  802loPI   GL111813   1.217   5.522   5.943  0.0996  0.1990 -0.0269
  802loPI   GL211814   1.375   5.823   6.121  0.2289 -0.1325  0.2022
  802loPI   C1A11815   1.022   5.528   6.413 -0.4807 -0.1031  0.0998
  802loPI   C2A11816   0.992   5.594   6.815  0.3335  0.0521  0.1157
  802loPI   C3A11817   1.130   5.467   7.164  0.0010  0.3688 -0.0575
  802loPI   C4A11818   1.445   5.583   7.444 -0.1235 -0.0599 -0.2584
  802loPI   C5A11819   1.515   5.533   7.883 -0.1228  0.1717  0.0299
  802loPI   C6A11820   1.712   5.592   8.247 -0.3397 -0.2895 -0.0895
  802loPI   C1B11821   1.438   5.805   6.588 -0.3230  0.0654 -0.0349
  802loPI   C2B11822   1.397   5.854   7.009  0.0330 -0.0133 -0.0997
  802loPI   C3B11823   1.645   6.018   7.346  0.3985  0.1444 -0.1778
  802loPI   C4B11824   1.789   6.327   7.701  0.1264  0.0312 -0.0411
  803loPI    C111825   2.291   5.237   5.110 -0.0053 -0.0896 -0.0364
  803loPI    C211826   2.192   5.615   5.028 -0.0595 -0.0514  0.1975
  803loPI    C311827   2.219   5.347   4.732 -0.1236  0.1104  0.0430
  803loPI   PO411828   2.397   5.343   5.376  0.0847  0.2263 -0.1819
  803loPI   GL111829   2.247   5.277   5.813 -0.1887  0.0769  0.1561
  803loPI   GL211830   2.055   5.012   5.773  0.2400  0.1957 -0.1313
  803loPI   C1A11831   2.213   5.194   6.288  0.1020 -0.3154  0.2357
  803loPI   C2A11832   2.081   5.139   6.768 -0.1512  0.0312 -0.2795
  803loPI   C3A11833   1.790   5.089   7.158  0.1945 -0.0905 -0.0987
  803loPI   C4A11834   1.659   5.145   7.600 -0.3930  0.1325  0.1855
  803loPI   C5A11835   1.524   4.911   7.824  0.0345 -0.0524  0.3398
  803loPI   C6A11836   1.221   4.731   7.942  0.0228 -0.1083 -0.1098
  803loPI   C1B11837   1.859   4.696   6.106 -0.1178 -0.0335 -0.1800
  803loPI   C2B11838   1.833   4.726   6.559 -0.1446 -0.0706 -0.1909
  803loPI   C3B11839   1.726   4.696   6.894 -0.3539 -0.1929  0.0760
  803loPI   C4B11840   1.774   4.559   7.255 -0.1409 -0.0260 -0.1661
  804loPI    C111841  17.053  15.418   5.192  0.1418  0.0073 -0.0911
  804loPI    C211842  17.343  15.154   5.270  0.0319 -0.0566  0.1078
  804loPI    C311843  17.021  15.173   5.506 -0.1037  0.0472 -0.0830
  804loPI   PO411844  17.274  15.667   5.155  0.1235 -0.0363  0.1854
  804loPI   GL111845  17.622  15.567   5.366  0.1506 -0.0129 -0.0235
  804loPI   GL211846  17.872  15.348   5.325  0.0280  0.0622 -0.0280
  804loPI   C1A11847  17.450  15.407   5.760  0.0197  0.0013 -0.2553
  804loPI   C2A11848  17.722  15.514   6.156  0.0368 -0.3954 -0.0884
  804loPI   C3A11849  17.804  15.499   6.560 -0.1377 -0.1508 -0.1178
  804loPI   C4A11850  17.550  15.320   6.923  0.0563  0.0229 -0.0826
  804loPI   C5A11851  17.701  15.300   7.375  0.0857 -0.0118  0.3433
  804loPI   C6A11852  17.525  15.223   7.818 -0.3767  0.2932 -0.0159
  804loPI   C1B11853  17.957  15.217   5.800  0.0064  0.0422 -0.2657
  804loPI   C2B11854  18.202  15.372   6.150  0.1536  0.1232 -0.0979
  804loPI   C3B11855  18.181  15.173   6.483 -0.1933  0.0077  0.2428
  804loPI   C4B11856  18.352  15.209   6.850  0.1121  0.0573 -0.0141
  805loPI    C111857  16.414   1.610   5.170 -0.1139  0.1096  0.2370
  805loPI    C211858  16.407   1.914   4.909  0.0238  0.0158  0.1223
  805loPI    C311859  16.138   1.619   4.881  0.1800 -0.1119 -0.0587
  805loPI   PO411860  16.392   1.770   5.384  0.1115 -0.1799 -0.2375
  805loPI   GL111861  16.573   1.708   5.815  0.3071  0.2490  0.0509
  805loPI   GL211862  16.704   1.773   6.147 -0.3933 -0.0397 -0.1154
  805loPI   C1A11863  16.167   1.664   6.032 -0.0430 -0.1803  0.2436
  805loPI   C2A11864  16.062   1.436   6.406  0.2821  0.3308 -0.3162
  805loPI   C3A11865  15.802   1.381   6.676 -0.3654 -0.0124  0.2495
  805loPI   C4A11866  15.415   1.427   6.855 -0.0914  0.1588  0.3222
  805loPI   C5A11867  15.124   1.743   6.813  0.5694  0.0682 -0.2764
  805loPI   C6A11868  14.841   1.862   7.126  0.0844  0.0018  0.0327
  805loPI   C1B11869  16.477   1.823   6.471 -0.1255  0.1321  0.1225
  805loPI   C2B11870  16.305   1.535   6.860  0.0661  0.0655  0.1155
  805loPI   C3B11871  16.107   1.196   7.117 -0.1000 -0.0002 -0.1476
  805loPI   C4B11872  16.084   0.723   7.071  0.3203  0.3139 -0.5780
  806loPI    C111873  11.495   4.229   5.236 -0.0273  0.0167 -0.4233
  806loPI    C211874  11.607   4.602   5.326 -0.1050 -0.1111  0.2555
  806loPI    C311875  11.884   4.321   5.262 -0.0475  0.0169 -0.0795
  806loPI   PO411876  11.220   4.282   5.418 -0.1319  0.0642  0.3157
  806loPI   GL111877  11.207   4.237   5.869  0.4202 -0.1063  0.4223
  806loPI   GL211878  11.569   4.040   5.807  0.0595 -0.0132  0.1641
  806loPI   C1A11879  11.221   3.850   6.343  0.0016 -0.2739  0.2055
  806loPI   C2A11880  11.206   3.653   6.715  0.3346 -0.1516  0.2233
  806loPI   C3A11881  11.214   3.774   7.063 -0.2151  0.1329  0.3098
  806loPI   C4A11882  11.198   4.098   7.393 -0.1707 -0.0121 -0.0594
  806loPI   C5A11883  11.061   4.201   7.827  0.0724  0.1713 -0.0755
  806loPI   C6A11884  10.679   4.396   7.946  0.0476 -0.4174 -0.2751
  806loPI   C1B11885  11.697   3.871   6.206 -0.0420  0.3068 -0.1659
  806loPI   C2B11886  11.670   3.829   6.735  0.1616 -0.0731  0.1219
  806loPI   C3B11887  11.769   3.784   7.171 -0.0593 -0.0163 -0.0447
  806loPI   C4B11888  11.975   3.530   7.389  0.0271  0.1236 -0.0298
  807loPI    C111889   4.782   5.531   5.418 -0.1512  0.0811 -0.0443
  807loPI    C211890   4.511   5.741   5.211 -0.1195  0.0424 -0.1258
  807loPI    C311891   4.681   5.900   5.537 -0.1396  0.1198 -0.1527
  807loPI   PO411892   4.651   5.342   5.513  0.0676  0.2413 -0.1182
  807loPI   GL111893   4.420   5.198   5.866 -0.0367 -0.1929  0.2159
  807loPI   GL211894   4.365   4.878   5.930  0.2012  0.0052 -0.0237
  807loPI   C1A11895   4.250   5.212   6.358 -0.1430 -0.3779 -0.0323
  807loPI   C2A11896   4.183   5.186   6.773 -0.2379  0.1395  0.0243
  807loPI   C3A11897   4.334   5.145   7.234 -0.3009  0.0850 -0.1232
  807loPI   C4A11898   4.244   5.289   7.563 -0.0975  0.0453 -0.2259
  807loPI   C5A11899   4.457   5.446   7.872 -0.2444  0.0532 -0.0782
  807loPI   C6A11900   4.589   5.702   7.671  0.0309 -0.1680 -0.1002
  807loPI   C1B11901   4.170   4.743   6.371 -0.1237 -0.1506 -0.0728
  807loPI   C2B11902   4.262   4.672   6.819  0.2552  0.1932  0.0635
  807loPI   C3B11903   4.049   4.766   7.130 -0.0684 -0.1539 -0.1630
  807loPI   C4B11904   4.150   4.779   7.565  0.0055 -0.0747  0.1307
  808loPI    C111905  18.204   8.629   5.528  0.0506 -0.2355  0.1873
  808loPI    C211906  17.897   8.734   5.293  0.2365  0.2134  0.1347
  808loPI    C311907  18.164   8.464   5.166  0.1543  0.2102 -0.0337
  808loPI   PO411908  18.192   8.904   5.695  0.1415  0.1120 -0.1030
  808loPI   GL111909  18.163   8.973   6.126  0.0190  0.1794 -0.1567
  808loPI   GL211910  18.124   9.331   6.130  0.2113 -0.1942  0.2264
  808loPI   C1A11911  18.194   8.790   6.502 -0.2101  0.0753  0.0419
  808loPI   C2A11912  18.383   8.917   6.803 -0.1460 -0.3911 -0.0116
  808loPI   C3A11913  18.557   8.711   7.242 -0.1561  0.0989 -0.1628
  808loPI   C4A11914  18.743   8.338   7.639  0.1187 -0.0665  0.3990
  808loPI   C5A11915  18.712   7.882   7.775  0.1052  0.0436  0.1047
  808loPI   C6A11916  18.449   7.586   7.703 -0.0653  0.0616  0.2791
  808loPI   C1B11917  18.227   9.410   6.542  0.1068  0.0253  0.1469
  808loPI   C2B11918  18.317   9.373   6.994 -0.3857 -0.2034 -0.0962
  808loPI   C3B11919  18.409   9.334   7.403 -0.0383  0.1826  0.2320
  808loPI   C4B11920  18.518   9.037   7.617  0.2161 -0.1318 -0.0662
  809loPI    C111921   2.198   3.639   5.143 -0.2560 -0.1039  0.0604
  809loPI    C211922   2.477   3.655   4.857 -0.1250  0.2866  0.2029
  809loPI    C311923   2.090   3.670   4.760 -0.1014 -0.1760  0.0100
  809loPI   PO411924   2.453   3.698   5.372 -0.1398 -0.4268 -0.0271
  809loPI   GL111925   2.761   3.742   5.787  0.0260  0.0578  0.1982
  809loPI   GL211926   2.646   3.419   5.756  0.0501 -0.0120 -0.0010
  809loPI   C1A11927   2.813   3.787   6.252 -0.3841 -0.1324 -0.0688
  809loPI   C2A11928   2.726   3.536   6.636  0.1113  0.1651 -0.2187
  809loPI   C3A11929   2.909   3.471   7.090  0.0881 -0.0230  0.4684
  809loPI   C4A11930   2.766   3.262   7.399  0.1240  0.0173 -0.0421
  809loPI   C5A11931   2.746   3.222   7.812 -0.1081 -0.0920  0.2645
  809loPI   C6A11932   2.619   3.401   8.113 -0.0714  0.2576  0.0761
  809loPI   C1B11933   2.700   3.298   6.171 -0.0121  0.1082 -0.2392
  809loPI   C2B11934   2.602   3.026   6.492 -0.0894 -0.0997 -0.0030
  809loPI   C3B11935   2.609   3.084   6.948  0.0294 -0.1222  0.0651
  809loPI   C4B11936   2.533   2.807   7.245 -0.0416 -0.0249  0.1564
  810loPI    C111937  12.924   5.119   5.348  0.2421 -0.0382  0.1987
  810loPI    C211938  12.991   5.160   4.956  0.0239 -0.0576  0.1585
  810loPI    C311939  13.179   5.398   5.217 -0.1906  0.2814  0.0124
  810loPI   PO411940  12.723   4.870   5.308  0.0765 -0.1813 -0.0001
  810loPI   GL111941  12.711   4.612   5.615 -0.1136 -0.4911 -0.3872
  810loPI   GL211942  13.021   4.715   5.636 -0.3825  0.2089 -0.1978
  810loPI   C1A11943  12.715   4.492   6.055  0.0036 -0.4595  0.1409
  810loPI   C2A11944  12.541   4.503   6.427  0.0722  0.1275 -0.0185
  810loPI   C3A11945  12.531   4.590   6.826 -0.0341 -0.0227  0.3315
  810loPI   C4A11946  12.788   4.641   7.116 -0.0457  0.1018 -0.0970
  810loPI   C5A11947  13.140   4.579   7.567 -0.1134  0.3643 -0.0458
  810loPI   C6A11948  13.320   4.861   7.820  0.0329 -0.0661 -0.0991
  810loPI   C1B11949  13.276   4.726   6.007 -0.0275 -0.2580  0.1039
  810loPI   C2B11950  13.182   4.846   6.362  0.1914  0.1142  0.0685
  810loPI   C3B11951  13.227   4.836   6.772 -0.1253  0.1279 -0.0479
  810loPI   C4B11952  13.294   4.858   7.187 -0.2131  0.0877  0.0301
  811loPI    C111953  14.576  13.028   5.198  0.1728  0.0840 -0.2928
  811loPI    C211954  14.572  12.637   5.115 -0.1301  0.0088  0.0499
  811loPI    C311955  14.290  12.876   4.963 -0.0179  0.0738 -0.0580
  811loPI   PO411956  14.649  13.078   5.429 -0.0739 -0.0315 -0.2639
  811loPI   GL111957  14.896  13.202   5.832  0.0278  0.1420 -0.0091
  811loPI   GL211958  15.142  13.483   5.871  0.3091 -0.0744  0.0413
  811loPI   C1A11959  14.941  13.121   6.238 -0.0949 -0.1642  0.2366
  811loPI   C2A11960  15.215  13.031   6.568 -0.1753  0.0029  0.0019
  811loPI   C3A11961  15.505  12.699   6.842 -0.0347 -0.2502  0.0656
  811loPI   C4A11962  15.479  12.344   7.080 -0.0155 -0.1062 -0.2106
  811loPI   C5A11963  15.676  11.952   7.112  0.1922  0.1900  0.4143
  811loPI   C6A11964  15.582  11.553   7.016  0.0825  0.1598  0.0117
  811loPI   C1B11965  15.453  13.401   6.237  0.0312  0.2282 -0.0532
  811loPI   C2B11966  15.501  13.436   6.633 -0.0470  0.0178  0.2817
  811loPI   C3B11967  15.368  13.314   7.000  0.4758  0.0730 -0.4210
  811loPI   C4B11968  15.594  13.305   7.431  0.1636  0.1200  0.1499
  812loPI    C111969   5.604  16.654   4.920 -0.2022  0.0929  0.0010
  812loPI    C211970   5.809  16.849   4.637 -0.2310  0.0288 -0.0644
  812loPI    C311971   5.665  16.483   4.563  0.0585 -0.1331  0.1493
  812loPI   PO411972   5.733  16.625   5.102 -0.2066 -0.3265  0.0256
  812loPI   GL111973   6.045  16.179   5.278 -0.1207  0.1000 -0.3178
  812loPI   GL211974   5.662  16.214   5.317 -0.2224  0.0908  0.0916
  812loPI   C1A11975   6.030  16.518   5.644 -0.4366  0.2974 -0.3646
  812loPI   C2A11976   5.782  16.556   5.996 -0.1640  0.2245  0.2548
  812loPI   C3A11977   5.767  16.461   6.429  0.2875 -0.1914 -0.2815
  812loPI   C4A11978   5.706  16.280   6.797 -0.0135 -0.0841 -0.0957
  812loPI   C5A11979   5.927  16.312   7.181  0.1601 -0.0300  0.0146
  812loPI   C6A11980   5.956  16.652   7.448  0.4153  0.1645  0.0677
  812loPI   C1B11981   5.810  16.004   5.681 -0.4437 -0.0574  0.1776
  812loPI   C2B11982   5.853  16.021   6.082 -0.1344  0.3014 -0.0807
  812loPI   C3B11983   5.997  15.990   6.491  0.2891 -0.2920  0.0308
  812loPI   C4B11984   5.964  15.707   6.785 -0.3070 -0.0157  0.1913
  813loPI    C111985  13.619   5.505   5.577 -0.1853 -0.1796  0.3098
  813loPI    C211986  13.751   5.292   5.265  0.3112  0.3151  0.1657
  813loPI    C311987  13.888   5.214   5.633 -0.0524 -0.0745  0.2258
  813loPI   PO411988  13.524   5.710   5.437 -0.1444 -0.1359 -0.0355
  813loPI   GL111989  13.432   5.948   5.892 -0.0074 -0.2176 -0.0388
  813loPI   GL211990  13.518   6.286   5.899  0.2432  0.0455 -0.0251
  813loPI   C1A11991  13.398   5.733   6.218  0.0775  0.0431 -0.2461
  813loPI   C2A11992  13.170   5.420   6.450  0.5057 -0.2124  0.0076
  813loPI   C3A11993  12.929   5.229   6.657  0.0968  0.0155  0.0213
  813loPI   C4A11994  12.835   5.140   7.084 -0.0370 -0.3015 -0.0659
  813loPI   C5A11995  12.957   5.027   7.513  0.3266 -0.2590  0.1695
  813loPI   C6A11996  12.636   4.839   7.673  0.2200  0.3737 -0.1822
  813loPI   C1B11997  13.474   6.546   6.238 -0.0698  0.2907 -0.1243
  813loPI   C2B11998  13.474   6.809   6.555 -0.1778  0.1301  0.0380
  813loPI   C3B11999  13.560   6.796   7.049  0.0295  0.1479 -0.2104
  813loPI   C4B12000  13.397   6.621   7.497 -0.0453  0.1986 -0.1443
  814loPI    C112001   3.795   0.737   5.154  0.0540  0.2241 -0.0637
  814loPI    C212002   3.910   0.864   4.793  0.3859  0.1564  0.0145
  814loPI    C312003   3.676   1.094   5.020  0.0322  0.1264 -0.3096
  814loPI   PO412004   3.904   0.737   5.381  0.0365  0.1069 -0.0486
  814loPI   GL112005   3.960   0.553   5.708  0.0154 -0.1726 -0.0914
  814loPI   GL212006   3.931   0.221   5.670 -0.0181  0.1690  0.0674
  814loPI   C1A12007   4.113   0.769   6.030  0.3049  0.2146  0.2708
  814loPI   C2A12008   4.317   0.810   6.409  0.0323  0.2729 -0.0475
  814loPI   C3A12009   4.289   0.836   6.771 -0.3487  0.1397 -0.2938
  814loPI   C4A12010   4.642   0.914   7.094 -0.0509 -0.0269 -0.2236
  814loPI   C5A12011   4.502   0.803   7.541 -0.1976  0.0909 -0.2267
  814loPI   C6A12012   4.508   0.271   7.822  0.0955 -0.4251 -0.3394
  814loPI   C1B12013   4.090   0.280   6.088  0.0683  0.0675  0.0738
  814loPI   C2B12014   4.145   0.356   6.541 -0.2498 -0.0085  0.0814
  814loPI   C3B12015   4.260   0.313   6.925 -0.2654 -0.3522  0.2029
  814loPI   C4B12016   4.309   0.544   7.210 -0.0043  0.2094  0.1827
  815loPI    C112017  13.425   7.560   5.297  0.2161 -0.0002 -0.0737
  815loPI    C212018  13.777   7.409   5.181  0.1333 -0.0894 -0.2120
  815loPI    C312019  13.463   7.394   4.935 -0.0689 -0.3598  0.0555
  815loPI   PO412020  13.580   7.643   5.588  0.2757 -0.1895  0.2327
  815loPI   GL112021  13.704   7.508   6.037  0.0846  0.0763  0.1952
  815loPI   GL212022  14.022   7.587   6.007  0.3146 -0.0036  0.1025
  815loPI   C1A12023  13.603   7.551   6.518 -0.2587 -0.0349 -0.0384
  815loPI   C2A12024  13.536   7.621   6.984  0.1074  0.0625  0.2276
  815loPI   C3A12025  13.293   7.752   7.302  0.3401 -0.0768  0.1670
  815loPI   C4A12026  13.356   7.899   7.658 -0.2484 -0.1580 -0.0249
  815loPI   C5A12027  13.059   8.027   7.949 -0.1533 -0.0544  0.0740
  815loPI   C6A12028  12.657   7.679   8.165 -0.1505  0.3547 -0.1628
  815loPI   C1B12029  14.149   7.556   6.352 -0.1863  0.0998 -0.1997
  815loPI   C2B12030  14.115   7.621   6.804  0.2614 -0.2099  0.1963
  815loPI   C3B12031  14.156   7.408   7.116  0.1566  0.1284 -0.0845
  815loPI   C4B12032  14.176   7.175   7.487 -0.1351  0.1460 -0.2536
  816loPI    C112033  18.509   2.148   5.426 -0.0502  0.1294  0.0961
  816loPI    C212034  18.826   2.152   5.184  0.1089  0.1772  0.3020
  816loPI    C312035  18.731   1.818   5.382 -0.2332  0.0294 -0.0962
  816loPI   PO412036  18.543   2.335   5.574  0.0520  0.0340  0.1867
  816loPI   GL112037  18.616   2.389   5.975  0.1687 -0.0294 -0.0686
  816loPI   GL212038  18.844   2.197   6.188 -0.2771  0.0816  0.0721
  816loPI   C1A12039  18.353   2.468   6.301  0.1482  0.0056  0.0510
  816loPI   C2A12040  17.956   2.532   6.448  0.3116  0.0701 -0.2972
  816loPI   C3A12041  17.799   2.270   6.826  0.0732  0.1469 -0.0458
  816loPI   C4A12042  17.764   2.276   7.317 -0.2666  0.1963 -0.2042
  816loPI   C5A12043  17.518   2.221   7.737 -0.1154  0.1716  0.1231
  816loPI   C6A12044  17.416   1.817   7.863 -0.0783  0.4035  0.1895
  816loPI   C1B12045  18.652   2.270   6.640  0.1303  0.4083  0.0589
  816loPI   C2B12046  18.648   2.408   7.043  0.1087 -0.1964  0.0279
  816loPI   C3B12047  18.547   2.618   7.337 -0.2525  0.2705  0.2034
  816loPI   C4B12048  18.412   2.671   7.736  0.0770 -0.4203  0.0326
  817loPI    C112049  15.366  14.438   5.355  0.0782 -0.0706  0.0954
  817loPI    C212050  15.297  14.199   5.042  0.1844 -0.0637  0.0665
  817loPI    C312051  15.606  14.452   5.036  0.1952 -0.0734  0.1828
  817loPI   PO412052  15.359  14.375   5.539  0.2497 -0.1921 -0.0127
  817loPI   GL112053  15.217  14.210   5.845  0.3107 -0.3958 -0.0631
  817loPI   GL212054  15.146  14.440   6.018 -0.0407 -0.1186  0.0859
  817loPI   C1A12055  15.115  13.920   6.161 -0.2479 -0.1603  0.3872
  817loPI   C2A12056  15.284  13.867   6.462 -0.1053 -0.1080 -0.1603
  817loPI   C3A12057  15.336  13.906   6.852 -0.0340  0.3600 -0.1073
  817loPI   C4A12058  15.059  13.664   7.162  0.1960 -0.2909  0.0574
  817loPI   C5A12059  15.174  13.548   7.531  0.2597 -0.0552  0.2240
  817loPI   C6A12060  15.413  13.739   7.854 -0.3597 -0.1059 -0.3370
  817loPI   C1B12061  15.168  14.358   6.446  0.0473  0.0603  0.0767
  817loPI   C2B12062  15.186  14.500   6.854  0.0017 -0.1983  0.2678
  817loPI   C3B12063  15.291  14.348   7.118 -0.3014 -0.1019 -0.0095
  817loPI   C4B12064  15.213  14.548   7.531 -0.1451  0.1057  0.0400
  818loPI    C112065   8.157  12.032   5.447  0.0206 -0.2592 -0.1107
  818loPI    C212066   8.483  11.979   5.672 -0.0116 -0.2428 -0.0601
  818loPI    C312067   8.440  11.774   5.331  0.0424 -0.2595 -0.0570
  818loPI   PO412068   7.873  12.180   5.425 -0.0683 -0.1429 -0.0057
  818loPI   GL112069   7.550  12.091   5.717 -0.1585  0.1126  0.0299
  818loPI   GL212070   7.394  11.730   5.684 -0.1071 -0.0020 -0.1611
  818loPI   C1A12071   7.504  12.144   6.121 -0.0230  0.2387 -0.0631
  818loPI   C2A12072   7.470  12.309   6.513 -0.1581 -0.0166 -0.3299
  818loPI   C3A12073   7.458  12.381   6.900  0.0166  0.0726  0.2067
  818loPI   C4A12074   7.692  12.305   7.225  0.3607  0.0134 -0.3161
  818loPI   C5A12075   7.925  11.998   7.454 -0.0635 -0.2162  0.1941
  818loPI   C6A12076   8.045  11.727   7.837  0.0180 -0.2856 -0.0374
  818loPI   C1B12077   7.263  11.755   6.148 -0.0438  0.0699 -0.1677
  818loPI   C2B12078   7.128  11.941   6.396 -0.3632 -0.0906  0.1753
  818loPI   C3B12079   7.134  11.861   6.861 -0.2114  0.0114  0.0351
  818loPI   C4B12080   6.927  11.962   7.278  0.0689  0.1568  0.2309
  819loPI    C112081   8.299   4.230   4.847  0.0700  0.2463  0.1406
  819loPI    C212082   8.351   3.974   4.545 -0.1983  0.0492  0.2569
  819loPI    C312083   8.623   3.996   4.837 -0.0088  0.1390  0.0769
  819loPI   PO412084   8.090   4.228   4.953  0.0805 -0.1727 -0.1219
  819loPI   GL112085   7.969   4.325   5.391  0.0933 -0.0262  0.0175
  819loPI   GL212086   8.157   4.545   5.571 -0.0115 -0.0069 -0.1929
  819loPI   C1A12087   7.793   4.168   5.764  0.2850 -0.2032  0.3312
  819loPI   C2A12088   7.764   4.122   6.270  0.1083 -0.0091  0.1609
  819loPI   C3A12089   7.806   3.962   6.638 -0.0851  0.0755 -0.2352
  819loPI   C4A12090   7.771   3.911   7.075 -0.1192  0.1657  0.0051
  819loPI   C5A12091   7.841   3.971   7.437 -0.1860 -0.2519  0.0070
  819loPI   C6A12092   7.626   3.824   7.768  0.4697 -0.0143 -0.2534
  819loPI   C1B12093   7.990   4.563   5.978 -0.0461 -0.1295 -0.1328
  819loPI   C2B12094   7.855   4.562   6.449 -0.0980 -0.0618 -0.0635
  819loPI   C3B12095   7.600   4.444   6.868  0.0841  0.1028  0.1345
  819loPI   C4B12096   7.391   4.231   7.186 -0.0329  0.1391 -0.2639
  820loPI    C112097   0.751  11.583   5.068 -0.1802 -0.0552  0.0204
  820loPI    C212098   0.802  11.289   4.802 -0.1769 -0.1289  0.1023
  820loPI    C312099   0.644  11.638   4.686 -0.0974 -0.1310 -0.0139
  820loPI   PO412100   0.775  11.367   5.344 -0.0313  0.3923  0.0794
  820loPI   GL112101   0.779  10.981   5.637 -0.2131 -0.1046  0.2316
  820loPI   GL212102   1.168  10.817   5.633 -0.2545  0.0999 -0.1762
  820loPI   C1A12103   0.650  10.968   5.969  0.2229 -0.1200  0.2234
  820loPI   C2A12104   0.557  11.179   6.276 -0.2068  0.1564 -0.1812
  820loPI   C3A12105   0.486  11.287   6.701  0.2985  0.0325 -0.0453
  820loPI   C4A12106   0.461  11.544   7.070  0.0673  0.1672  0.0075
  820loPI   C5A12107   0.199  11.557   7.478  0.1030  0.1335  0.0308
  820loPI   C6A12108   0.023  11.697   7.901  0.4376  0.2013 -0.1866
  820loPI   C1B12109   1.136  10.753   6.101 -0.1081  0.2725  0.1714
  820loPI   C2B12110   0.952  10.810   6.427 -0.0451  0.3480  0.0125
  820loPI   C3B12111   0.874  10.884   6.835 -0.1827  0.3079  0.3150
  820loPI   C4B12112   0.834  10.986   7.228  0.0481 -0.0264 -0.1454
  821loPI    C112113  14.893  13.500   5.402  0.0110 -0.1771  0.0937
  821loPI    C212114  14.969  13.728   5.082 -0.0221 -0.4041 -0.0782
  821loPI    C312115  14.946  13.330   5.044 -0.7236 -0.3913  0.0713
  821loPI   PO412116  14.800  13.653   5.536 -0.3343 -0.2004  0.0834
  821loPI   GL112117  14.736  13.755   5.886  0.0017 -0.0160  0.3896
  821loPI   GL212118  14.697  14.069   6.004  0.2946 -0.1341 -0.3033
  821loPI   C1A12119  14.782  13.582   6.255  0.0290 -0.0771 -0.2480
  821loPI   C2A12120  14.876  13.636   6.673  0.0096  0.4502 -0.0566
  821loPI   C3A12121  14.878  13.256   6.860  0.1790 -0.4909 -0.4225
  821loPI   C4A12122  14.905  13.202   7.265 -0.2567 -0.1216 -0.1328
  821loPI   C5A12123  14.619  13.081   7.600 -0.0445 -0.0453 -0.1437
  821loPI   C6A12124  14.283  12.857   7.780 -0.2189 -0.0244 -0.1005
  821loPI   C1B12125  14.691  14.006   6.444 -0.1054  0.1609  0.2077
  821loPI   C2B12126  14.868  14.137   6.845 -0.1386  0.3070  0.1315
  821loPI   C3B12127  14.585  14.113   7.280  0.2058  0.0370  0.1988
  821loPI   C4B12128  14.537  14.069   7.744  0.2032 -0.2602  0.0567
  822loPI    C112129  14.560  10.381   5.698 -0.0795 -0.0857 -0.0589
  822loPI    C212130  14.607  10.137   5.385 -0.2330 -0.1993  0.0052
  822loPI    C312131  14.279  10.363   5.414 -0.1045 -0.0041 -0.0398
  822loPI   PO412132  14.693  10.165   5.873  0.1764  0.0112 -0.0557
  822loPI   GL112133  14.883  10.349   6.167 -0.3276  0.0186  0.1191
  822loPI   GL212134  15.223  10.269   6.266 -0.0231 -0.2065 -0.1485
  822loPI   C1A12135  14.706  10.355   6.615 -0.3630 -0.2333  0.0041
  822loPI   C2A12136  14.609  10.265   7.049  0.2085 -0.0000  0.0563
  822loPI   C3A12137  14.748  10.080   7.484 -0.0172 -0.0538 -0.3885
  822loPI   C4A12138  15.026   9.966   7.812 -0.1054  0.2087  0.3912
  822loPI   C5A12139  14.947   9.650   8.138 -0.2346  0.0380  0.1353
  822loPI   C6A12140  14.852   9.344   8.502  0.0521  0.1453 -0.0669
  822loPI   C1B12141  15.188  10.289   6.625 -0.0942  0.1716  0.1395
  822loPI   C2B12142  15.075  10.315   7.095 -0.3086  0.1590  0.3016
  822loPI   C3B12143  15.058  10.507   7.466  0.0366 -0.0039 -0.1911
  822loPI   C4B12144  14.844  10.413   7.838  0.2129  0.0491 -0.3687
  823loPI    C112145   5.625  13.508   5.080 -0.1204  0.0751  0.1851
  823loPI    C212146   5.992  13.354   5.123 -0.0689  0.1262 -0.0539
  823loPI    C312147   5.671  13.117   5.151 -0.0022  0.0223 -0.1605
  823loPI   PO412148   5.654  13.723   5.240  0.1046 -0.0313  0.0297
  823loPI   GL112149   5.912  13.811   5.507 -0.1761  0.1943 -0.2114
  823loPI   GL212150   6.175  13.733   5.361 -0.1138  0.0799  0.0324
  823loPI   C1A12151   5.940  13.893   5.915  0.1430  0.1900  0.1255
  823loPI   C2A12152   5.932  13.861   6.441 -0.0638 -0.0322  0.2241
  823loPI   C3A12153   5.982  13.817   6.933 -0.0659  0.2864  0.4314
  823loPI   C4A12154   5.970  13.783   7.358 -0.0776 -0.1209 -0.0116
  823loPI   C5A12155   5.720  14.129   7.620 -0.0096 -0.2547  0.2052
  823loPI   C6A12156   5.383  14.139   7.911  0.1633 -0.1715 -0.0664
  823loPI   C1B12157   6.326  13.668   5.713 -0.0229 -0.2623 -0.0779
  823loPI   C2B12158   6.329  13.623   6.144 -0.2160 -0.1010 -0.3492
  823loPI   C3B12159   6.391  13.613   6.610  0.0898  0.1303  0.1022
  823loPI   C4B12160   6.664  13.706   7.068  0.1233  0.0749  0.0567
  824loPI    C112161   8.005  13.595   5.058  0.1060 -0.0029 -0.0387
  824loPI    C212162   8.232  13.908   4.954 -0.2475  0.2688 -0.0124
  824loPI    C312163   7.985  13.743   4.687  0.0949 -0.1344 -0.0908
  824loPI   PO412164   7.947  13.676   5.359 -0.0760  0.1783 -0.0775
  824loPI   GL112165   7.577  13.862   5.510 -0.1810 -0.3415  0.1269
  824loPI   GL212166   7.852  13.848   5.778 -0.0092  0.0795 -0.1400
  824loPI   C1A12167   7.346  13.707   5.851 -0.2281  0.2680  0.0849
  824loPI   C2A12168   7.308  13.483   6.181 -0.1252  0.5183  0.0205
  824loPI   C3A12169   7.362  13.264   6.504 -0.0256  0.0421 -0.0616
  824loPI   C4A12170   7.456  12.871   6.702 -0.0455 -0.1150  0.2719
  824loPI   C5A12171   7.295  12.836   7.169 -0.0296 -0.0953 -0.0130
  824loPI   C6A12172   7.494  12.748   7.592  0.2822  0.2293 -0.1756
  824loPI   C1B12173   7.835  13.774   6.113  0.0619 -0.0866  0.2110
  824loPI   C2B12174   7.728  13.600   6.447 -0.1519  0.1087 -0.1691
  824loPI   C3B12175   7.694  13.502   6.909  0.0348 -0.0532 -0.1663
  824loPI   C4B12176   7.557  13.235   7.042  0.0469 -0.3715  0.1513
  825loPI    C112177   7.578  13.312   5.412 -0.0305  0.1041  0.0898
  825loPI    C212178   7.365  13.142   5.119  0.0297  0.0077  0.1016
  825loPI    C312179   7.187  13.388   5.379 -0.0823 -0.1274  0.1535
  825loPI   PO412180   7.811  13.210   5.339  0.0124  0.0133  0.2036
  825loPI   GL112181   8.075  13.332   5.744  0.0716 -0.1564  0.3804
  825loPI   GL212182   8.167  13.467   5.936 -0.4468 -0.3817  0.0807
  825loPI   C1A12183   7.721  13.339   5.952  0.3644  0.1016 -0.0556
  825loPI   C2A12184   7.555  13.010   6.108  0.0631 -0.3083 -0.1624
  825loPI   C3A12185   7.362  12.664   6.138 -0.1110 -0.1352  0.0442
  825loPI   C4A12186   7.042  12.426   6.319 -0.2614 -0.0079 -0.1361
  825loPI   C5A12187   6.928  12.336   6.714 -0.1305 -0.1069 -0.1658
  825loPI   C6A12188   6.982  12.461   7.125 -0.0392 -0.0602  0.2095
  825loPI   C1B12189   8.057  13.190   6.285 -0.0248 -0.3866  0.0553
  825loPI   C2B12190   8.019  13.207   6.701  0.3227  0.3345  0.1340
  825loPI   C3B12191   8.091  13.264   7.085  0.0891  0.1465 -0.1201
  825loPI   C4B12192   8.410  13.203   7.426  0.1691 -0.2567 -0.0294
  826loPI    C112193   8.477  15.752   4.859 -0.0476 -0.2571 -0.2074
  826loPI    C212194   8.736  15.507   4.679 -0.0910 -0.3136 -0.1933
  826loPI    C312195   8.424  15.653   4.476 -0.1762 -0.4292 -0.1463
  826loPI   PO412196   8.417  15.649   5.085 -0.0787 -0.0917  0.2205
  826loPI   GL112197   8.485  15.621   5.577 -0.2317  0.2551  0.2459
  826loPI   GL212198   8.352  15.863   5.505  0.0884 -0.1610 -0.0994
  826loPI   C1A12199   8.543  15.407   6.042  0.0637  0.2487  0.0287
  826loPI   C2A12200   8.591  15.325   6.447 -0.1264 -0.1097 -0.0475
  826loPI   C3A12201   8.532  15.452   6.845  0.0121 -0.0206  0.0468
  826loPI   C4A12202   8.514  15.581   7.370  0.3687  0.6268  0.1168
  826loPI   C5A12203   8.532  15.891   7.703  0.0205  0.1375  0.2908
  826loPI   C6A12204   8.379  16.332   7.888 -0.0235  0.0019  0.2561
  826loPI   C1B12205   8.348  15.904   5.903  0.0944  0.2824  0.0911
  826loPI   C2B12206   8.313  15.910   6.291  0.2002 -0.0162 -0.1562
  826loPI   C3B12207   8.214  15.841   6.676  0.1211 -0.0564  0.1410
  826loPI   C4B12208   8.100  15.779   7.128 -0.2734 -0.1150  0.2547
  827loPI    C112209  18.345  15.502   5.556  0.2913 -0.1176 -0.1035
  827loPI    C212210  18.306  15.550   5.161 -0.2840  0.2009 -0.0198
  827loPI    C312211  18.477  15.837   5.381  0.2742 -0.0882 -0.0606
  827loPI   PO412212  18.523  15.276   5.551 -0.1474  0.1374 -0.1837
  827loPI   GL112213  18.572  14.968   5.901 -0.1180 -0.0868 -0.0557
  827loPI   GL212214  18.732  15.062   6.012 -0.2085 -0.5413  0.1515
  827loPI   C1A12215  18.272  14.797   6.162 -0.0260  0.0043  0.2419
  827loPI   C2A12216  18.091  14.559   6.543  0.0746  0.1507  0.0098
  827loPI   C3A12217  18.150  14.385   6.911 -0.0066 -0.0164 -0.0488
  827loPI   C4A12218  18.157  14.322   7.310 -0.1267  0.2393  0.0033
  827loPI   C5A12219  18.171  13.899   7.531  0.0379  0.0561  0.2105
  827loPI   C6A12220  18.181  13.532   7.893 -0.2569 -0.3993 -0.0105
  827loPI   C1B12221  18.634  14.947   6.448  0.2107  0.4054 -0.0283
  827loPI   C2B12222  18.541  14.752   6.758 -0.1274  0.3169 -0.2190
  827loPI   C3B12223  18.441  14.744   7.124 -0.3168 -0.0202  0.0373
  827loPI   C4B12224  18.437  14.765   7.562 -0.1432 -0.0770 -0.3545
  828loPI    C112225  13.086  14.040   4.870 -0.0764 -0.0003 -0.2917
  828loPI    C212226  13.088  13.742   5.136 -0.2652 -0.0850 -0.3836
  828loPI    C312227  13.204  13.674   4.760  0.0257  0.0405 -0.3194
  828loPI   PO412228  12.938  14.222   4.988 -0.0391  0.0325 -0.6634
  828loPI   GL112229  12.986  14.413   5.393 -0.0279  0.4186 -0.2018
  828loPI   GL212230  13.121  14.088   5.462  0.0379  0.3777 -0.3166
  828loPI   C1A12231  12.937  14.377   5.854  0.2390  0.2116 -0.1545
  828loPI   C2A12232  12.882  14.260   6.209 -0.0946  0.0232 -0.1567
  828loPI   C3A12233  12.652  14.277   6.625 -0.0158 -0.1899 -0.3397
  828loPI   C4A12234  12.542  14.402   7.112  0.0900  0.2378 -0.1858
  828loPI   C5A12235  12.290  14.394   7.564 -0.0910 -0.1859  0.0313
  828loPI   C6A12236  11.907  14.498   7.802  0.1066 -0.0264  0.2651
  828loPI   C1B12237  13.306  14.055   5.868  0.1161 -0.3807 -0.3069
  828loPI   C2B12238  13.297  13.974   6.325  0.0843 -0.0558  0.0390
  828loPI   C3B12239  13.341  13.744   6.742 -0.2093 -0.1355 -0.2567
  828loPI   C4B12240  13.277  13.770   7.215  0.3804 -0.0309 -0.0347
  829loPI    C112241   8.773  18.610   4.822 -0.1733  0.2851  0.1920
  829loPI    C212242   8.621  18.761   4.484  0.2139  0.0608 -0.0903
  829loPI    C312243   8.965  18.903   4.629  0.1736 -0.0104  0.0780
  829loPI   PO412244   8.602  18.674   4.989 -0.1339  0.1300  0.2017
  829loPI   GL112245   8.430  18.916   5.222 -0.1088  0.3818 -0.2152
  829loPI   GL212246   8.316  19.241   5.278 -0.0141  0.1091  0.0063
  829loPI   C1A12247   8.181  18.709   5.553  0.0894  0.2786 -0.0055
  829loPI   C2A12248   8.234  18.595   6.046 -0.1206 -0.3203  0.2878
  829loPI   C3A12249   7.922  18.579   6.428 -0.0178  0.0034 -0.0819
  829loPI   C4A12250   7.691  18.380   6.832  0.1258 -0.2106 -0.1349
  829loPI   C5A12251   7.785  17.971   7.120 -0.0593  0.3231  0.0574
  829loPI   C6A12252   7.986  17.789   7.426  0.0023  0.1769 -0.1264
  829loPI   C1B12253   8.383  19.230   5.702 -0.2066 -0.3013  0.2416
  829loPI   C2B12254   8.349  19.099   6.091 -0.0328  0.1536 -0.0507
  829loPI   C3B12255   8.190  19.021   6.514  0.1366  0.0259 -0.1566
  829loPI   C4B12256   7.894  18.833   6.886  0.1207  0.0659 -0.0196
  830loPI    C112257  10.713  16.287   5.052 -0.0061 -0.0695  0.0127
  830loPI    C212258  10.944  16.230   4.731  0.0497 -0.1529  0.0673
  830loPI    C312259  10.680  16.530   4.736  0.1416 -0.0700 -0.0040
  830loPI   PO412260  10.884  16.291   5.223  0.2113  0.1424 -0.0599
  830loPI   GL112261  10.888  16.484   5.604  0.3842  0.2712  0.0088
  830loPI   GL212262  11.250  16.553   5.667  0.0700  0.0939  0.3677
  830loPI   C1A12263  10.903  16.707   5.999 -0.1208 -0.4337  0.1743
  830loPI   C2A12264  10.894  16.679   6.437  0.0111 -0.1157  0.2612
  830loPI   C3A12265  10.622  16.683   6.737  0.0572 -0.0090 -0.1104
  830loPI   C4A12266  10.475  16.661   7.142 -0.1175  0.0912  0.1576
  830loPI   C5A12267  10.334  16.666   7.591 -0.0423 -0.0561 -0.0137
  830loPI   C6A12268  10.013  16.630   7.945  0.2600  0.1172  0.0262
  830loPI   C1B12269  11.224  16.345   6.083  0.2851  0.3485 -0.4054
  830loPI   C2B12270  11.031  16.110   6.424 -0.0617  0.0925  0.4439
  830loPI   C3B12271  10.873  16.288   6.903  0.0483  0.1593  0.2103
  830loPI   C4B12272  10.814  16.170   7.213 -0.0274 -0.1279  0.3618
  831loPI    C112273  10.872   5.228   5.632  0.1097 -0.1326  0.1979
  831loPI    C212274  11.041   5.272   5.272 -0.0273 -0.0866  0.1385
  831loPI    C312275  10.643   5.281   5.309 -0.0043  0.2838  0.3413
  831loPI   PO412276  10.910   5.498   5.723  0.1747  0.1313  0.1445
  831loPI   GL112277  11.247   5.591   6.100 -0.1582  0.2992  0.0428
  831loPI   GL212278  11.559   5.728   6.047  0.1767  0.0062 -0.0901
  831loPI   C1A12279  11.092   5.745   6.321  0.2735  0.3832 -0.1623
  831loPI   C2A12280  11.248   5.806   6.756  0.2420 -0.1664 -0.3276
  831loPI   C3A12281  11.435   5.937   7.119  0.1640 -0.4663  0.2012
  831loPI   C4A12282  11.525   5.642   7.480  0.0291 -0.0449  0.1092
  831loPI   C5A12283  11.379   5.326   7.726  0.4049  0.1938  0.0625
  831loPI   C6A12284  11.566   5.069   7.837  0.0117  0.0765  0.3806
  831loPI   C1B12285  11.622   5.668   6.442  0.0094 -0.0511  0.0045
  831loPI   C2B12286  11.760   5.670   6.852  0.1385  0.2176  0.1138
  831loPI   C3B12287  11.943   5.839   7.201 -0.1379 -0.0139 -0.1406
  831loPI   C4B12288  11.835   6.061   7.707 -0.0313 -0.0011 -0.0706
  832loPI    C112289   5.595  17.693   4.639 -0.0675 -0.2859 -0.0624
  832loPI    C212290   5.210  17.783   4.579 -0.0473 -0.0409  0.1548
  832loPI    C312291   5.488  17.913   4.323 -0.0919 -0.0846  0.0838
  832loPI   PO412292   5.646  17.703   4.923  0.1053 -0.1941 -0.2566
  832loPI   GL112293   5.871  17.975   5.198  0.4227  0.0240 -0.0461
  832loPI   GL212294   5.728  18.231   5.340  0.0483  0.1878  0.1076
  832loPI   C1A12295   6.300  17.878   5.462  0.0354  0.2070 -0.1895
  832loPI   C2A12296   6.429  17.852   5.899 -0.1240  0.0325 -0.1113
  832loPI   C3A12297   6.409  17.728   6.278  0.3277 -0.1522 -0.0109
  832loPI   C4A12298   6.349  17.539   6.616  0.1285 -0.0600 -0.0859
  832loPI   C5A12299   6.723  17.226   6.723  0.0645  0.0152 -0.1245
  832loPI   C6A12300   6.771  16.978   7.055  0.0082  0.1083  0.4449
  832loPI   C1B12301   5.744  18.513   5.566 -0.1627  0.1721 -0.1202
  832loPI   C2B12302   5.893  18.586   5.984 -0.0204  0.0553  0.1252
  832loPI   C3B12303   5.925  18.528   6.395 -0.1681  0.2894  0.1079
  832loPI   C4B12304   5.921  18.272   6.702  0.2058  0.4548  0.3308
  833loPI    C112305  16.881   2.020   5.445 -0.1627  0.0510 -0.0458
  833loPI    C212306  16.629   2.211   5.200 -0.1835  0.2063  0.0947
  833loPI    C312307  17.020   2.299   5.194 -0.1326 -0.0252 -0.1140
  833loPI   PO412308  17.043   1.789   5.617 -0.0651 -0.0509 -0.0227
  833loPI   GL112309  17.390   1.738   5.966 -0.3787 -0.1231 -0.0791
  833loPI   GL212310  17.237   1.901   6.182 -0.2141 -0.2022 -0.1429
  833loPI   C1A12311  17.466   1.478   6.342 -0.4186  0.0144 -0.2891
  833loPI   C2A12312  17.354   1.416   6.852  0.0327  0.2112 -0.2722
  833loPI   C3A12313  17.461   1.313   7.252  0.0217  0.2214 -0.0212
  833loPI   C4A12314  17.385   0.988   7.529 -0.1312  0.0851 -0.1881
  833loPI   C5A12315  17.354   0.668   7.862  0.2077 -0.2265  0.3110
  833loPI   C6A12316  17.173   0.352   8.009  0.0163 -0.1923 -0.0105
  833loPI   C1B12317  17.345   2.047   6.562  0.1401 -0.1335 -0.4353
  833loPI   C2B12318  17.319   2.126   6.999 -0.1376 -0.1077 -0.0579
  833loPI   C3B12319  17.038   2.158   7.190  0.2403 -0.0297 -0.1862
  833loPI   C4B12320  16.979   2.045   7.681  0.0506  0.1719  0.0489
  834loPI    C112321  12.408  10.493   5.480  0.3505 -0.1657 -0.1909
  834loPI    C212322  12.282  10.641   5.130  0.2391 -0.0108 -0.0866
  834loPI    C312323  12.517  10.317   5.137  0.0844 -0.1298 -0.2963
  834loPI   PO412324  12.203  10.654   5.632  0.1988 -0.1382 -0.2261
  834loPI   GL112325  12.227  10.931   5.951  0.1472 -0.3371 -0.0429
  834loPI   GL212326  11.960  10.793   6.057  0.2094  0.1515  0.0176
  834loPI   C1A12327  12.458  10.985   6.301  0.0521 -0.0770 -0.0351
  834loPI   C2A12328  12.760  11.251   6.580 -0.0014 -0.1968  0.1158
  834loPI   C3A12329  12.930  11.141   6.966  0.3399 -0.0501 -0.0480
  834loPI   C4A12330  13.080  11.398   7.426 -0.0722  0.1473  0.2827
  834loPI   C5A12331  13.173  11.763   7.731  0.1437 -0.0075 -0.2660
  834loPI   C6A12332  13.224  12.170   7.929 -0.1468 -0.0258  0.2309
  834loPI   C1B12333  11.968  10.841   6.421  0.0995 -0.1679 -0.2394
  834loPI   C2B12334  11.721  11.020   6.698  0.0462  0.2107  0.1101
  834loPI   C3B12335  11.422  11.112   6.951  0.3820 -0.1048  0.1353
  834loPI   C4B12336  11.294  11.449   7.137  0.1201  0.1718 -0.0441
  835loPI    C112337  17.484  16.120   4.969  0.0647  0.0566  0.0924
  835loPI    C212338  17.251  16.404   4.811  0.2458  0.1819  0.0465
  835loPI    C312339  17.571  16.274   4.610  0.1135 -0.1228  0.0256
  835loPI   PO412340  17.565  16.187   5.248  0.0504 -0.1389 -0.0686
  835loPI   GL112341  17.385  16.037   5.658  0.2109 -0.2017  0.0496
  835loPI   GL212342  17.326  16.285   5.905 -0.3105  0.0979  0.1092
  835loPI   C1A12343  17.270  15.813   6.013  0.3460 -0.3962 -0.3264
  835loPI   C2A12344  17.308  15.777   6.441  0.0073  0.1536  0.3411
  835loPI   C3A12345  17.126  15.666   6.814  0.1489  0.0867  0.0715
  835loPI   C4A12346  16.880  15.754   7.270  0.1194  0.1290  0.1067
  835loPI   C5A12347  16.567  15.869   7.666  0.2458 -0.0370  0.2012
  835loPI   C6A12348  16.628  15.977   8.156 -0.4884 -0.0461  0.0894
  835loPI   C1B12349  17.579  16.417   6.267  0.1647 -0.0570 -0.1263
  835loPI   C2B12350  17.702  16.416   6.765  0.0617  0.1954 -0.3377
  835loPI   C3B12351  17.909  16.391   7.168  0.1294 -0.0324 -0.2476
  835loPI   C4B12352  18.262  16.443   7.311  0.0597  0.2689  0.1268
  836loPI    C112353  14.049  14.306   5.294 -0.0434  0.1243  0.1092
  836loPI    C212354  14.261  14.296   4.955  0.0044 -0.1086  0.1442
  836loPI    C312355  14.414  14.469   5.281 -0.0087  0.0441  0.0704
  836loPI   PO412356  13.810  14.405   5.292  0.0353 -0.1951 -0.1643
  836loPI   GL112357  13.489  14.395   5.569  0.1580 -0.0206  0.1172
  836loPI   GL212358  13.370  14.625   5.773  0.0582  0.2733 -0.0803
  836loPI   C1A12359  13.764  14.308   5.912 -0.0217  0.3046  0.0396
  836loPI   C2A12360  13.770  14.146   6.355  0.0351  0.0748 -0.1118
  836loPI   C3A12361  13.841  14.098   6.775 -0.0558 -0.0087 -0.2277
  836loPI   C4A12362  13.625  14.100   7.026  0.0057  0.0706 -0.0106
  836loPI   C5A12363  13.513  14.215   7.398 -0.2574 -0.1322 -0.0439
  836loPI   C6A12364  13.420  14.563   7.589 -0.0876 -0.1399 -0.3352
  836loPI   C1B12365  13.372  14.458   6.230  0.0284 -0.0018  0.0966
  836loPI   C2B12366  13.204  14.366   6.650 -0.1211 -0.2303 -0.0324
  836loPI   C3B12367  13.017  14.203   7.004  0.2378  0.3780  0.2344
  836loPI   C4B12368  12.958  14.134   7.389 -0.0388  0.1643 -0.1517
  837loPI    C112369   8.688   7.063   5.299  0.1490  0.0182  0.1036
  837loPI    C212370   8.562   7.152   4.930 -0.1270 -0.1128  0.1636
  837loPI    C312371   8.953   7.154   5.013 -0.0781  0.2000 -0.0532
  837loPI   PO412372   8.546   7.217   5.403  0.2820 -0.0027 -0.2112
  837loPI   GL112373   8.325   7.093   5.774  0.1869 -0.2012 -0.0640
  837loPI   GL212374   8.449   6.792   5.828  0.0161  0.0592 -0.0363
  837loPI   C1A12375   8.074   7.242   6.101  0.0291 -0.0597  0.2186
  837loPI   C2A12376   8.057   7.281   6.413 -0.0361 -0.0473  0.0261
  837loPI   C3A12377   7.922   7.213   6.740  0.1913 -0.0261 -0.1621
  837loPI   C4A12378   7.968   7.108   7.058 -0.1153  0.0062  0.0175
  837loPI   C5A12379   8.054   6.708   7.212 -0.0554 -0.1764 -0.0344
  837loPI   C6A12380   7.925   6.532   7.602 -0.1829  0.1194  0.0676
  837loPI   C1B12381   8.282   6.837   6.228  0.2777  0.0624  0.0670
  837loPI   C2B12382   8.278   6.823   6.710 -0.0775 -0.2127 -0.0319
  837loPI   C3B12383   8.480   6.610   7.007 -0.1976  0.1333 -0.1304
  837loPI   C4B12384   8.570   6.572   7.442  0.2158 -0.2574  0.0859
  838loPI    C112385  14.331  16.609   4.948 -0.1161  0.1823 -0.3492
  838loPI    C212386  14.700  16.613   5.102 -0.3605 -0.0072  0.2734
  838loPI    C312387  14.624  16.406   4.768  0.0709 -0.0485  0.1952
  838loPI   PO412388  14.229  16.820   5.184  0.0797 -0.0480 -0.1602
  838loPI   GL112389  14.434  16.721   5.687  0.2388 -0.1322  0.3332
  838loPI   GL212390  14.572  16.986   5.917 -0.0613  0.0519  0.5541
  838loPI   C1A12391  14.395  16.491   6.130 -0.2380 -0.1274  0.1707
  838loPI   C2A12392  14.468  16.326   6.648  0.2258 -0.3647  0.0969
  838loPI   C3A12393  14.348  16.532   7.036 -0.0075  0.0573  0.0036
  838loPI   C4A12394  14.016  16.482   7.288 -0.1624 -0.0160  0.1298
  838loPI   C5A12395  13.693  16.300   7.318  0.1599  0.1391  0.4036
  838loPI   C6A12396  13.407  15.985   7.493  0.2180 -0.1072 -0.2508
  838loPI   C1B12397  14.172  16.977   6.086  0.2419  0.0022  0.2907
  838loPI   C2B12398  13.712  16.847   6.150  0.0334 -0.2248  0.0786
  838loPI   C3B12399  13.556  16.865   6.622  0.2350  0.2956 -0.0821
  838loPI   C4B12400  13.518  16.553   6.929 -0.1330  0.1124  0.0967
  839loPI    C112401   9.481   2.520   4.600  0.2588  0.3149 -0.1242
  839loPI    C212402   9.619   2.151   4.535 -0.3276  0.0978 -0.1979
  839loPI    C312403   9.757   2.457   4.318  0.2208 -0.0574 -0.0827
  839loPI   PO412404   9.611   2.598   4.930  0.2690  0.0342 -0.0364
  839loPI   GL112405   9.466   2.569   5.350 -0.2466  0.0984 -0.1869
  839loPI   GL212406   9.171   2.636   5.369  0.1455 -0.1518 -0.2748
  839loPI   C1A12407   9.659   2.465   5.761 -0.0008  0.0077  0.0954
  839loPI   C2A12408   9.603   2.433   6.171  0.3573 -0.3497  0.0808
  839loPI   C3A12409   9.445   2.577   6.554 -0.4203  0.1033  0.0474
  839loPI   C4A12410   9.565   2.457   6.991  0.1083  0.2314 -0.0211
  839loPI   C5A12411   9.570   2.507   7.439  0.0977  0.1283 -0.2845
  839loPI   C6A12412   9.944   2.438   7.604  0.1301 -0.0470 -0.3382
  839loPI   C1B12413   9.189   2.660   5.805  0.0029  0.2621  0.5530
  839loPI   C2B12414   9.114   2.745   6.211 -0.1188  0.1615 -0.1763
  839loPI   C3B12415   9.018   2.857   6.619  0.4082 -0.0916  0.1201
  839loPI   C4B12416   8.689   2.944   6.715 -0.1758 -0.0585  0.1073
  840loPI    C112417  14.476  17.564   5.172 -0.1966  0.0013 -0.0897
  840loPI    C212418  14.478  17.962   5.213 -0.0547 -0.0087  0.0079
  840loPI    C312419  14.178  17.783   5.018 -0.1904  0.1337  0.0832
  840loPI   PO412420  14.630  17.527   5.540  0.1809  0.1363  0.0861
  840loPI   GL112421  14.398  17.442   5.967  0.1961 -0.2379  0.2346
  840loPI   GL212422  14.721  17.444   6.054  0.2133 -0.2439  0.1199
  840loPI   C1A12423  14.420  17.316   6.400  0.4283  0.2940 -0.3535
  840loPI   C2A12424  14.359  17.218   6.900  0.2502 -0.0830 -0.0050
  840loPI   C3A12425  14.410  16.993   7.227  0.1382  0.4194  0.0028
  840loPI   C4A12426  14.514  17.034   7.637 -0.1271 -0.1145  0.0866
  840loPI   C5A12427  14.176  16.915   7.766  0.0758  0.2662  0.2660
  840loPI   C6A12428  13.763  16.676   7.724 -0.2190 -0.2646 -0.1944
  840loPI   C1B12429  15.053  17.388   6.249 -0.2541  0.3846  0.1512
  840loPI   C2B12430  15.199  17.458   6.679  0.0066 -0.0308 -0.0816
  840loPI   C3B12431  15.314  17.639   7.067 -0.3628 -0.2200  0.1591
  840loPI   C4B12432  15.687  17.598   7.304  0.0997  0.1572  0.0846
  841loPI    C112433  13.394   9.386   5.539  0.0286  0.0149 -0.0526
  841loPI    C212434  13.400   9.302   5.147  0.0309 -0.0911 -0.0302
  841loPI    C312435  13.051   9.325   5.342  0.0262  0.0257 -0.0518
  841loPI   PO412436  13.599   9.197   5.625  0.1428 -0.0608  0.1683
  841loPI   GL112437  13.806   9.102   6.047 -0.1512  0.2752  0.1798
  841loPI   GL212438  13.635   9.441   6.191 -0.0042  0.1342  0.3311
  841loPI   C1A12439  14.111   8.982   6.407 -0.1541  0.0536 -0.1867
  841loPI   C2A12440  14.033   8.967   6.882 -0.0205  0.1996  0.1686
  841loPI   C3A12441  13.654   8.990   7.168 -0.0287 -0.1968  0.0169
  841loPI   C4A12442  13.630   8.969   7.606 -0.2692 -0.1529 -0.0735
  841loPI   C5A12443  13.453   9.044   7.997  0.0334 -0.2118 -0.0271
  841loPI   C6A12444  13.217   8.907   8.412 -0.1144  0.1703  0.0606
  841loPI   C1B12445  13.570   9.091   6.440 -0.4802  0.0360  0.1265
  841loPI   C2B12446  13.375   8.960   6.788  0.0959 -0.1051 -0.3222
  841loPI   C3B12447  13.152   9.152   7.152  0.5144  0.0927  0.0288
  841loPI   C4B12448  13.120   9.190   7.562 -0.2844  0.1758  0.1011
  842loPI    C112449   0.986  13.708   4.724  0.0208  0.0617  0.0250
  842loPI    C212450   1.030  14.082   4.591  0.1361  0.0487  0.0255
  842loPI    C312451   1.236  13.784   4.421  0.2466  0.0247  0.1992
  842loPI   PO412452   1.055  13.675   5.013  0.0194 -0.2146 -0.1590
  842loPI   GL112453   1.061  13.686   5.427 -0.1654  0.0776  0.1797
  842loPI   GL212454   0.702  13.719   5.335  0.0856  0.2280 -0.0599
  842loPI   C1A12455   1.050  13.597   5.797 -0.0438 -0.1460 -0.1485
  842loPI   C2A12456   0.849  13.665   6.275 -0.0811 -0.3178 -0.0442
  842loPI   C3A12457   0.865  13.387   6.585  0.0286 -0.1192 -0.1484
  842loPI   C4A12458   0.528  13.183   6.809  0.3757  0.1189  0.0870
  842loPI   C5A12459   0.411  12.741   7.088 -0.1926 -0.1852  0.0900
  842loPI   C6A12460   0.492  12.433   7.447  0.0738  0.0503 -0.4073
  842loPI   C1B12461   0.585  13.965   5.663 -0.0609  0.0074 -0.2927
  842loPI   C2B12462   0.764  14.108   5.950  0.0105 -0.1023  0.1375
  842loPI   C3B12463   0.698  14.430   6.216 -0.0006  0.0986 -0.1880
  842loPI   C4B12464   0.835  14.740   6.580  0.0170  0.0837  0.0791
  843loPI    C112465   2.637   0.565   4.925  0.1064 -0.2053 -0.1174
  843loPI    C212466   2.271   0.727   4.924  0.1338 -0.1363  0.1909
  843loPI    C312467   2.515   0.783   4.612 -0.1866 -0.3461 -0.1048
  843loPI   PO412468   2.673   0.490   5.207  0.1624  0.1842 -0.3547
  843loPI   GL112469   2.955   0.651   5.507 -0.1873 -0.0778  0.1992
  843loPI   GL212470   2.646   0.584   5.727  0.0318  0.2381 -0.0794
  843loPI   C1A12471   3.094   0.779   5.914 -0.1934 -0.1879  0.0876
  843loPI   C2A12472   3.131   0.818   6.368 -0.0870  0.2508  0.1579
  843loPI   C3A12473   3.229   0.699   6.806 -0.2726 -0.1531 -0.1757
  843loPI   C4A12474   3.228   0.270   7.062  0.1343 -0.3180  0.1296
  843loPI   C5A12475   3.074   0.121   7.547 -0.0274 -0.1847 -0.2713
  843loPI   C6A12476   2.937  -0.146   7.848 -0.0497 -0.6085 -0.2241
  843loPI   C1B12477   2.704   0.781   6.185  0.0261  0.0088  0.1439
  843loPI   C2B12478   2.660   0.829   6.620 -0.1461 -0.2185  0.0267
  843loPI   C3B12479   2.827   0.846   7.066 -0.4797 -0.0556 -0.1763
  843loPI   C4B12480   3.238   0.821   7.313 -0.3183 -0.2074  0.2878
  844loPI    C112481  16.219  17.427   5.648 -0.1487  0.1722 -0.1124
  844loPI    C212482  16.415  17.715   5.845  0.0110 -0.0027 -0.0117
  844loPI    C312483  16.349  17.751   5.452 -0.0313  0.2015  0.0129
  844loPI   PO412484  16.401  17.194   5.643  0.1573 -0.1480 -0.0724
  844loPI   GL112485  16.640  17.284   6.013  0.0368  0.4128 -0.2078
  844loPI   GL212486  16.514  16.955   6.124  0.0098 -0.0244  0.2263
  844loPI   C1A12487  16.252  17.400   6.267 -0.0921 -0.3447 -0.0063
  844loPI   C2A12488  16.132  17.442   6.626  0.4832  0.0832 -0.1717
  844loPI   C3A12489  16.156  17.436   6.977  0.0196  0.0407  0.2609
  844loPI   C4A12490  16.229  17.615   7.382 -0.3429  0.0935  0.0809
  844loPI   C5A12491  16.044  18.003   7.723  0.3069  0.2246  0.1462
  844loPI   C6A12492  15.769  18.121   8.019  0.2955 -0.4556 -0.2501
  844loPI   C1B12493  16.446  17.073   6.539 -0.0512  0.1060  0.3005
  844loPI   C2B12494  16.420  16.984   6.854 -0.0010  0.1945  0.0836
  844loPI   C3B12495  16.217  17.030   7.264 -0.0171  0.0892  0.2335
  844loPI   C4B12496  16.085  17.011   7.767  0.1458  0.2548  0.0310
  845loPI    C112497  17.013   2.747   5.558  0.2106  0.0356  0.3139
  845loPI    C212498  17.270   2.903   5.293 -0.0037 -0.1038  0.0190
  845loPI    C312499  17.157   3.117   5.612  0.1762  0.1067 -0.0558
  845loPI   PO412500  17.111   2.492   5.645 -0.0043 -0.1011 -0.0314
  845loPI   GL112501  16.976   2.308   5.944 -0.0738  0.6077 -0.1893
  845loPI   GL212502  16.698   2.389   6.093  0.2737  0.1394 -0.0598
  845loPI   C1A12503  16.908   2.169   6.444 -0.0934 -0.0702 -0.0605
  845loPI   C2A12504  16.755   2.130   6.816  0.3520  0.1787  0.3169
  845loPI   C3A12505  16.552   2.380   7.031  0.1604  0.2939 -0.0951
  845loPI   C4A12506  16.240   2.403   7.305 -0.1158 -0.1003  0.0735
  845loPI   C5A12507  16.017   2.636   7.587  0.2853 -0.3414  0.0111
  845loPI   C6A12508  15.582   2.551   7.862  0.2107  0.1643  0.1040
  845loPI   C1B12509  16.357   2.251   6.433 -0.2309  0.0592 -0.2028
  845loPI   C2B12510  16.116   2.327   6.771  0.0334  0.3030  0.0477
  845loPI   C3B12511  15.807   2.529   7.000  0.1393  0.2002  0.2892
  845loPI   C4B12512  15.556   2.640   7.369 -0.1710  0.3364 -0.1884
  846loPI    C112513  18.115   3.024   5.435  0.1664  0.1873  0.0352
  846loPI    C212514  17.804   2.893   5.220  0.1788  0.0892  0.0767
  846loPI    C312515  17.963   3.252   5.143  0.0715  0.1289  0.0384
  846loPI   PO412516  18.002   3.023   5.719  0.0584  0.0236  0.1959
  846loPI   GL112517  18.084   3.116   6.121  0.1724  0.6187  0.4584
  846loPI   GL212518  18.219   3.403   6.126 -0.1833  0.1604  0.0792
  846loPI   C1A12519  18.068   3.033   6.520 -0.0724  0.3352 -0.3510
  846loPI   C2A12520  18.200   3.083   6.926 -0.0977 -0.2734 -0.1747
  846loPI   C3A12521  18.355   3.068   7.363  0.1079 -0.1964 -0.1314
  846loPI   C4A12522  18.529   3.172   7.834  0.4307 -0.0552 -0.0513
  846loPI   C5A12523  18.230   3.024   8.031 -0.2730  0.1644  0.1168
  846loPI   C6A12524  18.000   2.678   8.025 -0.1165  0.3464 -0.1169
  846loPI   C1B12525  18.033   3.525   6.533 -0.0779 -0.0162 -0.2282
  846loPI   C2B12526  17.818   3.313   6.847 -0.2041 -0.2873  0.2553
  846loPI   C3B12527  17.792   3.203   7.258  0.0457  0.1145  0.0498
  846loPI   C4B12528  17.924   3.004   7.617 -0.1577  0.2316  0.3252
  847loPI    C112529   0.911   2.294   5.258  0.0609 -0.1263  0.2688
  847loPI    C212530   0.573   2.489   5.172  0.0580 -0.1747  0.1693
  847loPI    C312531   0.673   2.162   4.965  0.1673 -0.1587  0.1965
  847loPI   PO412532   0.868   2.273   5.529 -0.1491  0.0034  0.3499
  847loPI   GL112533   0.761   2.167   5.956 -0.1383  0.1019  0.1125
  847loPI   GL212534   1.010   2.508   5.894 -0.0892  0.0203 -0.1674
  847loPI   C1A12535   0.806   2.099   6.372 -0.1567 -0.0642  0.0589
  847loPI   C2A12536   0.629   1.939   6.695 -0.1828  0.3483 -0.0531
  847loPI   C3A12537   0.592   2.122   7.102  0.2196 -0.0341 -0.1632
  847loPI   C4A12538   0.606   1.960   7.571 -0.1720 -0.3344  0.0851
  847loPI   C5A12539   0.720   2.002   7.997 -0.0405 -0.0043  0.3328
  847loPI   C6A12540   0.731   1.836   8.511 -0.2055 -0.0003 -0.1026
  847loPI   C1B12541   1.127   2.504   6.350  0.0360 -0.1109 -0.2939
  847loPI   C2B12542   1.434   2.486   6.709  0.2181 -0.1651  0.0444
  847loPI   C3B12543   1.591   2.338   7.009  0.1000  0.0843 -0.1900
  847loPI   C4B12544   1.464   2.423   7.300  0.2641  0.0631 -0.0067
  848loPI    C112545   1.154  10.316   4.704  0.0003 -0.2532  0.2395
  848loPI    C212546   1.240   9.936   4.612  0.0067 -0.1775 -0.0808
  848loPI    C312547   1.296  10.225   4.341 -0.0178  0.0510  0.1531
  848loPI   PO412548   0.913  10.195   4.960 -0.2697  0.0801 -0.1261
  848loPI   GL112549   0.956  10.141   5.404 -0.1384  0.1387 -0.1817
  848loPI   GL212550   0.939   9.843   5.655  0.0080  0.0218  0.2427
  848loPI   C1A12551   0.833  10.409   5.761 -0.1993 -0.0664  0.0590
  848loPI   C2A12552   0.865  10.392   6.184  0.0752  0.2353  0.2085
  848loPI   C3A12553   0.681  10.338   6.606  0.0729 -0.2075  0.1206
  848loPI   C4A12554   0.632  10.165   6.965  0.1014  0.1214  0.0370
  848loPI   C5A12555   0.543   9.939   7.394  0.1077 -0.0980  0.1087
  848loPI   C6A12556   0.537   9.818   7.820  0.1096  0.1189 -0.1619
  848loPI   C1B12557   0.944   9.840   6.062 -0.0806 -0.1231 -0.2165
  848loPI   C2B12558   0.985   9.975   6.462 -0.1955  0.1329  0.1790
  848loPI   C3B12559   1.131  10.238   6.741  0.1480  0.0521 -0.1135
  848loPI   C4B12560   1.035  10.354   7.138  0.0273 -0.0540  0.2322
  849loPI    C112561  17.338   3.666   5.228  0.0325 -0.0100 -0.0691
  849loPI    C212562  17.491   3.319   5.102  0.0170 -0.0956  0.1425
  849loPI    C312563  17.231   3.518   4.872  0.3118 -0.0338 -0.1451
  849loPI   PO412564  17.229   3.630   5.447  0.1792 -0.0230 -0.0314
  849loPI   GL112565  17.175   3.578   5.820 -0.2767  0.0886 -0.2211
  849loPI   GL212566  17.358   3.859   5.848  0.1681 -0.3693  0.0484
  849loPI   C1A12567  17.079   3.704   6.249  0.5679 -0.0863  0.1622
  849loPI   C2A12568  17.070   3.582   6.700  0.2147  0.0150 -0.5322
  849loPI   C3A12569  17.428   3.577   7.108  0.0147  0.0557  0.0212
  849loPI   C4A12570  17.686   3.575   7.543  0.0529 -0.1601  0.0769
  849loPI   C5A12571  17.761   3.464   8.063 -0.2027 -0.1971 -0.1129
  849loPI   C6A12572  17.537   3.387   8.507  0.1725 -0.0822 -0.1497
  849loPI   C1B12573  17.330   4.105   6.322  0.4553 -0.0570 -0.0805
  849loPI   C2B12574  17.015   4.112   6.616 -0.0865  0.2917  0.1070
  849loPI   C3B12575  16.837   4.206   7.094 -0.1556 -0.0030 -0.3352
  849loPI   C4B12576  16.934   4.414   7.467 -0.1871  0.0087 -0.1016
  850loPI    C112577  13.712   6.608   5.174 -0.0839  0.0794 -0.0415
  850loPI    C212578  13.323   6.699   5.173 -0.0344  0.3066  0.1882
  850loPI    C312579  13.576   6.904   4.942 -0.0815  0.0001 -0.1447
  850loPI   PO412580  13.800   6.618   5.418 -0.2249 -0.0881  0.0405
  850loPI   GL112581  13.897   6.629   5.788 -0.4787 -0.1928  0.2030
  850loPI   GL212582  14.039   6.990   5.938  0.1413 -0.1331 -0.0136
  850loPI   C1A12583  14.028   6.635   6.232  0.0037 -0.2470  0.2887
  850loPI   C2A12584  13.964   6.777   6.648  0.1711  0.4293  0.1183
  850loPI   C3A12585  14.042   6.827   7.025 -0.2238  0.0381  0.0317
  850loPI   C4A12586  13.886   6.741   7.486  0.2541  0.1074 -0.0111
  850loPI   C5A12587  13.696   6.975   7.769  0.1514  0.0470  0.0528
  850loPI   C6A12588  13.701   7.214   8.091 -0.0842 -0.0757 -0.3293
  850loPI   C1B12589  13.832   7.128   6.368  0.0207 -0.0170  0.0287
  850loPI   C2B12590  13.745   7.201   6.801 -0.0247  0.2323  0.0658
  850loPI   C3B12591  13.743   7.194   7.191  0.1335 -0.0341  0.0229
  850loPI   C4B12592  13.695   7.440   7.517  0.2251  0.1367 -0.0482
  851loPI    C112593  13.225  17.338   4.931  0.0908 -0.1139  0.0436
  851loPI    C212594  13.189  17.227   4.548 -0.3555 -0.1815  0.0998
  851loPI    C312595  13.326  17.592   4.639 -0.2938 -0.1474 -0.1252
  851loPI   PO412596  13.286  17.106   5.061 -0.0271 -0.0760  0.0213
  851loPI   GL112597  13.282  16.918   5.431 -0.0734  0.4894  0.4418
  851loPI   GL212598  13.440  16.691   5.572  0.0550  0.3618  0.2604
  851loPI   C1A12599  13.158  17.023   5.811 -0.0364 -0.0612  0.1567
  851loPI   C2A12600  13.157  16.921   6.212  0.0532  0.0023  0.0513
  851loPI   C3A12601  13.052  16.926   6.688  0.3315 -0.0765  0.0561
  851loPI   C4A12602  13.044  17.020   7.081  0.0598  0.3204  0.2639
  851loPI   C5A12603  13.276  16.766   7.391 -0.1994  0.1619 -0.3646
  851loPI   C6A12604  13.218  16.579   7.705 -0.0452  0.2227 -0.1585
  851loPI   C1B12605  13.357  16.559   5.910 -0.0465  0.0385 -0.0648
  851loPI   C2B12606  13.388  16.441   6.288  0.2524 -0.1346 -0.4206
  851loPI   C3B12607  13.499  16.173   6.614  0.0756  0.3103 -0.2180
  851loPI   C4B12608  13.480  15.944   7.029 -0.1081 -0.2440 -0.0499
  852loPI    C112609  16.791   0.227   4.955 -0.0746 -0.1067 -0.0371
  852loPI    C212610  16.423   0.275   4.805  0.0778  0.3964 -0.2732
  852loPI    C312611  16.744   0.351   4.577  0.3361 -0.1090 -0.0942
  852loPI   PO412612  16.723   0.325   5.217 -0.0090  0.4354 -0.1105
  852loPI   GL112613  16.874   0.420   5.555 -0.4510 -0.0208  0.2199
  852loPI   GL212614  16.636   0.099   5.737  0.2942 -0.1099 -0.1017
  852loPI   C1A12615  16.940   0.478   6.004 -0.1182 -0.0871 -0.0299
  852loPI   C2A12616  17.078   0.550   6.468 -0.4479  0.3758 -0.0737
  852loPI   C3A12617  17.011   0.920   6.665  0.1648 -0.0627 -0.3127
  852loPI   C4A12618  17.026   1.092   7.109  0.0897  0.1446 -0.2159
  852loPI   C5A12619  16.960   0.922   7.528  0.2140 -0.0134  0.0166
  852loPI   C6A12620  16.780   0.618   7.800  0.1978 -0.1200  0.5098
  852loPI   C1B12621  16.767  -0.066   6.122  0.3067  0.0588 -0.1061
  852loPI   C2B12622  16.890   0.001   6.568  0.2667  0.2149 -0.1793
  852loPI   C3B12623  16.835   0.109   6.930  0.6827  0.3383  0.1759
  852loPI   C4B12624  16.590   0.222   7.300 -0.0682  0.2603 -0.4313
  853loPI    C112625   1.419  10.753   4.827  0.3178 -0.1099  0.0448
  853loPI    C212626   1.226  11.041   4.628  0.3615 -0.0029  0.1556
  853loPI    C312627   1.287  10.685   4.456  0.1858  0.0075  0.0691
  853loPI   PO412628   1.590  10.824   4.980 -0.0156  0.1373  0.0965
  853loPI   GL112629   1.582  10.944   5.346  0.0142  0.1564 -0.1100
  853loPI   GL212630   1.880  10.739   5.438 -0.1200 -0.0346  0.2865
  853loPI   C1A12631   1.531  11.112   5.857 -0.3867  0.1057 -0.3906
  853loPI   C2A12632   1.138  11.277   6.150  0.3299 -0.0201 -0.2504
  853loPI   C3A12633   1.035  11.279   6.567 -0.1214 -0.4398  0.3156
  853loPI   C4A12634   1.235  11.223   6.921 -0.5346 -0.0130 -0.3007
  853loPI   C5A12635   1.166  11.389   7.326 -0.1957 -0.3519  0.3150
  853loPI   C6A12636   1.124  11.580   7.725 -0.1301 -0.1565 -0.1592
  853loPI   C1B12637   2.124  10.657   5.826 -0.1653  0.1361 -0.0231
  853loPI   C2B12638   2.236  10.758   6.215  0.2600  0.1889 -0.0254
  853loPI   C3B12639   2.287  10.863   6.634 -0.0349  0.0877 -0.0865
  853loPI   C4B12640   2.298  10.942   7.116  0.0770  0.0030  0.2278
  854loPI    C112641   4.972   2.495   5.037  0.0283  0.0787 -0.2221
  854loPI    C212642   5.239   2.740   4.868  0.2437 -0.0018 -0.0062
  854loPI    C312643   4.893   2.886   5.007  0.1632  0.1002 -0.3048
  854loPI   PO412644   5.076   2.360   5.201 -0.0785  0.2701 -0.0118
  854loPI   GL112645   5.061   2.608   5.548  0.0889  0.0413 -0.0839
  854loPI   GL212646   4.750   2.528   5.586 -0.1059 -0.0509 -0.0144
  854loPI   C1A12647   5.286   2.570   5.993  0.4428 -0.3500  0.1472
  854loPI   C2A12648   5.480   2.831   6.329  0.0684  0.1108 -0.5301
  854loPI   C3A12649   5.533   2.756   6.729 -0.1635 -0.0396 -0.0092
  854loPI   C4A12650   5.435   2.736   7.193 -0.1028  0.1450  0.0483
  854loPI   C5A12651   5.178   2.668   7.570 -0.4854 -0.1205  0.0165
  854loPI   C6A12652   4.958   2.683   7.973  0.0381 -0.3230  0.3495
  854loPI   C1B12653   4.759   2.548   5.961  0.0516 -0.0147  0.0442
  854loPI   C2B12654   4.969   2.732   6.313  0.3476  0.0934 -0.2508
  854loPI   C3B12655   5.005   2.853   6.735 -0.0269  0.1150 -0.2082
  854loPI   C4B12656   4.929   2.757   7.145 -0.1969  0.1998 -0.0538
  855loPI    C112657  10.271  17.054   5.204 -0.0948  0.1489  0.1187
  855loPI    C212658  10.281  17.261   4.862 -0.0627 -0.1985 -0.0962
  855loPI    C312659  10.542  16.965   4.923 -0.1807 -0.2532  0.1569
  855loPI   PO412660  10.260  17.121   5.413  0.1153 -0.1810 -0.0394
  855loPI   GL112661  10.024  17.006   5.750 -0.0943 -0.0001  0.3230
  855loPI   GL212662  10.283  16.838   5.757  0.1398 -0.1580  0.2063
  855loPI   C1A12663   9.898  17.009   6.200  0.0391  0.2386  0.0570
  855loPI   C2A12664   9.760  17.340   6.531  0.1316  0.1228 -0.1497
  855loPI   C3A12665   9.725  17.537   6.915  0.1602  0.3846 -0.1775
  855loPI   C4A12666   9.399  17.459   7.212 -0.5037  0.0216 -0.3021
  855loPI   C5A12667   9.277  17.052   7.425  0.0133  0.0929 -0.2245
  855loPI   C6A12668   9.070  17.027   7.811  0.0681 -0.0073  0.3112
  855loPI   C1B12669  10.447  16.931   6.177 -0.3619  0.2813  0.2282
  855loPI   C2B12670  10.248  16.962   6.538  0.0961 -0.0070  0.0652
  855loPI   C3B12671  10.045  17.069   6.909 -0.2752  0.2009  0.0421
  855loPI   C4B12672   9.627  17.016   7.035  0.0441 -0.1554  0.0236
  856loPI    C112673  16.417  10.964   5.293  0.0298  0.0461  0.0678
  856loPI    C212674  16.643  10.820   4.996  0.0692 -0.1466  0.1898
  856loPI    C312675  16.568  11.212   5.017 -0.0457 -0.1470 -0.1510
  856loPI   PO412676  16.538  10.993   5.518 -0.1551  0.2693  0.3849
  856loPI   GL112677  16.866  11.198   5.745 -0.3699  0.0030  0.0213
  856loPI   GL212678  16.939  11.534   5.791 -0.1177  0.5257  0.0980
  856loPI   C1A12679  16.778  11.089   6.253  0.1784 -0.0096  0.0698
  856loPI   C2A12680  17.156  10.996   6.483  0.2764  0.2250 -0.1066
  856loPI   C3A12681  17.452  11.055   6.792  0.0880  0.1324 -0.0900
  856loPI   C4A12682  17.461  11.128   7.203 -0.0567  0.0231 -0.2458
  856loPI   C5A12683  17.316  11.218   7.600  0.0414 -0.0618 -0.1993
  856loPI   C6A12684  17.068  11.052   8.016  0.3815 -0.2536  0.1085
  856loPI   C1B12685  16.823  11.527   6.219  0.0186  0.0003 -0.0973
  856loPI   C2B12686  16.873  11.343   6.700  0.4431  0.0227  0.0603
  856loPI   C3B12687  16.972  11.369   7.197  0.0758  0.0594  0.2746
  856loPI   C4B12688  16.940  11.510   7.660 -0.1350  0.0494 -0.0615
  857loPI    C112689  16.529  15.209   5.219  0.1826 -0.2340 -0.1380
  857loPI    C212690  16.620  15.442   4.906  0.0953 -0.1334 -0.0890
  857loPI    C312691  16.291  15.213   4.897  0.0223 -0.0323 -0.0192
  857loPI   PO412692  16.561  15.350   5.428 -0.2759  0.4574 -0.1282
  857loPI   GL112693  16.532  15.291   5.884  0.0672  0.0110  0.0342
  857loPI   GL212694  16.169  15.208   5.902  0.0760 -0.1405 -0.1796
  857loPI   C1A12695  16.628  15.062   6.244  0.3136  0.3089 -0.1034
  857loPI   C2A12696  16.556  15.050   6.647 -0.4957 -0.0422  0.0830
  857loPI   C3A12697  16.769  15.263   6.944  0.4686 -0.0811  0.2006
  857loPI   C4A12698  17.133  15.362   7.284 -0.0602 -0.0950 -0.2086
  857loPI   C5A12699  17.372  15.653   7.514  0.3261 -0.0865  0.0992
  857loPI   C6A12700  17.790  15.671   7.646 -0.2550 -0.0645 -0.1222
  857loPI   C1B12701  16.128  14.981   6.346 -0.1031  0.0875  0.1774
  857loPI   C2B12702  16.100  14.862   6.700 -0.0242 -0.2192  0.0870
  857loPI   C3B12703  16.069  14.904   7.074 -0.0549 -0.0094 -0.0075
  857loPI   C4B12704  15.864  15.205   7.313  0.1239 -0.2926  0.1187
  858loPI    C112705  14.996   2.950   5.089 -0.0153  0.3002  0.0285
  858loPI    C212706  15.293   2.717   4.957 -0.1688  0.1345 -0.0284
  858loPI    C312707  15.174   3.031   4.740 -0.2066  0.0499 -0.1307
  858loPI   PO412708  14.895   2.769   5.308  0.1120  0.1119  0.0966
  858loPI   GL112709  14.708   2.714   5.596  0.1722  0.0275  0.2612
  858loPI   GL212710  14.903   2.437   5.685  0.0189  0.0267 -0.1537
  858loPI   C1A12711  14.676   2.911   5.971  0.3923  0.3416  0.0008
  858loPI   C2A12712  14.939   3.120   6.357  0.1772 -0.0740 -0.0694
  858loPI   C3A12713  14.959   3.322   6.698 -0.1701 -0.0311  0.0921
  858loPI   C4A12714  15.121   3.380   7.108 -0.0690 -0.4962 -0.0407
  858loPI   C5A12715  15.323   3.354   7.434 -0.3731  0.1272 -0.2638
  858loPI   C6A12716  15.622   3.035   7.594 -0.1433 -0.1759 -0.2563
  858loPI   C1B12717  15.103   2.269   5.992 -0.1662  0.0229 -0.3124
  858loPI   C2B12718  15.042   2.145   6.413  0.3244 -0.1867 -0.2842
  858loPI   C3B12719  14.987   2.268   6.794 -0.0122  0.2245 -0.0233
  858loPI   C4B12720  14.942   2.378   7.220  0.2578  0.4054 -0.1527
  859loPI    C112721  16.311  16.595   5.411  0.3230 -0.3079  0.0914
  859loPI    C212722  16.534  16.848   5.196  0.2976 -0.2266  0.1599
  859loPI    C312723  16.194  16.702   5.044  0.3307 -0.2483  0.1063
  859loPI   PO412724  16.416  16.733   5.733  0.1393  0.2442  0.0035
  859loPI   GL112725  16.343  16.429   6.058  0.2008 -0.0113  0.3684
  859loPI   GL212726  16.093  16.387   5.820  0.1160 -0.2926 -0.0218
  859loPI   C1A12727  16.312  16.497   6.466 -0.0315  0.1651 -0.1322
  859loPI   C2A12728  16.231  16.498   6.930  0.0684  0.0916 -0.1779
  859loPI   C3A12729  16.359  16.523   7.361  0.0744 -0.0221 -0.0615
  859loPI   C4A12730  16.352  16.551   7.866  0.2929 -0.1818  0.1070
  859loPI   C5A12731  15.914  16.576   8.044  0.0602  0.0214  0.3605
  859loPI   C6A12732  15.454  16.492   8.021 -0.2593 -0.1522 -0.2969
  859loPI   C1B12733  15.886  16.402   6.257 -0.1969  0.3112  0.2417
  859loPI   C2B12734  15.801  16.290   6.747 -0.2881  0.0325 -0.1061
  859loPI   C3B12735  15.824  16.183   7.161 -0.0943 -0.0392 -0.1204
  859loPI   C4B12736  15.656  16.182   7.637  0.3695  0.0387 -0.0105
  860loPI    C112737  16.802  10.300   5.387 -0.0291  0.0504  0.0172
  860loPI    C212738  16.918  10.666   5.501  0.3213 -0.0661  0.0468
  860loPI    C312739  17.008  10.532   5.135  0.1930 -0.1236  0.0356
  860loPI   PO412740  16.901  10.114   5.566  0.1228 -0.3394  0.0938
  860loPI   GL112741  17.078  10.149   6.104  0.0782  0.3090 -0.1334
  860loPI   GL212742  17.311  10.153   6.328 -0.0298  0.1530  0.0190
  860loPI   C1A12743  16.922  10.574   6.397  0.0321 -0.1710  0.3281
  860loPI   C2A12744  16.897  10.685   6.807  0.3516 -0.0707 -0.0022
  860loPI   C3A12745  16.937  10.908   7.160 -0.2747 -0.0643  0.0425
  860loPI   C4A12746  16.759  11.071   7.510  0.1858  0.3035 -0.1626
  860loPI   C5A12747  16.540  11.218   7.770  0.2828  0.2311  0.0465
  860loPI   C6A12748  16.564  11.333   8.212 -0.0561 -0.1077  0.0066
  860loPI   C1B12749  17.398  10.003   6.682  0.0739  0.0966  0.1585
  860loPI   C2B12750  17.334  10.082   7.188 -0.0512 -0.2468 -0.3187
  860loPI   C3B12751  17.438  10.320   7.569  0.1293 -0.1292  0.4094
  860loPI   C4B12752  17.299  10.558   7.982 -0.0410 -0.2994  0.0396
  861loPI    C112753  15.749   4.046   5.132 -0.1903 -0.1531  0.1527
  861loPI    C212754  15.794   4.443   5.139 -0.0077 -0.1702  0.0138
  861loPI    C312755  15.970   4.226   4.853 -0.2994 -0.3283 -0.0502
  861loPI   PO412756  15.519   4.000   5.318 -0.1269 -0.1496 -0.5813
  861loPI   GL112757  15.452   4.020   5.777  0.0297  0.1467  0.0411
  861loPI   GL212758  15.115   3.897   5.775 -0.1685 -0.0548 -0.0796
  861loPI   C1A12759  15.467   4.226   6.096  0.0186 -0.2361 -0.2599
  861loPI   C2A12760  15.462   4.161   6.475  0.1455  0.1027  0.1287
  861loPI   C3A12761  15.453   4.295   6.790  0.0280 -0.0056 -0.1022
  861loPI   C4A12762  15.294   4.303   7.316 -0.1938  0.0179  0.1154
  861loPI   C5A12763  15.142   4.338   7.710  0.2982  0.0255  0.0060
  861loPI   C6A12764  14.801   4.430   7.746 -0.1250  0.1747 -0.0761
  861loPI   C1B12765  15.020   3.755   6.202 -0.0433  0.4130 -0.0718
  861loPI   C2B12766  15.311   3.779   6.696  0.1731  0.1666 -0.1992
  861loPI   C3B12767  15.223   3.838   7.207  0.0801  0.1690  0.0995
  861loPI   C4B12768  15.147   3.796   7.583 -0.1182  0.1491  0.0301
  862loPI    C112769  13.579  14.145   4.854 -0.0998  0.0252  0.0058
  862loPI    C212770  13.889  14.026   4.631  0.0661 -0.1172  0.3055
  862loPI    C312771  13.515  13.954   4.508  0.1495 -0.0036 -0.0266
  862loPI   PO412772  13.537  14.006   5.176  0.0401 -0.2437 -0.0266
  862loPI   GL112773  13.732  13.887   5.587  0.0358  0.1232  0.2546
  862loPI   GL212774  13.395  13.571   5.546  0.1076 -0.1818 -0.1904
  862loPI   C1A12775  13.667  13.770   6.043 -0.0164 -0.0111 -0.4704
  862loPI   C2A12776  13.694  13.636   6.375  0.0917  0.0088 -0.0965
  862loPI   C3A12777  13.871  13.595   6.736 -0.0535  0.0930 -0.2167
  862loPI   C4A12778  14.004  13.724   7.095  0.4583  0.0562  0.1223
  862loPI   C5A12779  14.257  13.785   7.446 -0.1168 -0.0068  0.2456
  862loPI   C6A12780  14.593  13.561   7.406  0.0464 -0.1334  0.0067
  862loPI   C1B12781  13.227  13.552   5.963  0.0276 -0.0976 -0.1305
  862loPI   C2B12782  13.242  13.449   6.327 -0.0053 -0.0936 -0.1915
  862loPI   C3B12783  13.022  13.251   6.682  0.1979  0.3376  0.1765
  862loPI   C4B12784  12.897  13.421   7.095 -0.1255 -0.3647  0.1355
  863loPI    C112785   5.625   6.438   5.035 -0.2070  0.0244 -0.0195
  863loPI    C212786   5.366   6.702   4.883 -0.1457  0.1258  0.0515
  863loPI    C312787   5.700   6.612   4.682 -0.2798 -0.0751 -0.0846
  863loPI   PO412788   5.631   6.490   5.265  0.2784  0.0717  0.0009
  863loPI   GL112789   5.656   6.696   5.552  0.0831  0.0346  0.2445
  863loPI   GL212790   5.497   6.952   5.694 -0.2437  0.1467 -0.2319
  863loPI   C1A12791   5.654   6.591   6.040  0.0491  0.0206 -0.0523
  863loPI   C2A12792   5.323   6.524   6.362 -0.0118  0.2050 -0.0056
  863loPI   C3A12793   5.171   6.269   6.714 -0.2044  0.1215  0.0031
  863loPI   C4A12794   5.114   6.360   7.148  0.0116  0.3773  0.1277
  863loPI   C5A12795   4.987   6.425   7.573 -0.1885 -0.0558  0.0998
  863loPI   C6A12796   4.925   6.779   7.840 -0.1923 -0.0341  0.1376
  863loPI   C1B12797   5.295   7.052   6.050  0.0701  0.0919 -0.2140
  863loPI   C2B12798   5.189   7.216   6.454  0.1806 -0.0971  0.3949
  863loPI   C3B12799   5.078   7.149   6.933  0.1915  0.2367 -0.2283
  863loPI   C4B12800   4.904   6.960   7.277  0.3730  0.1641 -0.0495
  864loPI    C112801  13.505  12.054   5.334 -0.1674 -0.0596 -0.0895
  864loPI    C212802  13.268  12.301   5.126 -0.1309 -0.0488 -0.1183
  864loPI    C312803  13.247  11.906   5.066 -0.0327 -0.0373 -0.2330
  864loPI   PO412804  13.435  12.143   5.572  0.3019  0.1461 -0.1152
  864loPI   GL112805  13.404  11.941   5.962  0.0109 -0.4312  0.0690
  864loPI   GL212806  13.686  11.820   6.112 -0.2298 -0.1810 -0.3581
  864loPI   C1A12807  13.226  12.109   6.365  0.1215  0.4594  0.0254
  864loPI   C2A12808  13.120  12.271   6.798  0.3875  0.0165 -0.3507
  864loPI   C3A12809  12.790  12.226   7.002 -0.0146  0.0886  0.2949
  864loPI   C4A12810  12.523  12.539   7.256  0.1067 -0.0849  0.0814
  864loPI   C5A12811  12.168  12.634   7.401 -0.0743 -0.0352  0.2617
  864loPI   C6A12812  11.970  13.000   7.514  0.0648  0.5119  0.1913
  864loPI   C1B12813  13.874  12.046   6.443 -0.1779 -0.0408  0.1076
  864loPI   C2B12814  14.194  12.132   6.835  0.0468  0.1264 -0.0752
  864loPI   C3B12815  14.265  12.126   7.246  0.1564  0.2183 -0.3165
  864loPI   C4B12816  14.219  12.219   7.645 -0.0676 -0.0332 -0.1146
  865loPI    C112817  12.240  11.537   5.175 -0.0912 -0.0398  0.1023
  865loPI    C212818  12.580  11.747   5.151  0.0170 -0.2251 -0.0031
  865loPI    C312819  12.251  11.877   4.964  0.0462 -0.0788  0.0460
  865loPI   PO412820  12.180  11.499   5.425 -0.1360  0.0582 -0.0737
  865loPI   GL112821  12.127  11.413   5.830 -0.2098  0.1804  0.2762
  865loPI   GL212822  11.892  11.314   5.979 -0.1326  0.2389 -0.0278
  865loPI   C1A12823  12.405  11.448   6.096  0.1550 -0.2962 -0.0001
  865loPI   C2A12824  12.346  11.632   6.504  0.1550  0.3061 -0.1239
  865loPI   C3A12825  12.267  11.176   6.764 -0.0177 -0.3119 -0.1463
  865loPI   C4A12826  12.150  10.869   7.120  0.0015 -0.3312 -0.2961
  865loPI   C5A12827  12.034  10.565   7.505  0.1340  0.0972 -0.2620
  865loPI   C6A12828  11.649  10.448   7.655  0.0550 -0.0023  0.2103
  865loPI   C1B12829  11.973  11.364   6.391 -0.2110 -0.1987 -0.1046
  865loPI   C2B12830  11.769  11.502   6.820 -0.1958  0.0373 -0.0569
  865loPI   C3B12831  11.835  11.291   7.119 -0.0752  0.2871  0.2870
  865loPI   C4B12832  11.778  11.025   7.455  0.1439  0.0038  0.0350
  866loPI    C112833  13.840  10.090   5.376 -0.2404  0.0085 -0.1095
  866loPI    C212834  13.662   9.747   5.271  0.0278 -0.1002 -0.2190
  866loPI    C312835  13.666  10.056   5.018  0.0013 -0.0999 -0.2190
  866loPI   PO412836  13.736  10.150   5.720  0.1522 -0.4898  0.1637
  866loPI   GL112837  13.747  10.047   6.079  0.1726 -0.2045 -0.1664
  866loPI   GL212838  13.931   9.807   6.225  0.2951 -0.0438  0.1648
  866loPI   C1A12839  13.465   9.886   6.440  0.2098  0.1178  0.1270
  866loPI   C2A12840  13.492   9.861   6.878 -0.1001  0.1312 -0.0074
  866loPI   C3A12841  13.332   9.925   7.335 -0.1883 -0.5973  0.2157
  866loPI   C4A12842  13.327  10.014   7.691  0.0695 -0.2763  0.0155
  866loPI   C5A12843  13.276  10.255   8.017  0.3578  0.0952  0.0632
  866loPI   C6A12844  13.096  10.262   8.442 -0.0373 -0.2426  0.1339
  866loPI   C1B12845  13.899  10.087   6.613 -0.1564  0.2590 -0.1110
  866loPI   C2B12846  13.958  10.099   7.053  0.2772 -0.1562  0.0499
  866loPI   C3B12847  14.182  10.299   7.297  0.0138 -0.0582 -0.0662
  866loPI   C4B12848  14.560  10.579   7.466  0.0476  0.2983  0.0969
  867loPI    C112849  11.411   3.486   4.913 -0.0233  0.1439  0.0789
  867loPI    C212850  11.269   3.782   4.685  0.0684  0.1456  0.0233
  867loPI    C312851  11.472   3.481   4.518 -0.1289 -0.0121  0.0635
  867loPI   PO412852  11.268   3.365   5.094 -0.0593 -0.2214  0.2838
  867loPI   GL112853  11.338   3.148   5.420  0.2092  0.0772  0.1014
  867loPI   GL212854  11.083   3.027   5.539 -0.1044 -0.1982  0.0687
  867loPI   C1A12855  11.743   3.229   5.677 -0.1744  0.0880  0.0191
  867loPI   C2A12856  11.615   3.161   6.214 -0.1739 -0.2508  0.0680
  867loPI   C3A12857  11.760   3.218   6.570 -0.0877 -0.0578  0.1013
  867loPI   C4A12858  11.522   3.363   7.036 -0.1278 -0.3641  0.0900
  867loPI   C5A12859  11.596   3.225   7.410  0.1945  0.0631 -0.0705
  867loPI   C6A12860  12.004   3.019   7.487 -0.0044 -0.1457 -0.0174
  867loPI   C1B12861  10.865   2.753   5.720  0.3220  0.0724 -0.1690
  867loPI   C2B12862  10.657   2.407   5.930  0.1495 -0.1460  0.1319
  867loPI   C3B12863  10.593   2.532   6.393 -0.1216  0.1038  0.0453
  867loPI   C4B12864  10.355   2.657   6.767  0.1228 -0.1613 -0.0786
  868loPI    C112865  12.257  15.630   4.640  0.0024  0.1187 -0.0619
  868loPI    C212866  11.972  15.424   4.449  0.1510  0.0138 -0.1734
  868loPI    C312867  12.294  15.235   4.591  0.1077  0.1126  0.0623
  868loPI   PO412868  12.112  15.808   4.860  0.0850 -0.1290 -0.1573
  868loPI   GL112869  12.024  15.869   5.311  0.1615 -0.0811  0.1345
  868loPI   GL212870  12.069  16.115   5.422  0.1342  0.3376  0.3032
  868loPI   C1A12871  11.854  15.707   5.642 -0.3510 -0.0333  0.0989
  868loPI   C2A12872  11.547  15.425   5.804  0.2535 -0.2957  0.1756
  868loPI   C3A12873  11.118  15.273   5.801 -0.1865 -0.3129  0.0139
  868loPI   C4A12874  10.990  15.259   6.229 -0.2322  0.1531 -0.1764
  868loPI   C5A12875  11.073  15.290   6.761 -0.0066 -0.1229  0.2750
  868loPI   C6A12876  11.234  15.431   7.145 -0.0450  0.0142 -0.2558
  868loPI   C1B12877  12.133  16.182   5.856  0.3708 -0.2251 -0.2613
  868loPI   C2B12878  12.145  16.037   6.273  0.0003 -0.3677  0.6085
  868loPI   C3B12879  12.205  16.026   6.763  0.2171  0.2953 -0.0276
  868loPI   C4B12880  12.179  15.872   7.273 -0.0231 -0.2162  0.0890
  869loPI    C112881   4.018  18.514   5.208  0.1492  0.1564  0.0903
  869loPI    C212882   3.978  18.912   5.190 -0.0066  0.1379  0.0005
  869loPI    C312883   4.188  18.718   4.909 -0.1139  0.1346 -0.0781
  869loPI   PO412884   4.075  18.409   5.396 -0.1508  0.2694 -0.2403
  869loPI   GL112885   4.131  18.310   5.800  0.1043 -0.1787  0.1384
  869loPI   GL212886   4.318  18.564   5.794 -0.1255 -0.2659  0.0220
  869loPI   C1A12887   4.572  18.149   5.980 -0.3482  0.2197  0.0025
  869loPI   C2A12888   4.671  18.200   6.311  0.0224  0.4805 -0.2676
  869loPI   C3A12889   4.809  18.320   6.645  0.1833 -0.0065 -0.0013
  869loPI   C4A12890   5.067  18.218   6.863 -0.4218 -0.0015 -0.1154
  869loPI   C5A12891   5.171  17.982   7.186 -0.0428 -0.0150  0.0516
  869loPI   C6A12892   5.385  17.811   7.496  0.1218 -0.1356  0.1576
  869loPI   C1B12893   4.374  18.606   6.222  0.2040  0.1293 -0.1726
  869loPI   C2B12894   4.520  18.713   6.610  0.0356 -0.4366 -0.3924
  869loPI   C3B12895   4.442  18.521   6.973  0.0666  0.2771  0.0407
  869loPI   C4B12896   4.365  18.723   7.391 -0.1489  0.2666  0.0739
  870loPI    C112897  15.073   7.120   5.472  0.1531  0.3559  0.1718
  870loPI    C212898  15.338   7.243   5.198  0.0295 -0.1142 -0.1721
  870loPI    C312899  14.962   7.380   5.188  0.1742  0.3268  0.1368
  870loPI   PO412900  15.252   7.078   5.672 -0.1841  0.2678  0.0913
  870loPI   GL112901  15.253   6.897   6.065  0.0876 -0.2305  0.0201
  870loPI   GL212902  15.285   6.590   6.007 -0.2074 -0.3349 -0.0552
  870loPI   C1A12903  15.333   7.018   6.528  0.0435  0.0202 -0.1340
  870loPI   C2A12904  15.395   6.943   6.984  0.0886 -0.1418  0.0670
  870loPI   C3A12905  15.343   6.839   7.456  0.1483 -0.0021 -0.1491
  870loPI   C4A12906  15.681   6.648   7.700 -0.3311  0.1404 -0.0996
  870loPI   C5A12907  15.886   6.397   7.895  0.1447  0.0620 -0.3352
  870loPI   C6A12908  16.243   6.456   7.954 -0.3756  0.4093 -0.4102
  870loPI   C1B12909  15.069   6.522   6.372  0.0079  0.2539  0.1565
  870loPI   C2B12910  15.119   6.610   6.815 -0.0478  0.0580  0.2096
  870loPI   C3B12911  15.121   6.413   7.214 -0.0039 -0.0433 -0.2154
  870loPI   C4B12912  14.891   6.543   7.634  0.2139 -0.1878 -0.0285
  871loPI    C112913   1.952  18.694   5.255  0.1601  0.0109 -0.0727
  871loPI    C212914   2.262  18.891   5.097 -0.0054  0.2756 -0.0752
  871loPI    C312915   2.017  18.682   4.860  0.2385 -0.0367 -0.0583
  871loPI   PO412916   1.917  18.843   5.440  0.0366 -0.2301 -0.0979
  871loPI   GL112917   1.651  19.086   5.836 -0.1808 -0.0350  0.1718
  871loPI   GL212918   1.591  19.255   6.118  0.0989 -0.3866  0.0882
  871loPI   C1A12919   1.506  18.719   6.093 -0.1615  0.0742 -0.0653
  871loPI   C2A12920   1.621  18.470   6.318 -0.2042  0.0210  0.0482
  871loPI   C3A12921   1.619  18.441   6.688  0.1302  0.0336 -0.2393
  871loPI   C4A12922   1.592  18.410   7.145 -0.2356 -0.0726  0.2095
  871loPI   C5A12923   1.469  18.273   7.525  0.3125 -0.0879 -0.1290
  871loPI   C6A12924   1.083  18.456   7.837 -0.1357 -0.0369 -0.1617
  871loPI   C1B12925   1.943  18.877   6.219  0.0539 -0.1580 -0.1145
  871loPI   C2B12926   2.083  18.704   6.573 -0.0751  0.2777  0.0399
  871loPI   C3B12927   2.033  18.597   7.008  0.2335 -0.1040 -0.1740
  871loPI   C4B12928   2.277  18.675   7.319 -0.0955 -0.0474  0.2365
  872loPI    C112929  13.020   4.587   5.037 -0.2662  0.0940  0.1332
  872loPI    C212930  13.024   4.431   4.669 -0.2526 -0.1584  0.2387
  872loPI    C312931  12.805   4.757   4.745 -0.1697 -0.0404 -0.0176
  872loPI   PO412932  12.925   4.350   5.232  0.0260 -0.0294  0.0308
  872loPI   GL112933  12.932   4.000   5.427  0.1294 -0.0375  0.1499
  872loPI   GL212934  12.870   3.688   5.324  0.2035 -0.3426 -0.0369
  872loPI   C1A12935  12.713   4.067   5.829 -0.2404  0.0016 -0.1420
  872loPI   C2A12936  12.646   4.002   6.231  0.1311 -0.4065  0.2833
  872loPI   C3A12937  12.558   4.015   6.646 -0.1820  0.4228 -0.5448
  872loPI   C4A12938  12.718   4.136   7.014  0.1986 -0.1110  0.0453
  872loPI   C5A12939  12.928   4.168   7.344  0.2287  0.0639  0.0459
  872loPI   C6A12940  12.981   4.162   7.766  0.1927  0.0790 -0.1206
  872loPI   C1B12941  12.529   3.606   5.624  0.0678 -0.0394  0.1894
  872loPI   C2B12942  12.512   3.531   6.054 -0.0259 -0.1311  0.0059
  872loPI   C3B12943  12.597   3.511   6.447 -0.0862  0.0286 -0.1084
  872loPI   C4B12944  12.629   3.319   6.771  0.2418  0.3086  0.1658
  873loPI    C112945  12.156  18.237   5.086 -0.0206 -0.1630 -0.0767
  873loPI    C212946  11.812  18.249   4.883 -0.1411 -0.0084  0.1328
  873loPI    C312947  12.159  18.305   4.691 -0.2690  0.3893  0.0080
  873loPI   PO412948  12.105  18.362   5.278 -0.1824 -0.0914 -0.1389
  873loPI   GL112949  11.815  18.392   5.675  0.1661 -0.2570  0.1509
  873loPI   GL212950  12.009  18.148   5.792 -0.0437 -0.1740  0.1667
  873loPI   C1A12951  11.671  18.343   6.122 -0.1433 -0.1955 -0.1134
  873loPI   C2A12952  11.771  18.393   6.574 -0.2126  0.1849  0.0615
  873loPI   C3A12953  11.967  18.399   7.039  0.4906  0.1738 -0.0176
  873loPI   C4A12954  12.139  18.125   7.409 -0.0620 -0.1174 -0.1695
  873loPI   C5A12955  12.249  17.743   7.757  0.2616 -0.0583  0.2830
  873loPI   C6A12956  12.171  17.285   7.772 -0.0357 -0.1727 -0.0714
  873loPI   C1B12957  12.170  18.152   6.192 -0.2586  0.2537 -0.1158
  873loPI   C2B12958  12.140  18.089   6.622 -0.1360 -0.0318  0.0368
  873loPI   C3B12959  12.389  18.053   6.930  0.0341  0.0595 -0.1169
  873loPI   C4B12960  12.634  17.952   7.240  0.0966 -0.0440  0.1576
  874loPI    C112961  14.473   7.090   5.224 -0.1978  0.0096  0.0201
  874loPI    C212962  14.089   7.033   5.125 -0.1608 -0.0337 -0.0989
  874loPI    C312963  14.370   7.047   4.840 -0.0242 -0.3822  0.0128
  874loPI   PO412964  14.509   7.173   5.478  0.1604 -0.1722 -0.0144
  874loPI   GL112965  14.707   7.046   5.851 -0.1588 -0.0427 -0.0528
  874loPI   GL212966  14.415   7.290   5.966 -0.2404 -0.1296  0.1552
  874loPI   C1A12967  14.869   7.031   6.323  0.2029 -0.1077  0.0896
  874loPI   C2A12968  14.907   7.091   6.765 -0.2341  0.1636  0.0859
  874loPI   C3A12969  15.017   7.230   7.195  0.0130 -0.3838  0.0405
  874loPI   C4A12970  14.883   7.502   7.563  0.2018 -0.3013 -0.0886
  874loPI   C5A12971  14.481   7.364   7.801 -0.0897 -0.3029 -0.1169
  874loPI   C6A12972  14.203   7.089   8.040  0.2318 -0.1245  0.1465
  874loPI   C1B12973  14.321   7.067   6.395 -0.1168  0.0515  0.1416
  874loPI   C2B12974  14.340   7.200   6.758  0.1546 -0.0975  0.0621
  874loPI   C3B12975  14.518   7.056   7.177 -0.3047  0.0861 -0.2234
  874loPI   C4B12976  14.816   6.774   7.199 -0.0736  0.1253  0.0617
  875loPI    C112977  11.632   2.706   4.853 -0.1090  0.3466  0.1156
  875loPI    C212978  11.375   2.537   4.597  0.2154  0.0926 -0.0503
  875loPI    C312979  11.411   2.935   4.611 -0.1207  0.1271 -0.0851
  875loPI   PO412980  11.620   2.523   5.057 -0.0918  0.4005  0.1325
  875loPI   GL112981  11.532   2.693   5.400  0.1520 -0.0724 -0.1992
  875loPI   GL212982  11.820   2.844   5.397 -0.1612  0.0483 -0.2241
  875loPI   C1A12983  11.440   2.825   5.834 -0.0556 -0.0189  0.1211
  875loPI   C2A12984  11.378   2.744   6.337  0.0238  0.0379 -0.0426
  875loPI   C3A12985  11.338   2.697   6.788 -0.0729  0.0651 -0.0123
  875loPI   C4A12986  11.528   2.852   7.086  0.1815  0.0251 -0.0805
  875loPI   C5A12987  11.464   2.776   7.505 -0.1074 -0.2510 -0.1978
  875loPI   C6A12988  11.209   3.074   7.778 -0.1434 -0.0400 -0.0097
  875loPI   C1B12989  11.970   2.798   5.795  0.2662  0.0029 -0.2060
  875loPI   C2B12990  11.931   2.719   6.329 -0.1117  0.1692 -0.2046
  875loPI   C3B12991  11.874   2.778   6.742 -0.2128  0.0020 -0.1014
  875loPI   C4B12992  11.945   2.603   7.147  0.1504  0.3217 -0.1908
  876loPI    C112993  12.927   9.878   5.343 -0.1163  0.2070  0.0109
  876loPI    C212994  13.179   9.798   5.042  0.0269 -0.1170  0.2112
  876loPI    C312995  12.784   9.788   4.981  0.0571  0.0314 -0.0164
  876loPI   PO412996  12.971   9.743   5.578  0.1051  0.2630 -0.1064
  876loPI   GL112997  12.871   9.506   5.893  0.2138  0.2084  0.0885
  876loPI   GL212998  12.629   9.595   5.999  0.0790  0.0146 -0.1709
  876loPI   C1A12999  13.015   9.593   6.326  0.0752  0.0744 -0.1027
  876loPI   C2A13000  12.995   9.753   6.784 -0.1674 -0.0589  0.1751
  876loPI   C3A13001  12.972   9.619   7.175 -0.1730 -0.0847 -0.2359
  876loPI   C4A13002  12.991   9.668   7.646 -0.0901  0.0359  0.0345
  876loPI   C5A13003  12.979   9.338   8.043 -0.1708  0.1328  0.0627
  876loPI   C6A13004  12.782   8.925   8.183 -0.0185  0.2280 -0.1540
  876loPI   C1B13005  12.514   9.535   6.417 -0.0565  0.3022  0.0703
  876loPI   C2B13006  12.549   9.520   6.833  0.0820 -0.2253 -0.1610
  876loPI   C3B13007  12.547   9.317   7.177 -0.3002 -0.0717 -0.1737
  876loPI   C4B13008  12.544   9.266   7.576  0.1713  0.1684 -0.2830
  877loPI    C113009   9.665   5.225   5.263  0.1143  0.0829  0.0356
  877loPI    C213010   9.834   5.274   4.903 -0.1627  0.3242 -0.0663
  877loPI    C313011   9.627   5.573   5.069 -0.2107  0.1453  0.2039
  877loPI   PO413012   9.813   5.223   5.465 -0.2955 -0.0229  0.1637
  877loPI   GL113013   9.920   4.961   5.745 -0.2474  0.0079 -0.0502
  877loPI   GL213014  10.075   5.086   5.997  0.1960  0.2034 -0.0448
  877loPI   C1A13015   9.860   4.606   6.138 -0.0684  0.3627  0.2703
  877loPI   C2A13016   9.943   4.436   6.543 -0.4503  0.0237 -0.1287
  877loPI   C3A13017   9.907   4.345   7.027 -0.2507 -0.0314 -0.0738
  877loPI   C4A13018   9.754   4.343   7.389  0.0301 -0.1927  0.0257
  877loPI   C5A13019   9.700   4.622   7.812 -0.0617 -0.1609  0.1798
  877loPI   C6A13020   9.853   5.041   7.917  0.1647  0.2282  0.1036
  877loPI   C1B13021  10.099   4.972   6.404 -0.3389 -0.0260 -0.1723
  877loPI   C2B13022  10.162   4.840   6.798  0.1317  0.2402  0.1334
  877loPI   C3B13023  10.224   4.780   7.204 -0.1037  0.1065 -0.0748
  877loPI   C4B13024  10.196   4.590   7.510 -0.0318  0.0241 -0.1015
  878loPI    C113025  14.445   6.261   5.341  0.1526  0.0526  0.0360
  878loPI    C213026  14.125   6.251   5.101  0.2169 -0.2117 -0.0422
  878loPI    C313027  14.282   6.602   5.210 -0.1581 -0.0762  0.0782
  878loPI   PO413028  14.327   6.234   5.640 -0.0789  0.1704 -0.1486
  878loPI   GL113029  14.430   6.398   6.043 -0.0292  0.0402 -0.2554
  878loPI   GL213030  14.700   6.627   6.080 -0.2182  0.0672 -0.4085
  878loPI   C1A13031  14.242   6.233   6.440  0.0877  0.0555  0.0657
  878loPI   C2A13032  14.122   6.189   6.893 -0.0404 -0.0363 -0.0770
  878loPI   C3A13033  13.910   6.318   7.200 -0.3321  0.0706 -0.2935
  878loPI   C4A13034  13.790   6.053   7.495  0.2103  0.0566  0.1031
  878loPI   C5A13035  13.403   5.872   7.884 -0.2716  0.0334 -0.0913
  878loPI   C6A13036  12.991   5.662   8.090 -0.0454 -0.0197  0.2100
  878loPI   C1B13037  14.656   6.678   6.549  0.2049  0.1067  0.0702
  878loPI   C2B13038  14.455   6.664   6.851 -0.2181 -0.0308 -0.0644
  878loPI   C3B13039  14.376   6.552   7.312  0.3927  0.0677  0.1635
  878loPI   C4B13040  14.431   6.770   7.728 -0.2068  0.0189  0.0193
  879loPI    C113041   8.337   8.571   5.535  0.1094  0.0778 -0.0926
  879loPI    C213042   8.212   8.396   5.198 -0.0012  0.1590 -0.0943
  879loPI    C313043   8.586   8.534   5.225 -0.0220  0.2420 -0.2198
  879loPI   PO413044   8.115   8.749   5.590  0.0674 -0.0204  0.0041
  879loPI   GL113045   7.926   8.625   5.977 -0.1068  0.0116  0.4158
  879loPI   GL213046   7.757   8.916   5.936 -0.1785 -0.1276  0.0302
  879loPI   C1A13047   7.891   8.963   6.419 -0.0571 -0.0309  0.1740
  879loPI   C2A13048   8.009   9.149   6.779 -0.2074 -0.0800 -0.2731
  879loPI   C3A13049   8.132   9.092   7.252 -0.0789 -0.0868  0.0017
  879loPI   C4A13050   8.020   8.880   7.597  0.1508 -0.0222  0.1128
  879loPI   C5A13051   8.133   8.605   7.979  0.1369  0.2193  0.0440
  879loPI   C6A13052   8.492   8.339   8.035 -0.1473  0.2884  0.2150
  879loPI   C1B13053   7.569   8.646   6.260 -0.1962 -0.0043  0.1204
  879loPI   C2B13054   7.442   8.417   6.654 -0.1637  0.1115 -0.0159
  879loPI   C3B13055   7.273   8.242   6.936  0.5770 -0.0631  0.0357
  879loPI   C4B13056   7.314   8.176   7.373 -0.1051 -0.0304  0.0962
  880loPI    C113057  10.437   8.576   5.397 -0.2399  0.1067  0.1224
  880loPI    C213058  10.242   8.266   5.558  0.3051 -0.4024 -0.1547
  880loPI    C313059  10.098   8.444   5.229  0.0871 -0.4854 -0.1063
  880loPI   PO413060  10.576   8.620   5.657  0.1054 -0.0547 -0.2522
  880loPI   GL113061  10.493   8.645   5.995  0.0315 -0.0766  0.0574
  880loPI   GL213062  10.545   8.249   6.003 -0.4160 -0.1877 -0.1043
  880loPI   C1A13063  10.450   8.596   6.464 -0.2363 -0.1247  0.1690
  880loPI   C2A13064  10.435   8.502   6.821 -0.3292  0.0693 -0.0034
  880loPI   C3A13065  10.591   8.190   7.182  0.1187  0.0003 -0.0991
  880loPI   C4A13066  10.395   8.128   7.630 -0.0376  0.0100  0.1584
  880loPI   C5A13067  10.135   8.017   7.865  0.0093 -0.0445  0.0628
  880loPI   C6A13068   9.727   7.975   7.960 -0.0677 -0.0679  0.1671
  880loPI   C1B13069  10.465   8.106   6.389  0.0279 -0.3004  0.3502
  880loPI   C2B13070  10.270   8.042   6.763 -0.2524  0.2688  0.0775
  880loPI   C3B13071  10.106   8.069   7.172  0.1057  0.0279  0.0317
  880loPI   C4B13072   9.973   7.725   7.534  0.0469  0.1701  0.2637
  881loPI    C113073   6.119   7.570   5.390  0.0054  0.2366 -0.1119
  881loPI    C213074   6.423   7.718   5.176  0.1046  0.1043 -0.0638
  881loPI    C313075   6.253   7.371   5.070 -0.0827  0.2172 -0.1370
  881loPI   PO413076   6.033   7.787   5.510  0.2319  0.1086 -0.0210
  881loPI   GL113077   5.744   7.997   5.789 -0.0394 -0.1578 -0.4132
  881loPI   GL213078   5.733   8.232   5.570 -0.0590  0.4372  0.3303
  881loPI   C1A13079   5.654   8.033   6.203  0.0062 -0.1793  0.0286
  881loPI   C2A13080   5.559   8.083   6.702 -0.2632  0.2110  0.2182
  881loPI   C3A13081   5.616   7.814   7.058  0.0102 -0.4139  0.2284
  881loPI   C4A13082   5.958   7.567   7.388  0.0991 -0.4292 -0.0840
  881loPI   C5A13083   6.045   7.243   7.663 -0.2414  0.0480  0.0299
  881loPI   C6A13084   6.124   7.062   8.093 -0.1742 -0.2256 -0.1654
  881loPI   C1B13085   5.463   8.400   5.960 -0.0503 -0.2301 -0.1728
  881loPI   C2B13086   5.332   8.382   6.362 -0.0083  0.1639 -0.2191
  881loPI   C3B13087   5.103   8.300   6.671 -0.2021  0.0271 -0.0495
  881loPI   C4B13088   5.038   8.290   7.082  0.3089 -0.0866  0.2510
  882loPI    C113089  12.766  11.309   5.254  0.1739 -0.0815 -0.1119
  882loPI    C213090  12.895  11.105   4.935  0.0429 -0.0722 -0.1714
  882loPI    C313091  12.505  11.109   5.027  0.0692 -0.0047 -0.0603
  882loPI   PO413092  12.990  11.327   5.522 -0.1228  0.0150 -0.1999
  882loPI   GL113093  13.164  11.504   6.028 -0.1486 -0.0930  0.0026
  882loPI   GL213094  12.952  11.841   6.089 -0.0041  0.2917 -0.0189
  882loPI   C1A13095  13.274  11.561   6.476 -0.1965  0.1858 -0.2040
  882loPI   C2A13096  13.455  11.915   6.699 -0.0769  0.0101 -0.0630
  882loPI   C3A13097  13.650  12.132   7.061 -0.3291 -0.0005 -0.1794
  882loPI   C4A13098  13.742  12.215   7.398 -0.1216 -0.1038  0.0453
  882loPI   C5A13099  13.883  12.547   7.768  0.0109  0.1567 -0.1501
  882loPI   C6A13100  13.826  12.740   8.104 -0.1758 -0.1610  0.0657
  882loPI   C1B13101  12.721  11.980   6.445  0.0259  0.0140 -0.0521
  882loPI   C2B13102  12.866  11.779   6.732 -0.2830 -0.0105  0.1234
  882loPI   C3B13103  13.108  11.827   7.195 -0.1033 -0.0056  0.1561
  882loPI   C4B13104  13.210  12.223   7.281  0.0179 -0.3857 -0.0061
  883loPI    C113105   8.878   6.629   5.163 -0.2235  0.2765  0.1730
  883loPI    C213106   8.562   6.601   4.919  0.0326 -0.5019 -0.0994
  883loPI    C313107   8.917   6.715   4.774  0.0265 -0.2586  0.0707
  883loPI   PO413108   8.836   6.595   5.394 -0.0309  0.4098 -0.1888
  883loPI   GL113109   8.896   6.670   5.840 -0.2998  0.2561  0.4621
  883loPI   GL213110   8.971   6.324   5.902  0.0566 -0.0986  0.0452
  883loPI   C1A13111   8.799   6.770   6.234  0.0154 -0.0397 -0.3685
  883loPI   C2A13112   8.879   6.784   6.704  0.0195  0.0879 -0.0898
  883loPI   C3A13113   8.987   6.714   7.097  0.3640  0.1021  0.1988
  883loPI   C4A13114   9.165   6.636   7.602  0.2653  0.0999  0.2973
  883loPI   C5A13115   9.189   6.288   7.948  0.1386  0.2522 -0.0786
  883loPI   C6A13116   9.036   5.911   7.957  0.0988  0.1318 -0.2593
  883loPI   C1B13117   8.790   6.011   6.000  0.1034  0.0901  0.1851
  883loPI   C2B13118   8.682   5.552   6.096  0.2780  0.1213  0.0809
  883loPI   C3B13119   8.581   5.244   6.458 -0.1916  0.1412 -0.1155
  883loPI   C4B13120   8.561   5.107   6.876  0.1535 -0.0005  0.3219
  884loPI    C113121   2.494   2.206   5.246  0.2192  0.4372 -0.0486
  884loPI    C213122   2.215   2.407   5.451 -0.1104 -0.1939  0.1492
  884loPI    C313123   2.154   2.317   5.067  0.0571  0.1096  0.0479
  884loPI   PO413124   2.622   1.949   5.431 -0.1690  0.1410 -0.0303
  884loPI   GL113125   2.912   1.919   5.712  0.1249  0.1011 -0.1518
  884loPI   GL213126   2.836   1.647   5.805  0.2507 -0.0603 -0.2030
  884loPI   C1A13127   2.777   2.077   6.050  0.0313 -0.0464 -0.0677
  884loPI   C2A13128   2.659   2.055   6.512 -0.1941 -0.3233 -0.1061
  884loPI   C3A13129   2.693   2.067   6.877 -0.0866 -0.1090 -0.2429
  884loPI   C4A13130   2.950   2.153   7.234  0.1717 -0.0664  0.0060
  884loPI   C5A13131   3.239   2.215   7.520 -0.3151 -0.3327  0.0083
  884loPI   C6A13132   3.546   1.999   7.739 -0.0098  0.2460 -0.0824
  884loPI   C1B13133   2.516   1.653   6.123  0.0102 -0.0693  0.1507
  884loPI   C2B13134   2.062   1.495   6.172 -0.0734  0.0401 -0.1614
  884loPI   C3B13135   1.722   1.113   6.128 -0.1530 -0.1318  0.1618
  884loPI   C4B13136   1.381   1.011   6.443  0.1240 -0.0522  0.1628
  885loPI    C113137  16.538  14.741   5.097 -0.1527  0.1326 -0.0702
  885loPI    C213138  16.400  14.747   4.722  0.1917  0.0418 -0.2021
  885loPI    C313139  16.739  14.552   4.808 -0.0120 -0.1467  0.2037
  885loPI   PO413140  16.354  14.642   5.234 -0.0448 -0.2274 -0.2305
  885loPI   GL113141  16.265  14.646   5.733  0.3564 -0.0755  0.2875
  885loPI   GL213142  15.968  14.604   6.012 -0.2037 -0.0520  0.3993
  885loPI   C1A13143  16.495  14.598   6.132  0.3999  0.1379  0.1528
  885loPI   C2A13144  16.510  14.525   6.548  0.2526  0.3262 -0.0697
  885loPI   C3A13145  16.744  14.651   7.001  0.2531  0.3315 -0.3073
  885loPI   C4A13146  16.615  14.877   7.356  0.1146 -0.0348  0.0476
  885loPI   C5A13147  16.303  15.071   7.686 -0.1832 -0.1463 -0.3577
  885loPI   C6A13148  16.223  15.541   7.898  0.1515  0.0233 -0.0937
  885loPI   C1B13149  16.061  14.246   6.335 -0.0331 -0.2007  0.1000
  885loPI   C2B13150  16.174  14.233   6.710  0.1522  0.2711  0.1817
  885loPI   C3B13151  16.320  14.406   7.123 -0.0701  0.1677  0.1017
  885loPI   C4B13152  16.581  14.451   7.539 -0.3831 -0.1013  0.0687
  886loPI    C113153  15.309  11.840   5.733 -0.0748  0.0119  0.0867
  886loPI    C213154  14.980  11.634   5.637 -0.2781  0.3161  0.1149
  886loPI    C313155  15.178  11.838   5.355  0.0499 -0.0871  0.0433
  886loPI   PO413156  15.391  11.706   5.895 -0.1047  0.1596 -0.0454
  886loPI   GL113157  15.151  11.509   6.163  0.0333 -0.1497  0.2156
  886loPI   GL213158  14.957  11.222   5.967 -0.1500 -0.1377 -0.2038
  886loPI   C1A13159  15.150  11.614   6.607 -0.1650 -0.1039  0.0930
  886loPI   C2A13160  15.139  11.807   6.934  0.0475  0.2258 -0.1250
  886loPI   C3A13161  15.210  11.851   7.346 -0.0854  0.2258  0.1756
  886loPI   C4A13162  14.973  12.024   7.598 -0.1231  0.1781 -0.1097
  886loPI   C5A13163  14.915  12.085   7.996 -0.0265  0.2187 -0.0139
  886loPI   C6A13164  14.484  12.290   8.135  0.2107  0.0497  0.0499
  886loPI   C1B13165  15.134  11.075   6.333  0.1211 -0.0580 -0.0847
  886loPI   C2B13166  14.988  10.739   6.598 -0.2720  0.1046  0.0370
  886loPI   C3B13167  14.841  10.762   6.999 -0.0271  0.1273 -0.0468
  886loPI   C4B13168  14.738  10.949   7.254  0.2249  0.1784 -0.2060
  887loPI    C113169  10.823   1.145   4.912  0.0013 -0.0137  0.2086
  887loPI    C213170  10.597   0.841   4.784 -0.0554  0.0634  0.1252
  887loPI    C313171  10.525   1.213   4.655  0.3684  0.0350 -0.2169
  887loPI   PO413172  10.714   1.055   5.288  0.0616 -0.0097 -0.1088
  887loPI   GL113173  10.543   0.889   5.626  0.0802  0.0830 -0.2403
  887loPI   GL213174  10.834   0.827   5.844 -0.0233  0.3448 -0.1396
  887loPI   C1A13175  10.301   0.691   6.096  0.2443 -0.4606 -0.3456
  887loPI   C2A13176  10.425   0.506   6.434 -0.2092 -0.0354 -0.0927
  887loPI   C3A13177  10.476   0.191   6.719  0.1454 -0.0631 -0.2143
  887loPI   C4A13178  10.193   0.061   7.090  0.0502 -0.0949  0.1696
  887loPI   C5A13179  10.073  -0.211   7.418 -0.1564  0.1014  0.1832
  887loPI   C6A13180  10.242  -0.539   7.677 -0.4084 -0.0267  0.1762
  887loPI   C1B13181  10.729   0.887   6.269 -0.1954  0.0410 -0.5557
  887loPI   C2B13182  10.634   0.938   6.725 -0.1540  0.2003 -0.2545
  887loPI   C3B13183  10.466   0.889   7.107  0.1379 -0.0349  0.2352
  887loPI   C4B13184  10.292   0.640   7.470  0.0022  0.0455 -0.1163
  888loPI    C113185   7.855   6.731   5.118  0.0990 -0.0641 -0.0400
  888loPI    C213186   7.803   7.084   4.937  0.1822  0.0953  0.2398
  888loPI    C313187   8.152   6.892   4.904  0.1212  0.0146  0.0490
  888loPI   PO413188   7.851   6.693   5.455  0.1902  0.0992  0.6738
  888loPI   GL113189   7.527   6.556   5.844  0.0129  0.2354 -0.0092
  888loPI   GL213190   7.772   6.848   5.941  0.0707 -0.1172 -0.0661
  888loPI   C1A13191   7.520   6.465   6.276 -0.1444  0.1282 -0.1844
  888loPI   C2A13192   7.524   6.299   6.662  0.3521 -0.0724 -0.1469
  888loPI   C3A13193   7.289   6.275   7.040 -0.1235 -0.3279  0.0940
  888loPI   C4A13194   7.172   6.341   7.555 -0.0621  0.0119  0.0488
  888loPI   C5A13195   7.223   5.995   7.848 -0.0591 -0.2563 -0.0646
  888loPI   C6A13196   7.065   5.574   7.764  0.0897  0.2227  0.0916
  888loPI   C1B13197   7.813   6.860   6.408  0.1165  0.1091 -0.1861
  888loPI   C2B13198   7.715   6.750   6.731 -0.2372 -0.1532 -0.1125
  888loPI   C3B13199   7.527   6.805   7.142  0.1563 -0.3307  0.2397
  888loPI   C4B13200   7.669   7.063   7.591  0.0096 -0.1637 -0.1663
  889loPI    C113201  12.712  18.197   5.169  0.0661 -0.0670  0.1563
  889loPI    C213202  12.632  18.277   4.786  0.0087  0.1792  0.2181
  889loPI    C313203  12.541  17.919   4.938  0.1898  0.0196 -0.0421
  889loPI   PO413204  12.601  18.427   5.271 -0.2662  0.2634  0.1293
  889loPI   GL113205  12.478  18.348   5.661  0.4539 -0.2808 -0.0142
  889loPI   GL213206  12.705  18.158   5.721 -0.0653 -0.0602 -0.1280
  889loPI   C1A13207  12.454  18.561   6.038 -0.2170 -0.0639 -0.1449
  889loPI   C2A13208  12.288  18.590   6.482 -0.1528 -0.0632  0.1039
  889loPI   C3A13209  12.376  18.526   6.853  0.1361 -0.0532  0.0897
  889loPI   C4A13210  12.539  18.532   7.298 -0.1577 -0.1777  0.1138
  889loPI   C5A13211  12.635  18.302   7.709 -0.0066  0.3229 -0.1476
  889loPI   C6A13212  12.887  17.914   7.777  0.0524 -0.2213 -0.2488
  889loPI   C1B13213  12.609  17.957   6.094  0.1128  0.0601  0.2186
  889loPI   C2B13214  12.501  17.815   6.454 -0.1135  0.0013  0.1184
  889loPI   C3B13215  12.611  17.616   6.791  0.3568 -0.0256  0.0987
  889loPI   C4B13216  12.779  17.471   7.022 -0.2853  0.1430 -0.1828
  890loPI    C113217   9.828  11.911   5.600 -0.4013  0.0698  0.2569
  890loPI    C213218   9.743  11.930   5.209  0.2978 -0.4056  0.0617
  890loPI    C313219   9.919  12.240   5.391 -0.1901 -0.1137  0.0538
  890loPI   PO413220   9.527  11.820   5.810  0.0079  0.0646  0.0778
  890loPI   GL113221   9.183  11.611   5.904 -0.1883 -0.1836 -0.1697
  890loPI   GL213222   8.884  11.562   5.879 -0.2832 -0.2719 -0.0997
  890loPI   C1A13223   9.053  11.620   6.344  0.3341  0.0204 -0.0196
  890loPI   C2A13224   8.650  11.678   6.618 -0.2904  0.3375  0.2884
  890loPI   C3A13225   8.526  11.808   6.990  0.1028 -0.0406  0.1120
  890loPI   C4A13226   8.751  11.796   7.207 -0.1288 -0.6001 -0.0706
  890loPI   C5A13227   9.128  11.585   7.330  0.1288  0.2669  0.2691
  890loPI   C6A13228   9.421  11.156   7.548  0.2718  0.2521  0.1350
  890loPI   C1B13229   8.675  11.951   6.148 -0.0435 -0.0563  0.0248
  890loPI   C2B13230   8.829  12.095   6.477 -0.2980 -0.0358 -0.3273
  890loPI   C3B13231   9.056  12.006   6.752 -0.0811  0.0389  0.0327
  890loPI   C4B13232   9.227  11.963   7.085  0.1936  0.1668  0.2858
  891loPI    C113233  17.909  11.304   5.090 -0.2230 -0.0615  0.1444
  891loPI    C213234  17.664  11.619   5.055 -0.0474  0.0762  0.1426
  891loPI    C313235  17.970  11.574   4.801  0.0187 -0.0143  0.2376
  891loPI   PO413236  17.853  11.264   5.441  0.0154 -0.0090  0.2507
  891loPI   GL113237  17.805  11.537   5.736  0.0839 -0.1709 -0.1475
  891loPI   GL213238  18.133  11.425   5.778  0.0996 -0.1831  0.1699
  891loPI   C1A13239  17.783  11.744   6.080 -0.0586  0.1040 -0.3866
  891loPI   C2A13240  17.712  11.894   6.513  0.0407 -0.0275  0.2392
  891loPI   C3A13241  17.811  11.939   6.958 -0.0010  0.0508  0.0186
  891loPI   C4A13242  17.854  12.066   7.437  0.0276  0.2223 -0.0918
  891loPI   C5A13243  17.856  11.929   7.933  0.3058  0.1853  0.0266
  891loPI   C6A13244  18.195  11.760   8.056  0.1327  0.2015  0.0325
  891loPI   C1B13245  18.261  11.514   6.152 -0.1134 -0.2243  0.2280
  891loPI   C2B13246  18.258  11.652   6.619 -0.0926 -0.0603 -0.1896
  891loPI   C3B13247  18.221  11.737   7.062 -0.4064 -0.1268  0.0098
  891loPI   C4B13248  18.418  11.754   7.485  0.0219  0.1815  0.1221
  892loPI    C113249  13.708  18.380   4.842  0.0403  0.2847  0.0252
  892loPI    C213250  13.838  18.713   4.663  0.1662  0.0191 -0.3934
  892loPI    C313251  13.556  18.491   4.489 -0.1217  0.0500  0.0190
  892loPI   PO413252  13.605  18.411   5.072 -0.1931 -0.0973 -0.2426
  892loPI   GL113253  13.579  18.501   5.511  0.2291  0.0193  0.0202
  892loPI   GL213254  13.671  18.879   5.588  0.0721  0.0993  0.0239
  892loPI   C1A13255  13.637  18.307   5.924 -0.4046 -0.0170 -0.4039
  892loPI   C2A13256  13.338  18.253   6.313  0.1392 -0.4527 -0.4298
  892loPI   C3A13257  13.428  18.249   6.741 -0.0509 -0.0075  0.0719
  892loPI   C4A13258  13.428  18.205   7.143 -0.2383  0.1414 -0.0277
  892loPI   C5A13259  13.645  18.210   7.500  0.2516  0.2153 -0.1208
  892loPI   C6A13260  13.827  18.306   7.870  0.1120 -0.1219  0.2798
  892loPI   C1B13261  13.869  18.981   6.020  0.0895 -0.2935 -0.0020
  892loPI   C2B13262  13.652  19.223   6.320  0.0834 -0.1466 -0.1101
  892loPI   C3B13263  13.600  19.438   6.655 -0.1000 -0.1314  0.2820
  892loPI   C4B13264  13.527  19.538   7.118  0.0174  0.0019 -0.1496
  893loPI    C113265  13.259  15.046   4.961  0.0695  0.0271  0.1063
  893loPI    C213266  13.632  14.943   5.061 -0.0120 -0.3007  0.0841
  893loPI    C313267  13.492  14.858   4.695 -0.0280  0.0446  0.0070
  893loPI   PO413268  13.147  14.970   5.205 -0.0148  0.0993 -0.0709
  893loPI   GL113269  12.764  15.165   5.475 -0.4103  0.0115 -0.1235
  893loPI   GL213270  12.774  14.906   5.465 -0.0168  0.0295 -0.3464
  893loPI   C1A13271  12.534  15.097   5.874  0.1862 -0.1267  0.2861
  893loPI   C2A13272  12.392  15.118   6.238  0.0265  0.4211 -0.0783
  893loPI   C3A13273  12.532  15.028   6.560  0.1703  0.4669  0.1920
  893loPI   C4A13274  12.573  15.045   6.915 -0.0315  0.1312  0.1451
  893loPI   C5A13275  12.619  14.865   7.393  0.0623 -0.1634 -0.0330
  893loPI   C6A13276  12.839  14.652   7.619 -0.1392  0.2153  0.0353
  893loPI   C1B13277  12.964  14.870   5.849  0.1972 -0.0322  0.0235
  893loPI   C2B13278  12.829  14.788   6.169 -0.0481 -0.2181 -0.1513
  893loPI   C3B13279  12.871  14.711   6.594 -0.1082  0.1055 -0.2448
  893loPI   C4B13280  12.977  14.743   6.964 -0.2800  0.0865  0.0037
  894loPI    C113281   5.903   4.173   4.954  0.1792  0.1680 -0.1191
  894loPI    C213282   5.624   4.425   5.091 -0.1663 -0.2343 -0.0615
  894loPI    C313283   5.754   4.456   4.714 -0.2600 -0.0188 -0.0774
  894loPI   PO413284   5.875   3.919   5.139  0.3135  0.0558 -0.3378
  894loPI   GL113285   5.821   4.022   5.444 -0.2258  0.1226  0.0429
  894loPI   GL213286   6.077   4.288   5.645  0.0108 -0.0715 -0.1425
  894loPI   C1A13287   5.931   3.867   5.825  0.1502  0.0969 -0.0210
  894loPI   C2A13288   6.018   4.024   6.159  0.0603  0.4116 -0.2215
  894loPI   C3A13289   6.200   4.119   6.677 -0.2988  0.2665 -0.4920
  894loPI   C4A13290   6.443   4.100   7.015 -0.2526  0.2774  0.0877
  894loPI   C5A13291   6.367   4.146   7.511  0.0656  0.2560 -0.1046
  894loPI   C6A13292   6.333   4.492   7.728 -0.0587 -0.0338  0.0843
  894loPI   C1B13293   6.128   4.523   5.994  0.1875 -0.1234  0.0770
  894loPI   C2B13294   5.945   4.539   6.389 -0.0998 -0.2215  0.1782
  894loPI   C3B13295   6.166   4.609   6.808  0.0590 -0.1854  0.0379
  894loPI   C4B13296   6.240   4.565   7.238 -0.1949 -0.0641 -0.1571
  895loPI    C113297   6.284  12.845   4.885 -0.1486 -0.2071 -0.0961
  895loPI    C213298   5.900  12.923   4.806 -0.1236  0.0927  0.0669
  895loPI    C313299   6.179  12.989   4.527 -0.1853 -0.0929 -0.0399
  895loPI   PO413300   6.311  12.922   5.138  0.0814  0.0188 -0.0450
  895loPI   GL113301   6.330  13.185   5.384  0.1475  0.0885 -0.0247
  895loPI   GL213302   6.071  13.134   5.566  0.1756 -0.1604  0.0579
  895loPI   C1A13303   6.714  13.411   5.491  0.1117 -0.1093 -0.1567
  895loPI   C2A13304   6.806  13.572   5.941 -0.2137  0.1849  0.1905
  895loPI   C3A13305   6.860  13.712   6.316  0.3316  0.4864  0.0326
  895loPI   C4A13306   6.902  13.500   6.652 -0.2029 -0.0787 -0.1231
  895loPI   C5A13307   7.002  13.297   6.980 -0.1690 -0.0490  0.3088
  895loPI   C6A13308   7.214  13.286   7.410  0.2531  0.3570  0.2390
  895loPI   C1B13309   6.394  13.054   5.921 -0.0999  0.1238 -0.1975
  895loPI   C2B13310   6.588  13.217   6.277 -0.1530  0.3971  0.2820
  895loPI   C3B13311   6.588  13.162   6.684 -0.4386  0.0998 -0.1107
  895loPI   C4B13312   6.376  13.202   7.027 -0.2170  0.2942 -0.1156
  896loPI    C113313   9.139   7.904   5.212  0.0475  0.0457 -0.1883
  896loPI    C213314   8.861   8.117   5.019 -0.0927 -0.0651 -0.1106
  896loPI    C313315   9.249   8.176   4.940 -0.1258  0.2716 -0.0368
  896loPI   PO413316   9.143   8.010   5.436 -0.0591  0.2947  0.1036
  896loPI   GL113317   8.950   7.892   5.872 -0.6714 -0.0457  0.2783
  896loPI   GL213318   9.101   7.688   6.055  0.1835 -0.1956  0.2976
  896loPI   C1A13319   8.797   7.923   6.312  0.1610  0.0056 -0.0368
  896loPI   C2A13320   8.795   7.791   6.671  0.4235 -0.3294 -0.0941
  896loPI   C3A13321   8.782   7.623   7.063  0.1898 -0.3072 -0.4269
  896loPI   C4A13322   8.798   7.471   7.388  0.0936 -0.4474 -0.2301
  896loPI   C5A13323   9.094   7.425   7.665  0.0488  0.0340  0.0499
  896loPI   C6A13324   9.444   7.211   7.827 -0.1766 -0.2316 -0.5932
  896loPI   C1B13325   9.234   7.707   6.464 -0.0037 -0.0453 -0.0955
  896loPI   C2B13326   9.244   7.654   6.886 -0.0332  0.1026  0.2496
  896loPI   C3B13327   9.177   7.746   7.302  0.1828 -0.0653 -0.0963
  896loPI   C4B13328   9.457   7.748   7.597 -0.2790 -0.1753  0.0256
  897loPI    C113329   6.070  14.136   4.939  0.1019  0.0698 -0.0799
  897loPI    C213330   6.119  13.743   4.884 -0.0185  0.0462 -0.0229
  897loPI    C313331   6.208  14.000   4.590 -0.1873 -0.0429 -0.1536
  897loPI   PO413332   6.084  14.180   5.216  0.1673 -0.2334 -0.1374
  897loPI   GL113333   6.363  14.303   5.542  0.0511 -0.1600 -0.0811
  897loPI   GL213334   6.449  14.519   5.681 -0.2224 -0.0504  0.2848
  897loPI   C1A13335   6.502  14.098   5.989 -0.2202  0.1030 -0.2801
  897loPI   C2A13336   6.455  14.063   6.438  0.2760  0.1721 -0.0963
  897loPI   C3A13337   6.370  14.046   6.843  0.3795  0.3374 -0.1045
  897loPI   C4A13338   6.353  14.127   7.300 -0.0454  0.1934  0.4756
  897loPI   C5A13339   6.603  14.265   7.591  0.0201 -0.2959 -0.0189
  897loPI   C6A13340   6.706  14.533   7.849  0.0883 -0.3867 -0.0360
  897loPI   C1B13341   6.552  14.570   6.170 -0.0860 -0.3679  0.3494
  897loPI   C2B13342   6.529  14.552   6.602 -0.1557  0.3194  0.1452
  897loPI   C3B13343   6.365  14.520   6.958 -0.3424 -0.1641 -0.2393
  897loPI   C4B13344   6.202  14.593   7.262  0.1376  0.2619 -0.1071
  898loPI    C113345  15.395  15.884   5.477  0.0938 -0.3362  0.1014
  898loPI    C213346  15.265  15.929   5.102  0.2763 -0.0687  0.0671
  898loPI    C313347  15.067  15.692   5.355 -0.1905  0.2089 -0.0257
  898loPI   PO413348  15.584  15.918   5.515 -0.1272  0.0667  0.5818
  898loPI   GL113349  15.824  15.911   5.828 -0.0282  0.0598 -0.2544
  898loPI   GL213350  15.640  15.931   6.032  0.1790  0.0829 -0.1378
  898loPI   C1A13351  16.063  15.586   6.132  0.1363  0.2455 -0.1261
  898loPI   C2A13352  16.397  15.485   6.498 -0.1599  0.1030 -0.0101
  898loPI   C3A13353  16.562  15.726   6.919 -0.0149  0.1697  0.1146
  898loPI   C4A13354  16.389  16.030   7.216 -0.1676 -0.0349 -0.0633
  898loPI   C5A13355  16.096  16.012   7.536 -0.0714 -0.0335  0.3555
  898loPI   C6A13356  15.719  15.661   7.614 -0.0489  0.0124 -0.2708
  898loPI   C1B13357  15.642  15.760   6.394  0.2829  0.1930  0.3506
  898loPI   C2B13358  15.818  15.411   6.576  0.0388 -0.2177 -0.0249
  898loPI   C3B13359  16.162  15.368   6.926  0.3531 -0.1039 -0.1694
  898loPI   C4B13360  16.479  15.363   7.306 -0.1490 -0.2033  0.1584
  899loPI    C113361  16.324   2.576   5.207  0.1309 -0.1282 -0.0647
  899loPI    C213362  16.256   2.862   4.936  0.0277 -0.1077 -0.0175
  899loPI    C313363  16.379   2.501   4.817  0.1236 -0.0551 -0.0800
  899loPI   PO413364  16.473   2.663   5.410  0.1162 -0.1951  0.1006
  899loPI   GL113365  16.660   3.053   5.680  0.3467 -0.5147  0.0957
  899loPI   GL213366  16.774   3.380   5.669 -0.0815 -0.1850  0.2577
  899loPI   C1A13367  16.577   2.856   6.071 -0.0476 -0.2427  0.0067
  899loPI   C2A13368  16.545   2.801   6.530  0.3865 -0.1588 -0.0987
  899loPI   C3A13369  16.367   2.879   6.937  0.2859 -0.0012  0.0768
  899loPI   C4A13370  16.512   2.835   7.235 -0.0705  0.1800  0.1381
  899loPI   C5A13371  16.608   2.622   7.633  0.3801  0.1605  0.1058
  899loPI   C6A13372  16.684   2.431   8.040  0.0941 -0.2804 -0.1154
  899loPI   C1B13373  16.866   3.263   6.091 -0.2079  0.0310 -0.0842
  899loPI   C2B13374  16.863   3.185   6.542  0.1112  0.1683  0.2030
  899loPI   C3B13375  16.830   3.204   6.942  0.4089 -0.0421 -0.3031
  899loPI   C4B13376  16.756   3.288   7.427 -0.0711  0.2756  0.3331
  900loPI    C113377   8.809  13.678   5.527 -0.1406 -0.0618  0.0162
  900loPI    C213378   9.126  13.454   5.627 -0.0377  0.0363 -0.0871
  900loPI    C313379   8.948  13.402   5.272 -0.0685  0.0578 -0.0749
  900loPI   PO413380   8.619  13.585   5.768 -0.1312 -0.1636  0.0044
  900loPI   GL113381   8.614  13.384   6.096 -0.0485 -0.5929  0.1237
  900loPI   GL213382   9.008  13.405   6.086 -0.1805 -0.1801 -0.1009
  900loPI   C1A13383   8.439  13.430   6.523 -0.0376  0.0814  0.0004
  900loPI   C2A13384   8.172  13.658   6.847  0.1190 -0.2922  0.4062
  900loPI   C3A13385   8.185  14.063   7.017 -0.1858 -0.0962  0.0135
  900loPI   C4A13386   8.388  14.525   7.007 -0.0665  0.1814 -0.3958
  900loPI   C5A13387   8.325  14.913   7.262  0.1634  0.0571 -0.2642
  900loPI   C6A13388   8.292  15.102   7.684  0.3673 -0.0403  0.0232
  900loPI   C1B13389   8.928  13.463   6.450 -0.1714  0.2325  0.0870
  900loPI   C2B13390   9.125  13.634   6.910  0.2417  0.4194 -0.1036
  900loPI   C3B13391   9.262  13.717   7.316 -0.0722 -0.0426  0.2072
  900loPI   C4B13392   9.245  14.130   7.262  0.2677  0.2887 -0.0347
  901loPI    C113393   3.034   3.659   4.790 -0.0007 -0.1080 -0.0240
  901loPI    C213394   3.432   3.685   4.769 -0.0113  0.2986  0.1764
  901loPI    C313395   3.214   3.671   4.434  0.1661  0.1350  0.0658
  901loPI   PO413396   2.958   3.583   5.144  0.2941 -0.1615  0.0789
  901loPI   GL113397   3.030   3.297   5.498  0.0631  0.1358  0.1580
  901loPI   GL213398   3.227   3.531   5.671 -0.1694 -0.0236  0.2709
  901loPI   C1A13399   3.147   3.032   5.983  0.0595 -0.0889  0.1649
  901loPI   C2A13400   3.397   2.891   6.297 -0.0948 -0.0946  0.0008
  901loPI   C3A13401   3.533   3.025   6.699 -0.0823 -0.1725 -0.0119
  901loPI   C4A13402   3.462   3.048   7.149 -0.1193  0.3497  0.0298
  901loPI   C5A13403   3.853   2.775   7.326 -0.0769 -0.1093  0.0121
  901loPI   C6A13404   4.153   2.973   7.606  0.2946  0.0781 -0.3048
  901loPI   C1B13405   3.241   3.464   6.058 -0.0143  0.0542 -0.2699
  901loPI   C2B13406   3.133   3.239   6.529 -0.2205  0.1787  0.0943
  901loPI   C3B13407   3.087   2.903   6.656 -0.2248  0.0331 -0.1278
  901loPI   C4B13408   2.923   2.614   7.012  0.0250  0.0285  0.4369
  902loPI    C113409  16.027   7.401   5.793  0.1039  0.0853  0.0915
  902loPI    C213410  15.985   7.522   5.414 -0.0586  0.1407  0.1262
  902loPI    C313411  15.703   7.296   5.584  0.1157 -0.0652  0.1477
  902loPI   PO413412  16.348   7.315   5.837 -0.0462 -0.1170 -0.0570
  902loPI   GL113413  16.596   7.159   6.194 -0.1966  0.1768  0.2069
  902loPI   GL213414  16.225   7.223   6.327 -0.1300 -0.2454 -0.0652
  902loPI   C1A13415  16.779   7.393   6.420  0.3101  0.0981  0.0750
  902loPI   C2A13416  16.708   7.596   6.826  0.2153 -0.1566 -0.0229
  902loPI   C3A13417  16.721   7.599   7.303  0.1304 -0.0847  0.1496
  902loPI   C4A13418  16.976   7.789   7.631  0.0651 -0.1628 -0.0212
  902loPI   C5A13419  17.056   7.835   8.091 -0.1819 -0.0823 -0.1727
  902loPI   C6A13420  17.069   7.759   8.544  0.0868 -0.3721  0.1825
  902loPI   C1B13421  16.341   7.307   6.664  0.1931  0.1008 -0.3392
  902loPI   C2B13422  16.267   7.418   7.055  0.1594  0.0835 -0.0881
  902loPI   C3B13423  16.227   7.215   7.394 -0.1480  0.0638  0.2804
  902loPI   C4B13424  16.069   6.975   7.811 -0.0473  0.4081  0.0160
  903loPI    C113425   4.803  15.630   4.800 -0.2801  0.0207  0.1875
  903loPI    C213426   4.549  15.365   4.641 -0.0813 -0.0844  0.0403
  903loPI    C313427   4.611  15.717   4.460  0.3283 -0.3016 -0.2585
  903loPI   PO413428   4.934  15.528   5.027 -0.1447  0.1997 -0.1962
  903loPI   GL113429   4.913  15.554   5.451 -0.0925 -0.0244 -0.2850
  903loPI   GL213430   5.257  15.680   5.455  0.2887 -0.2070 -0.0586
  903loPI   C1A13431   4.869  15.645   5.938 -0.2269 -0.1163 -0.2740
  903loPI   C2A13432   4.817  15.714   6.330  0.1986  0.2471  0.0873
  903loPI   C3A13433   4.753  15.755   6.734  0.1309 -0.2933 -0.0578
  903loPI   C4A13434   4.688  15.818   7.215  0.0565  0.1200 -0.1480
  903loPI   C5A13435   4.850  15.540   7.523 -0.1412  0.0494 -0.0123
  903loPI   C6A13436   4.854  15.479   7.870  0.4863 -0.1431  0.2304
  903loPI   C1B13437   5.406  15.759   5.871  0.1285 -0.2809 -0.0560
  903loPI   C2B13438   5.329  15.753   6.157 -0.0051 -0.0608 -0.0037
  903loPI   C3B13439   5.580  15.703   6.458 -0.0323  0.1429 -0.0602
  903loPI   C4B13440   5.483  15.842   6.884  0.2301  0.1273  0.2646
  904loPI    C113441   2.140  17.265   5.190 -0.2085  0.0438  0.0592
  904loPI    C213442   2.514  17.405   5.211 -0.2087  0.0126  0.3006
  904loPI    C313443   2.238  17.603   5.000 -0.0433  0.0047  0.0731
  904loPI   PO413444   2.133  17.147   5.431  0.4802 -0.0873  0.2533
  904loPI   GL113445   2.232  17.289   5.795  0.1016  0.0495 -0.2598
  904loPI   GL213446   2.353  17.605   5.683  0.1245  0.0325  0.1198
  904loPI   C1A13447   2.222  17.117   6.193  0.2694  0.2069 -0.2888
  904loPI   C2A13448   2.285  17.186   6.607  0.0879  0.0294 -0.0658
  904loPI   C3A13449   2.048  17.262   6.986  0.1986 -0.2519  0.0011
  904loPI   C4A13450   1.680  17.392   7.332  0.5159  0.2267  0.2212
  904loPI   C5A13451   1.296  17.574   7.504 -0.0523  0.0972 -0.0783
  904loPI   C6A13452   1.195  17.972   7.816 -0.0277 -0.0423 -0.0045
  904loPI   C1B13453   2.299  17.681   6.088  0.3032  0.1705 -0.0670
  904loPI   C2B13454   2.275  17.667   6.455 -0.1390 -0.2875 -0.5205
  904loPI   C3B13455   2.095  17.770   6.874  0.5348  0.1713  0.0952
  904loPI   C4B13456   2.305  17.594   7.182  0.0736 -0.0293 -0.1967
  905loPI    C113457   6.424   9.990   5.213  0.0777 -0.0653  0.0450
  905loPI    C213458   6.378   9.593   5.196 -0.1762 -0.0410  0.1175
  905loPI    C313459   6.675   9.769   4.994 -0.1714 -0.2492 -0.0601
  905loPI   PO413460   6.174   9.981   5.448 -0.1315  0.3910 -0.0309
  905loPI   GL113461   5.842  10.160   5.536 -0.1290  0.1399 -0.1130
  905loPI   GL213462   5.823   9.949   5.892  0.0461  0.0732 -0.2628
  905loPI   C1A13463   6.013  10.388   5.928 -0.0770 -0.2028 -0.3808
  905loPI   C2A13464   5.926  10.442   6.324  0.3856 -0.0550 -0.1205
  905loPI   C3A13465   5.895  10.738   6.665 -0.1208  0.0882 -0.0833
  905loPI   C4A13466   6.194  10.955   6.866 -0.1590  0.0765  0.2800
  905loPI   C5A13467   6.192  11.063   7.360 -0.2215 -0.2930  0.0656
  905loPI   C6A13468   6.233  11.096   7.839 -0.1928  0.1657 -0.0187
  905loPI   C1B13469   5.660   9.972   6.230 -0.0914  0.0859  0.2761
  905loPI   C2B13470   5.632   9.878   6.585  0.1249  0.1498 -0.0092
  905loPI   C3B13471   5.535  10.044   7.003 -0.0791 -0.1220  0.0287
  905loPI   C4B13472   5.434  10.236   7.513  0.0583 -0.1931  0.3311
  906loPI    C113473  17.360   6.942   5.412  0.0189  0.0010 -0.1613
  906loPI    C213474  17.252   7.208   5.133  0.0680 -0.0522 -0.2312
  906loPI    C313475  17.259   6.817   5.045  0.1885 -0.0602 -0.1882
  906loPI   PO413476  17.163   7.102   5.609  0.1708  0.2889 -0.1853
  906loPI   GL113477  17.032   7.294   5.972  0.1511  0.1554  0.0796
  906loPI   GL213478  17.184   7.643   5.957  0.2498 -0.3296 -0.1900
  906loPI   C1A13479  17.038   6.941   6.344  0.1001 -0.0208  0.4776
  906loPI   C2A13480  16.792   7.108   6.770  0.0505 -0.4146 -0.1993
  906loPI   C3A13481  16.671   7.043   7.228  0.0542 -0.2119 -0.0572
  906loPI   C4A13482  16.619   6.998   7.628  0.0734 -0.1098 -0.1251
  906loPI   C5A13483  16.500   6.931   8.093  0.2275  0.1216 -0.1550
  906loPI   C6A13484  16.071   6.805   8.326  0.0121  0.0347 -0.0999
  906loPI   C1B13485  17.284   7.513   6.375 -0.2285  0.0788 -0.2450
  906loPI   C2B13486  17.345   7.209   6.769 -0.3111 -0.0001 -0.1791
  906loPI   C3B13487  17.399   6.969   7.136 -0.2999 -0.0687  0.3304
  906loPI   C4B13488  17.271   6.674   7.467  0.2140  0.0611  0.0066
  907loPI    C113489   4.237  16.863   5.128 -0.0672  0.2829 -0.2259
  907loPI    C213490   4.211  16.494   4.976  0.1133  0.2179 -0.1025
  907loPI    C313491   4.395  16.782   4.769  0.1228  0.1964 -0.1241
  907loPI   PO413492   4.323  16.770   5.351  0.1369  0.0245 -0.0763
  907loPI   GL113493   4.312  16.883   5.745  0.3307 -0.2043 -0.1232
  907loPI   GL213494   4.489  16.605   5.837 -0.2793  0.3710  0.1587
  907loPI   C1A13495   4.425  17.054   6.049 -0.1225 -0.1094 -0.1373
  907loPI   C2A13496   4.418  16.976   6.460 -0.0432  0.1768 -0.0639
  907loPI   C3A13497   4.256  17.122   6.831 -0.0941 -0.0337 -0.1258
  907loPI   C4A13498   3.947  17.148   6.946 -0.3214 -0.1853  0.2045
  907loPI   C5A13499   3.587  17.445   6.983  0.2378  0.0457 -0.2261
  907loPI   C6A13500   3.080  17.382   6.989 -0.2625  0.0933 -0.1696
  907loPI   C1B13501   4.711  16.664   6.223  0.1102  0.0025 -0.2177
  907loPI   C2B13502   4.827  16.824   6.653  0.1223 -0.1029  0.0895
  907loPI   C3B13503   4.718  16.775   7.036  0.1695  0.0872  0.1149
  907loPI   C4B13504   4.615  16.793   7.493 -0.0432 -0.0083 -0.0524
  908loPI    C113505   0.244  14.757   4.852 -0.3123  0.3133 -0.2787
  908loPI    C213506   0.346  14.516   4.549 -0.0001 -0.1485  0.1758
  908loPI    C313507   0.505  14.882   4.577 -0.0657 -0.0842 -0.2336
  908loPI   PO413508   0.337  14.698   5.093 -0.1297  0.3374  0.0298
  908loPI   GL113509   0.250  14.947   5.492  0.1440  0.1033 -0.0260
  908loPI   GL213510   0.407  15.251   5.661 -0.0249  0.0131 -0.0782
  908loPI   C1A13511   0.186  14.609   5.679  0.1730 -0.1511  0.2031
  908loPI   C2A13512   0.086  14.554   6.169 -0.3789 -0.1103  0.3757
  908loPI   C3A13513   0.256  14.512   6.466 -0.1072  0.1360 -0.1994
  908loPI   C4A13514   0.432  14.669   6.835 -0.0131  0.1197  0.1884
  908loPI   C5A13515   0.682  14.651   7.079 -0.1783 -0.0582  0.0507
  908loPI   C6A13516   0.862  15.065   7.267 -0.1065  0.1650  0.3139
  908loPI   C1B13517   0.527  14.893   5.999 -0.3389 -0.2039 -0.1551
  908loPI   C2B13518   0.501  15.037   6.433  0.1969 -0.2281  0.1193
  908loPI   C3B13519   0.663  15.132   6.825  0.1844 -0.1725  0.0290
  908loPI   C4B13520   0.433  15.362   7.267 -0.0254  0.1328 -0.0096
  909loPI    C113521  10.489  11.299   5.376 -0.0327 -0.1648  0.1321
  909loPI    C213522  10.427  10.936   5.220  0.0374 -0.0858 -0.0831
  909loPI    C313523  10.616  11.217   5.006 -0.0281  0.0824  0.0768
  909loPI   PO413524  10.592  11.213   5.576 -0.2061  0.0839  0.5060
  909loPI   GL113525  10.589  10.833   5.875  0.0902  0.0783 -0.0893
  909loPI   GL213526  10.555  10.528   6.041  0.1618  0.0095 -0.0006
  909loPI   C1A13527  10.458  10.952   6.344 -0.2577 -0.1353  0.1285
  909loPI   C2A13528  10.455  11.253   6.598  0.0086  0.4369 -0.0531
  909loPI   C3A13529  10.297  11.290   6.976 -0.0812 -0.3062  0.0112
  909loPI   C4A13530  10.441  11.533   7.342 -0.1953 -0.3597 -0.0501
  909loPI   C5A13531  10.786  11.747   7.483  0.0060  0.2670 -0.0302
  909loPI   C6A13532  11.052  11.956   7.766  0.2137  0.1723 -0.1009
  909loPI   C1B13533  10.273  10.516   6.498  0.2537 -0.1421 -0.0360
  909loPI   C2B13534  10.140  10.699   6.863  0.2099  0.1250 -0.3086
  909loPI   C3B13535  10.293  10.909   7.312  0.0170 -0.0096  0.0245
  909loPI   C4B13536  10.358  10.991   7.710 -0.3334  0.0406 -0.0447
  910loPI    C113537   7.704   2.221   5.059 -0.1188 -0.1050 -0.2331
  910loPI    C213538   7.815   2.265   4.677 -0.2506 -0.1555 -0.2776
  910loPI    C313539   7.784   1.899   4.836 -0.1087 -0.1310 -0.1920
  910loPI   PO413540   7.856   2.477   5.214  0.2403  0.0185  0.1236
  910loPI   GL113541   8.121   2.259   5.566 -0.0654 -0.0214  0.2045
  910loPI   GL213542   7.846   2.287   5.702 -0.0077  0.1672  0.1954
  910loPI   C1A13543   8.220   2.015   5.974  0.3662 -0.1756  0.0118
  910loPI   C2A13544   8.319   1.791   6.339  0.1595 -0.1591 -0.1591
  910loPI   C3A13545   8.281   1.785   6.738 -0.3658 -0.0451 -0.1189
  910loPI   C4A13546   8.364   1.591   7.091  0.0468  0.1233 -0.0609
  910loPI   C5A13547   8.382   1.560   7.470 -0.0899  0.0580 -0.0047
  910loPI   C6A13548   8.446   1.748   7.794  0.1579  0.0677  0.0127
  910loPI   C1B13549   8.076   2.617   6.028  0.4129 -0.0275  0.0218
  910loPI   C2B13550   8.439   2.888   5.998 -0.1971 -0.2687  0.0727
  910loPI   C3B13551   8.614   3.158   6.278 -0.1022  0.3436 -0.0278
  910loPI   C4B13552   8.463   3.367   6.513  0.2549  0.0735 -0.3568
  911loPI    C113553   4.532  11.976   5.112 -0.1660  0.0996 -0.1857
  911loPI    C213554   4.336  12.036   5.456  0.0720  0.1531 -0.0569
  911loPI    C313555   4.133  12.000   5.113 -0.1544  0.3304  0.0562
  911loPI   PO413556   4.777  12.096   5.151 -0.1864 -0.1070  0.1251
  911loPI   GL113557   5.179  12.223   5.372 -0.0008  0.0501  0.1266
  911loPI   GL213558   5.174  12.042   5.575  0.3030 -0.1185  0.1477
  911loPI   C1A13559   5.085  12.490   5.731  0.0922  0.0125  0.0373
  911loPI   C2A13560   5.002  12.752   5.876 -0.0001 -0.4129  0.0091
  911loPI   C3A13561   4.652  12.922   6.060 -0.1046  0.0210  0.0009
  911loPI   C4A13562   4.747  12.887   6.496  0.0205  0.1389 -0.1692
  911loPI   C5A13563   4.985  12.915   6.875 -0.1252 -0.0369  0.1058
  911loPI   C6A13564   5.096  13.100   7.296 -0.2860  0.2634 -0.0830
  911loPI   C1B13565   5.353  12.114   6.034  0.0713 -0.0733  0.2316
  911loPI   C2B13566   5.192  12.133   6.485  0.0708  0.3937 -0.1614
  911loPI   C3B13567   5.126  12.098   6.867 -0.0997  0.1069 -0.2706
  911loPI   C4B13568   5.186  12.028   7.305 -0.1043 -0.2612 -0.0463
  912loPI    C113569   8.147   7.568   5.458  0.1978  0.0534  0.1362
  912loPI    C213570   8.137   7.429   5.083 -0.5984  0.3185  0.0410
  912loPI    C313571   8.072   7.181   5.390  0.5112  0.0022  0.0646
  912loPI   PO413572   7.976   7.892   5.433  0.0840 -0.3009 -0.0158
  912loPI   GL113573   7.779   8.143   5.840 -0.0707 -0.0595  0.2359
  912loPI   GL213574   8.084   8.058   5.893  0.1302  0.2302 -0.0700
  912loPI   C1A13575   7.619   8.115   6.299  0.0696  0.1969  0.2574
  912loPI   C2A13576   7.853   8.112   6.758 -0.2526  0.1132 -0.3040
  912loPI   C3A13577   8.188   8.111   7.096 -0.1675  0.1762  0.0700
  912loPI   C4A13578   8.466   8.110   7.438  0.2352 -0.1068  0.3824
  912loPI   C5A13579   8.850   8.021   7.575  0.1033  0.4292 -0.1781
  912loPI   C6A13580   9.149   8.060   7.712 -0.1299  0.1670 -0.1421
  912loPI   C1B13581   8.095   8.215   6.263  0.1530 -0.1911 -0.2986
  912loPI   C2B13582   8.003   8.523   6.548  0.0427 -0.0652 -0.0800
  912loPI   C3B13583   8.010   8.559   6.907 -0.0924  0.0247 -0.2206
  912loPI   C4B13584   7.712   8.474   7.169  0.0322 -0.0267  0.3572
  913loPI    C113585   9.804   9.282   5.265 -0.2114 -0.0933 -0.0594
  913loPI    C213586  10.013   9.387   4.940  0.1649  0.1169  0.2428
  913loPI    C313587   9.871   9.015   4.975  0.3104  0.0298 -0.0629
  913loPI   PO413588   9.949   9.334   5.460 -0.0183 -0.2714 -0.2951
  913loPI   GL113589   9.899   9.140   5.811 -0.0199  0.0460 -0.1972
  913loPI   GL213590   9.612   9.316   5.828  0.1129  0.0423 -0.0813
  913loPI   C1A13591   9.895   8.955   6.149 -0.0314  0.0230  0.1317
  913loPI   C2A13592  10.002   8.848   6.624  0.1654 -0.0811  0.1021
  913loPI   C3A13593  10.078   8.915   6.897 -0.4801 -0.0172 -0.0468
  913loPI   C4A13594  10.129   8.671   7.280  0.0107 -0.1141  0.3252
  913loPI   C5A13595  10.021   8.452   7.687 -0.0229 -0.1789 -0.0203
  913loPI   C6A13596  10.271   8.487   7.967 -0.3221 -0.4045 -0.0750
  913loPI   C1B13597   9.516   9.359   6.280 -0.3169 -0.1405  0.0846
  913loPI   C2B13598   9.527   9.448   6.680  0.1226  0.2552 -0.2312
  913loPI   C3B13599   9.310   9.386   7.137 -0.1362 -0.2779  0.0156
  913loPI   C4B13600   9.275   9.396   7.512  0.2396 -0.0280 -0.5575
  914loPI    C113601   5.769   5.225   5.199 -0.1812 -0.0580  0.0867
  914loPI    C213602   5.427   5.231   4.992 -0.0322  0.0622 -0.1611
  914loPI    C313603   5.695   4.942   4.927  0.0579  0.1557 -0.2081
  914loPI   PO413604   5.794   5.484   5.228  0.1410 -0.2489  0.0587
  914loPI   GL113605   5.635   5.626   5.544 -0.1551 -0.1053 -0.1930
  914loPI   GL213606   6.001   5.617   5.625  0.3656 -0.1443 -0.0840
  914loPI   C1A13607   5.585   5.306   5.969  0.3790 -0.3398  0.0060
  914loPI   C2A13608   5.382   5.341   6.327 -0.1916 -0.0391 -0.1775
  914loPI   C3A13609   5.442   5.164   6.672 -0.0904 -0.1404 -0.0237
  914loPI   C4A13610   5.545   5.168   7.047 -0.0620  0.2864  0.0458
  914loPI   C5A13611   5.976   5.008   7.233  0.3557  0.3508  0.0599
  914loPI   C6A13612   6.338   5.286   7.088  0.5293  0.2511  0.2156
  914loPI   C1B13613   5.958   5.695   6.006  0.2656  0.0846 -0.0254
  914loPI   C2B13614   5.910   5.559   6.332 -0.2279 -0.1692 -0.0490
  914loPI   C3B13615   6.042   5.623   6.633  0.0412  0.0888 -0.3409
  914loPI   C4B13616   5.989   5.716   6.984  0.1903  0.1897 -0.2719
  915loPI    C113617   7.240   7.520   5.277 -0.0739  0.0578  0.0596
  915loPI    C213618   7.637   7.479   5.251 -0.0830  0.0534 -0.0848
  915loPI    C313619   7.403   7.355   4.951 -0.2144 -0.2069  0.1197
  915loPI   PO413620   7.198   7.461   5.587 -0.0752 -0.1932  0.0451
  915loPI   GL113621   7.436   7.411   5.830  0.1073  0.0685  0.3447
  915loPI   GL213622   7.804   7.512   5.733  0.2451  0.0627  0.0797
  915loPI   C1A13623   7.610   7.300   6.241  0.2605  0.0387  0.1823
  915loPI   C2A13624   7.471   7.238   6.625  0.3756 -0.3279 -0.0105
  915loPI   C3A13625   7.326   7.248   7.080  0.0522  0.0579  0.1089
  915loPI   C4A13626   7.318   7.458   7.334 -0.0187  0.4083 -0.1160
  915loPI   C5A13627   7.498   7.662   7.794 -0.0651 -0.0310  0.0764
  915loPI   C6A13628   7.817   7.880   7.995 -0.0948 -0.1481  0.2140
  915loPI   C1B13629   7.864   7.708   6.127 -0.2320  0.3057 -0.0327
  915loPI   C2B13630   7.757   7.664   6.558  0.1435  0.2081  0.1575
  915loPI   C3B13631   7.678   7.694   7.053 -0.0169  0.1227  0.3022
  915loPI   C4B13632   7.771   7.925   7.447  0.0388  0.3117  0.1312
  916loPI    C113633  10.756  10.540   5.243 -0.3764 -0.0960 -0.0763
  916loPI    C213634  10.840  10.208   5.036 -0.1013 -0.1357  0.0943
  916loPI    C313635  10.585  10.478   4.887 -0.2103 -0.3506 -0.1140
  916loPI   PO413636  10.698  10.453   5.542 -0.1023 -0.1042 -0.0017
  916loPI   GL113637  10.970  10.375   5.805  0.1527  0.2004  0.3677
  916loPI   GL213638  11.146  10.593   5.920 -0.1832 -0.0313 -0.0001
  916loPI   C1A13639  10.841  10.172   6.172  0.0622 -0.1750  0.0635
  916loPI   C2A13640  10.642  10.074   6.611 -0.0589 -0.1577 -0.0840
  916loPI   C3A13641  10.495  10.229   7.037  0.1262  0.0904 -0.1160
  916loPI   C4A13642  10.327  10.371   7.326 -0.1474 -0.0698 -0.4053
  916loPI   C5A13643  10.083  10.502   7.559 -0.0723  0.0476  0.0710
  916loPI   C6A13644   9.967  10.634   7.950  0.0486 -0.1360 -0.0276
  916loPI   C1B13645  10.899  10.702   6.381  0.1053  0.1292  0.3959
  916loPI   C2B13646  10.709  10.638   6.770  0.2591  0.2502 -0.1530
  916loPI   C3B13647  10.734  10.678   7.206 -0.0552  0.2923  0.3312
  916loPI   C4B13648  10.685  10.614   7.584  0.0169  0.0191 -0.2288
  917loPI    C113649   4.691   3.605   4.652 -0.0116 -0.0192  0.1888
  917loPI    C213650   4.827   3.507   4.289 -0.4349 -0.1201  0.0520
  917loPI    C313651   4.812   3.891   4.401 -0.1838 -0.0978  0.0138
  917loPI   PO413652   4.761   3.370   4.910  0.1361  0.0092  0.4851
  917loPI   GL113653   4.896   3.398   5.317 -0.1613  0.0461 -0.1889
  917loPI   GL213654   5.198   3.194   5.384  0.1311  0.2871 -0.3456
  917loPI   C1A13655   5.060   3.695   5.623  0.1607 -0.0525 -0.0903
  917loPI   C2A13656   5.141   3.733   5.998 -0.2967  0.4323  0.0432
  917loPI   C3A13657   5.247   3.773   6.353 -0.0693  0.0760  0.3365
  917loPI   C4A13658   5.333   3.807   6.783  0.2489  0.2564 -0.1929
  917loPI   C5A13659   5.031   3.820   7.159 -0.1193 -0.3565 -0.5622
  917loPI   C6A13660   4.869   3.620   7.578 -0.1753 -0.1897 -0.2704
  917loPI   C1B13661   4.990   3.091   5.783 -0.0163  0.2520 -0.1088
  917loPI   C2B13662   5.179   3.195   6.165  0.1626  0.5543  0.1183
  917loPI   C3B13663   5.300   3.293   6.573 -0.0457  0.2553  0.0039
  917loPI   C4B13664   5.444   3.210   7.035  0.0369  0.1522  0.1306
  918loPI    C113665   0.109   6.557   5.394  0.2015 -0.0931  0.1383
  918loPI    C213666  -0.027   6.295   5.123 -0.0440  0.1715  0.0005
  918loPI    C313667   0.169   6.623   5.004  0.3006  0.0346  0.1744
  918loPI   PO413668   0.212   6.450   5.624 -0.0162  0.0371 -0.0072
  918loPI   GL113669   0.128   6.482   6.011  0.2311  0.4396 -0.1874
  918loPI   GL213670   0.416   6.213   6.071 -0.4538  0.0999  0.0575
  918loPI   C1A13671  -0.066   6.606   6.370  0.3289  0.2168 -0.0215
  918loPI   C2A13672   0.227   6.908   6.553  0.1569 -0.1749  0.1231
  918loPI   C3A13673   0.188   7.235   7.002 -0.1248 -0.2597  0.0419
  918loPI   C4A13674   0.314   7.715   7.051  0.0184 -0.3047 -0.2944
  918loPI   C5A13675   0.436   8.114   7.398 -0.1031 -0.0750 -0.1915
  918loPI   C6A13676   0.742   8.457   7.496 -0.4512  0.1250 -0.0472
  918loPI   C1B13677   0.271   6.275   6.472 -0.1366  0.1888  0.0913
  918loPI   C2B13678   0.482   6.416   6.811  0.4723  0.1524 -0.1347
  918loPI   C3B13679   0.630   6.454   7.246  0.2982  0.1963  0.2021
  918loPI   C4B13680   0.498   6.390   7.685  0.1901  0.2762 -0.1495
  919loPI    C113681  13.910   0.581   5.029 -0.0599  0.0758 -0.0256
  919loPI    C213682  14.278   0.714   4.946 -0.0343  0.0263  0.0082
  919loPI    C313683  14.140   0.384   4.768 -0.0952  0.0936 -0.0701
  919loPI   PO413684  13.861   0.584   5.256  0.4038  0.1733 -0.0942
  919loPI   GL113685  13.992   0.568   5.643  0.1658  0.1599  0.0933
  919loPI   GL213686  14.258   0.464   5.765 -0.1683  0.0652  0.1787
  919loPI   C1A13687  13.780   0.811   5.932  0.1022 -0.0177  0.2077
  919loPI   C2A13688  13.812   1.019   6.284 -0.1606  0.0203 -0.0996
  919loPI   C3A13689  13.941   1.099   6.732  0.0830  0.0914  0.2450
  919loPI   C4A13690  14.021   1.322   7.142  0.0270 -0.2892 -0.3038
  919loPI   C5A13691  13.867   1.704   7.344  0.0000  0.0097  0.1628
  919loPI   C6A13692  13.486   1.827   7.515 -0.2256  0.3754 -0.1886
  919loPI   C1B13693  14.413   0.209   6.092 -0.1101  0.1772 -0.0074
  919loPI   C2B13694  14.591   0.059   6.503 -0.3420 -0.1022  0.4853
  919loPI   C3B13695  14.739   0.115   6.915 -0.0022  0.0688  0.2178
  919loPI   C4B13696  14.738  -0.139   7.358 -0.0216 -0.3042  0.4252
  920loPI    C113697  11.719  17.426   5.071  0.1163 -0.1863  0.1028
  920loPI    C213698  11.565  17.088   4.921  0.1964 -0.1289 -0.1129
  920loPI    C313699  11.613  17.408   4.685  0.0218  0.0692  0.1150
  920loPI   PO413700  11.659  17.393   5.368 -0.0917 -0.0779 -0.1811
  920loPI   GL113701  11.660  17.210   5.745  0.0495  0.0436 -0.0649
  920loPI   GL213702  11.343  17.037   5.897 -0.1628  0.3061 -0.2144
  920loPI   C1A13703  11.717  17.209   6.291  0.0281 -0.0914  0.5261
  920loPI   C2A13704  11.721  17.018   6.577  0.1590  0.0102  0.0599
  920loPI   C3A13705  11.568  16.819   6.986 -0.0555  0.2391 -0.1007
  920loPI   C4A13706  11.774  16.693   7.427  0.0107 -0.0128  0.0479
  920loPI   C5A13707  11.917  16.583   7.859  0.0054  0.2828  0.0835
  920loPI   C6A13708  12.067  16.355   8.330  0.0631  0.2294  0.2204
  920loPI   C1B13709  11.334  16.868   6.257 -0.0371  0.1379 -0.1362
  920loPI   C2B13710  11.361  16.551   6.615  0.1932 -0.0841 -0.1789
  920loPI   C3B13711  11.335  16.231   6.935 -0.2957 -0.2304  0.0013
  920loPI   C4B13712  11.289  15.918   7.236  0.2188 -0.0079 -0.2924
  921loPI    C113713   1.057  12.991   4.662  0.0281  0.1424  0.0581
  921loPI    C213714   1.347  13.237   4.537  0.0631  0.1053  0.0658
  921loPI    C313715   1.382  12.843   4.480  0.0899  0.0860  0.2128
  921loPI   PO413716   0.952  13.222   4.857 -0.1781  0.2740 -0.1228
  921loPI   GL113717   0.880  13.237   5.310 -0.0195 -0.0610  0.2420
  921loPI   GL213718   1.099  13.171   5.527 -0.0865 -0.0384  0.0348
  921loPI   C1A13719   0.652  13.296   5.782  0.1230 -0.5577  0.1586
  921loPI   C2A13720   0.903  13.189   6.125 -0.2640  0.3405  0.3462
  921loPI   C3A13721   0.913  12.952   6.394  0.1803 -0.2574  0.2703
  921loPI   C4A13722   0.975  12.835   6.767  0.0983 -0.2361 -0.0206
  921loPI   C5A13723   1.005  13.125   7.140  0.2055 -0.1935 -0.0789
  921loPI   C6A13724   0.945  13.093   7.555 -0.2937  0.0594 -0.0368
  921loPI   C1B13725   1.384  13.095   5.919 -0.0000 -0.1475  0.1860
  921loPI   C2B13726   1.470  12.965   6.363 -0.0286  0.1393  0.1027
  921loPI   C3B13727   1.420  13.153   6.726  0.0756  0.1832 -0.0391
  921loPI   C4B13728   1.487  13.270   7.140 -0.0129 -0.0646 -0.0219
  922loPI    C113729   8.634   7.637   4.940  0.1055 -0.3284  0.0606
  922loPI    C213730   8.981   7.741   4.771  0.0426 -0.1628  0.0312
  922loPI    C313731   8.637   7.883   4.625 -0.0327 -0.2623  0.1100
  922loPI   PO413732   8.639   7.624   5.177 -0.0286 -0.1808 -0.0602
  922loPI   GL113733   8.615   7.689   5.604  0.2675 -0.0879 -0.0618
  922loPI   GL213734   8.430   8.034   5.501  0.1540 -0.2305 -0.0160
  922loPI   C1A13735   8.416   7.644   5.992  0.0313 -0.1036 -0.2877
  922loPI   C2A13736   8.333   7.792   6.349 -0.0801  0.2541 -0.1600
  922loPI   C3A13737   8.279   7.835   6.730  0.0636  0.0512  0.0094
  922loPI   C4A13738   8.270   7.525   7.015 -0.0816 -0.2924 -0.0166
  922loPI   C5A13739   7.918   7.440   7.388  0.2945  0.0655  0.0328
  922loPI   C6A13740   7.966   7.415   7.806 -0.0299 -0.2567 -0.1436
  922loPI   C1B13741   8.533   8.207   5.905 -0.0173  0.2544  0.0122
  922loPI   C2B13742   8.601   8.370   6.339 -0.0961 -0.1687 -0.2121
  922loPI   C3B13743   8.580   8.265   6.752  0.1496 -0.2510 -0.0575
  922loPI   C4B13744   8.781   8.114   7.085  0.1043 -0.0033 -0.3182
  923loPI    C113745   6.712   7.398   5.419  0.0077  0.0036 -0.0037
  923loPI    C213746   6.882   7.078   5.248  0.2263  0.0638  0.0977
  923loPI    C313747   6.773   7.391   5.023  0.0559 -0.0604  0.0047
  923loPI   PO413748   6.488   7.288   5.524  0.1425 -0.0922 -0.0115
  923loPI   GL113749   6.329   7.349   5.886 -0.1923  0.0069 -0.1108
  923loPI   GL213750   6.033   7.472   5.874 -0.0491 -0.0380 -0.1593
  923loPI   C1A13751   6.339   7.247   6.321  0.1096  0.1362  0.5018
  923loPI   C2A13752   6.236   7.210   6.803 -0.0313 -0.4320  0.1120
  923loPI   C3A13753   6.384   7.114   7.164  0.1597  0.1759  0.0362
  923loPI   C4A13754   6.487   6.994   7.546  0.0476  0.1194 -0.2023
  923loPI   C5A13755   6.572   7.296   7.863  0.2699 -0.0365  0.4447
  923loPI   C6A13756   6.282   7.672   7.845  0.0169 -0.0266 -0.2041
  923loPI   C1B13757   5.917   7.592   6.345 -0.1631 -0.0947  0.1960
  923loPI   C2B13758   6.342   7.672   6.526  0.2552  0.0791 -0.0691
  923loPI   C3B13759   6.364   7.647   6.971 -0.0886  0.2874  0.1102
  923loPI   C4B13760   6.451   7.671   7.403  0.0178  0.0243  0.4957
  924loPI    C113761  15.560   0.943   5.071 -0.1787 -0.4441 -0.1970
  924loPI    C213762  15.309   1.053   5.362  0.0357  0.0201 -0.1791
  924loPI    C313763  15.272   1.210   4.996  0.3088  0.1083 -0.1713
  924loPI   PO413764  15.657   0.626   5.237  0.1568 -0.1410  0.3204
  924loPI   GL113765  15.795   0.396   5.585  0.2107  0.2371 -0.1067
  924loPI   GL213766  15.678   0.157   5.784 -0.2663 -0.0395 -0.0711
  924loPI   C1A13767  15.958   0.536   5.906 -0.2839  0.2796 -0.0626
  924loPI   C2A13768  15.640   0.462   6.366  0.1363  0.0827  0.1975
  924loPI   C3A13769  15.643   0.268   6.803 -0.0334  0.3907 -0.0750
  924loPI   C4A13770  15.562   0.521   7.185  0.1284 -0.1356 -0.1455
  924loPI   C5A13771  15.538   0.382   7.641 -0.0668 -0.0078 -0.0660
  924loPI   C6A13772  15.244   0.386   8.117 -0.0782 -0.3418 -0.0718
  924loPI   C1B13773  15.476  -0.009   6.127  0.2253 -0.3716  0.5055
  924loPI   C2B13774  15.442  -0.091   6.530  0.1179  0.0265 -0.0684
  924loPI   C3B13775  15.299  -0.154   7.006 -0.1314  0.0204  0.1650
  924loPI   C4B13776  15.598   0.005   7.289  0.0996 -0.1818  0.0029
  925loPI    C113777   5.799   4.688   5.450  0.0374 -0.0397  0.2271
  925loPI    C213778   5.630   4.998   5.638  0.0169  0.0027  0.1391
  925loPI    C313779   5.433   4.810   5.345  0.0650 -0.0373  0.1323
  925loPI   PO413780   5.985   4.756   5.362  0.3379  0.2082 -0.0866
  925loPI   GL113781   6.129   5.166   5.530  0.4195  0.1325  0.2174
  925loPI   GL213782   6.437   5.339   5.648 -0.0088  0.4598 -0.2690
  925loPI   C1A13783   6.033   5.097   5.985  0.2242 -0.0271  0.0656
  925loPI   C2A13784   6.339   4.951   6.297 -0.1066 -0.1322  0.0309
  925loPI   C3A13785   6.574   4.944   6.657  0.4438 -0.0243  0.1877
  925loPI   C4A13786   6.581   4.826   7.005  0.0725 -0.2910 -0.1353
  925loPI   C5A13787   6.695   4.451   7.322  0.1957 -0.0971 -0.2813
  925loPI   C6A13788   6.927   4.228   7.651 -0.0142 -0.1605 -0.1278
  925loPI   C1B13789   6.384   5.465   6.169 -0.0087  0.0062  0.0640
  925loPI   C2B13790   6.538   5.428   6.603 -0.0666 -0.0777 -0.0960
  925loPI   C3B13791   6.762   5.339   6.924  0.0449 -0.1158 -0.3246
  925loPI   C4B13792   6.869   5.493   7.337  0.2834  0.1650  0.1774
  926loPI    C113793  18.440   7.689   5.401  0.0860 -0.2012  0.0570
  926loPI    C213794  18.145   7.943   5.311  0.1391 -0.1373  0.0617
  926loPI    C313795  18.081   7.549   5.295  0.0052 -0.1237  0.2233
  926loPI   PO413796  18.503   7.728   5.647  0.0009 -0.0950  0.1146
  926loPI   GL113797  18.255   7.712   5.987 -0.4616 -0.1109 -0.1709
  926loPI   GL213798  18.170   8.117   5.960 -0.0276  0.0751 -0.0384
  926loPI   C1A13799  18.168   7.870   6.331 -0.1674 -0.0458  0.1257
  926loPI   C2A13800  18.131   7.939   6.749 -0.1548 -0.0117  0.0799
  926loPI   C3A13801  18.000   7.943   7.087  0.1142  0.1286 -0.4836
  926loPI   C4A13802  17.894   7.768   7.538 -0.0273 -0.0078 -0.2251
  926loPI   C5A13803  18.026   7.722   7.908 -0.0886 -0.1778  0.3130
  926loPI   C6A13804  18.077   7.673   8.342 -0.0106 -0.4095 -0.0341
  926loPI   C1B13805  18.338   8.355   6.201 -0.1349 -0.1620 -0.0351
  926loPI   C2B13806  18.535   8.307   6.617 -0.0006 -0.2320 -0.3228
  926loPI   C3B13807  18.521   8.250   7.038 -0.1495  0.2026 -0.0286
  926loPI   C4B13808  18.336   8.090   7.448  0.1026  0.2916 -0.2764
  927loPI    C113809   9.356  17.683   4.959 -0.2401  0.0037 -0.1358
  927loPI    C213810   9.334  17.371   4.709 -0.2346  0.0004 -0.1322
  927loPI    C313811   9.387  17.740   4.564 -0.0313 -0.0245 -0.1245
  927loPI   PO413812   9.484  17.554   5.181 -0.1117 -0.0716 -0.0535
  927loPI   GL113813   9.289  17.564   5.482 -0.1267 -0.2456 -0.0652
  927loPI   GL213814   9.290  17.966   5.563  0.0352  0.2256  0.2569
  927loPI   C1A13815   9.031  17.497   5.821 -0.0511  0.0573  0.1106
  927loPI   C2A13816   8.906  17.622   6.259  0.3788 -0.2424  0.1803
  927loPI   C3A13817   8.843  17.644   6.703  0.3103 -0.4413  0.0141
  927loPI   C4A13818   8.659  17.811   7.011  0.5416 -0.2483  0.2483
  927loPI   C5A13819   8.402  17.575   7.285 -0.1645  0.1221 -0.0781
  927loPI   C6A13820   8.585  17.139   7.510  0.0160 -0.0328 -0.0037
  927loPI   C1B13821   9.024  18.026   5.807  0.2218  0.1190  0.0486
  927loPI   C2B13822   8.724  18.038   6.069 -0.3595  0.1651  0.1158
  927loPI   C3B13823   8.361  18.213   6.362 -0.1596 -0.0292  0.3310
  927loPI   C4B13824   8.196  18.161   6.776  0.2093  0.0843 -0.0197
  928loPI    C113825  12.105  12.574   5.129 -0.0438 -0.0124 -0.0532
  928loPI    C213826  12.335  12.331   4.910 -0.0912 -0.0138 -0.1020
  928loPI    C313827  12.127  12.623   4.732 -0.1328 -0.0172 -0.0590
  928loPI   PO413828  11.979  12.403   5.298 -0.1492 -0.3696 -0.0748
  928loPI   GL113829  12.048  12.327   5.793  0.0451 -0.2287 -0.2024
  928loPI   GL213830  12.368  12.496   5.858  0.1576 -0.2046 -0.1161
  928loPI   C1A13831  12.003  12.361   6.190  0.1984  0.0702 -0.1435
  928loPI   C2A13832  12.260  12.236   6.513 -0.3098  0.1673  0.0699
  928loPI   C3A13833  12.362  11.918   6.894 -0.3474 -0.2357  0.0431
  928loPI   C4A13834  12.243  11.579   7.057  0.1682 -0.2894  0.1011
  928loPI   C5A13835  12.246  11.531   7.505 -0.0471  0.0756 -0.1680
  928loPI   C6A13836  12.207  11.169   7.686  0.2565  0.2365  0.1119
  928loPI   C1B13837  12.379  12.684   6.226  0.0074  0.3604 -0.0184
  928loPI   C2B13838  12.218  12.710   6.631 -0.0782  0.0487  0.0130
  928loPI   C3B13839  11.809  12.737   6.845 -0.1574 -0.1681 -0.0842
  928loPI   C4B13840  11.721  12.726   7.198  0.0078 -0.0589  0.1749
  929loPI    C113841   0.900   8.914   4.893 -0.0232  0.0580 -0.0571
  929loPI    C213842   1.279   8.968   4.778 -0.0182 -0.0187 -0.0770
  929loPI    C313843   1.013   8.816   4.522  0.0323 -0.3522  0.0636
  929loPI   PO413844   0.836   9.094   5.098 -0.1592 -0.1700  0.1465
  929loPI   GL113845   0.957   9.151   5.513 -0.0347 -0.2723  0.1408
  929loPI   GL213846   0.841   9.345   5.624 -0.2327  0.0921  0.2837
  929loPI   C1A13847   1.195   9.034   5.859  0.0584  0.0599 -0.1030
  929loPI   C2A13848   1.286   9.164   6.280 -0.1048 -0.0871 -0.5929
  929loPI   C3A13849   1.465   9.274   6.685 -0.0833  0.4024 -0.0892
  929loPI   C4A13850   1.483   9.432   7.080 -0.1283  0.1720 -0.0118
  929loPI   C5A13851   1.406   9.945   7.116 -0.0368 -0.2376 -0.2415
  929loPI   C6A13852   1.553  10.376   6.931  0.0878 -0.0373 -0.1385
  929loPI   C1B13853   0.818   9.235   6.056 -0.3298 -0.2501  0.0431
  929loPI   C2B13854   0.881   9.338   6.432 -0.1244  0.0512 -0.0184
  929loPI   C3B13855   1.012   9.550   6.739  0.2265 -0.2239  0.1997
  929loPI   C4B13856   0.993   9.716   7.190  0.0961  0.1854 -0.0314
  930loPI    C113857   6.929  10.131   5.222  0.2727 -0.1508 -0.1239
  930loPI    C213858   6.693  10.291   4.942  0.1372 -0.0556  0.0425
  930loPI    C313859   7.071  10.196   4.854  0.1258  0.0657 -0.1444
  930loPI   PO413860   6.782  10.201   5.419 -0.1477  0.5966 -0.2649
  930loPI   GL113861   6.448  10.080   5.842  0.0800 -0.4276 -0.4008
  930loPI   GL213862   6.688   9.924   5.917 -0.3682  0.0742 -0.1408
  930loPI   C1A13863   6.213   9.996   6.246  0.5554  0.1561 -0.2562
  930loPI   C2A13864   6.156   9.980   6.668 -0.2413 -0.1161  0.0488
  930loPI   C3A13865   6.056  10.299   6.934 -0.0698 -0.1340 -0.0342
  930loPI   C4A13866   6.035  10.599   7.242  0.1280 -0.0651 -0.0862
  930loPI   C5A13867   5.902  10.583   7.622 -0.0338  0.0700  0.1587
  930loPI   C6A13868   5.554  10.499   7.962  0.0662 -0.4748 -0.0575
  930loPI   C1B13869   6.779   9.967   6.301 -0.0436 -0.0666  0.1951
  930loPI   C2B13870   6.741   9.938   6.659  0.1075  0.1193 -0.1525
  930loPI   C3B13871   6.558  10.025   7.070  0.0188 -0.0843  0.2825
  930loPI   C4B13872   6.370  10.200   7.309  0.2694 -0.1206 -0.1336
  931loPI    C113873   7.764   2.756   4.855 -0.0236  0.0541  0.0373
  931loPI    C213874   7.764   3.064   4.600  0.2298  0.0985  0.0888
  931loPI    C313875   7.578   2.724   4.502  0.1284  0.1949 -0.0570
  931loPI   PO413876   7.714   2.946   5.081 -0.0246 -0.2685 -0.1710
  931loPI   GL113877   7.478   2.969   5.497 -0.1858  0.0717 -0.2454
  931loPI   GL213878   7.438   2.656   5.674 -0.1443  0.0305 -0.2071
  931loPI   C1A13879   7.744   3.228   5.845 -0.2214  0.3658  0.0387
  931loPI   C2A13880   8.015   3.147   6.210 -0.1399  0.0662  0.2022
  931loPI   C3A13881   7.998   3.159   6.691 -0.3323 -0.1033  0.3150
  931loPI   C4A13882   8.349   3.220   6.970 -0.2582  0.0132 -0.2316
  931loPI   C5A13883   8.426   3.021   7.345 -0.0081 -0.0200  0.1142
  931loPI   C6A13884   8.411   3.121   7.732  0.0372  0.1242  0.0379
  931loPI   C1B13885   7.576   2.667   6.048  0.2729 -0.2217  0.1872
  931loPI   C2B13886   7.809   2.723   6.424 -0.1743 -0.2525 -0.3144
  931loPI   C3B13887   7.729   2.610   6.864 -0.1865  0.1460 -0.2119
  931loPI   C4B13888   7.822   2.514   7.297 -0.0497 -0.0616 -0.2319
  932loPI    C113889   1.844  14.652   4.870  0.0036  0.1932 -0.1536
  932loPI    C213890   2.047  14.347   5.031 -0.0710  0.2012 -0.0431
  932loPI    C313891   1.798  14.282   4.725  0.0192  0.1744 -0.1111
  932loPI   PO413892   1.692  14.716   5.096 -0.2035 -0.3658  0.4501
  932loPI   GL113893   1.610  14.937   5.394 -0.0490 -0.0695  0.1282
  932loPI   GL213894   1.462  15.094   5.589 -0.0530 -0.0912  0.1040
  932loPI   C1A13895   1.406  14.621   5.661  0.0117 -0.0800  0.0170
  932loPI   C2A13896   1.587  14.583   6.009  0.0744 -0.0257  0.0426
  932loPI   C3A13897   1.614  14.321   6.364  0.2494  0.0654 -0.0518
  932loPI   C4A13898   1.465  14.244   6.747  0.0737 -0.1826  0.1804
  932loPI   C5A13899   1.677  14.255   7.099  0.2316 -0.0010  0.0325
  932loPI   C6A13900   1.966  14.026   7.366 -0.0428  0.0767  0.1289
  932loPI   C1B13901   1.547  15.088   6.089  0.3567  0.2552  0.1630
  932loPI   C2B13902   1.575  15.146   6.556 -0.0381  0.1722  0.2039
  932loPI   C3B13903   1.561  15.393   6.879 -0.0444  0.1612 -0.2006
  932loPI   C4B13904   1.291  15.380   7.256 -0.2533  0.1041 -0.1632
  933loPI    C113905  10.474   2.254   5.071  0.0215  0.1783 -0.0380
  933loPI    C213906  10.592   2.191   5.448  0.2236  0.0013 -0.1286
  933loPI    C313907  10.737   2.502   5.242 -0.0398  0.2155  0.0028
  933loPI   PO413908  10.280   2.027   5.099 -0.0515 -0.1647 -0.0679
  933loPI   GL113909  10.168   1.843   5.572 -0.1323  0.3083  0.0868
  933loPI   GL213910   9.868   1.987   5.523 -0.0775  0.0998  0.3101
  933loPI   C1A13911  10.252   1.747   6.018  0.0153  0.1382 -0.2554
  933loPI   C2A13912  10.303   1.690   6.415  0.4973  0.0111 -0.1267
  933loPI   C3A13913  10.056   1.817   6.785  0.1692 -0.0489 -0.2624
  933loPI   C4A13914  10.051   1.748   7.271 -0.1257  0.2212  0.2075
  933loPI   C5A13915  10.332   1.621   7.575  0.0449 -0.0674  0.0433
  933loPI   C6A13916  10.387   1.805   7.970  0.0582  0.2452  0.2132
  933loPI   C1B13917   9.811   1.901   6.058  0.1796  0.1515 -0.1046
  933loPI   C2B13918   9.541   2.011   6.412  0.0473 -0.0540 -0.1157
  933loPI   C3B13919   9.409   2.060   6.760  0.1755 -0.2018 -0.2744
  933loPI   C4B13920   9.615   1.993   7.140 -0.1579 -0.1233  0.2318
  934loPI    C113921   0.223   1.421   5.705 -0.0044 -0.0657  0.0503
  934loPI    C213922  -0.161   1.330   5.643  0.0281 -0.1794  0.0132
  934loPI    C313923   0.084   1.060   5.807 -0.0276  0.0710  0.5288
  934loPI   PO413924   0.273   1.662   5.783  0.1762  0.1671 -0.0440
  934loPI   GL113925   0.482   1.838   6.137 -0.1659  0.0378 -0.1176
  934loPI   GL213926   0.779   1.670   6.077  0.1003 -0.0642 -0.0633
  934loPI   C1A13927   0.183   1.762   6.425 -0.0493  0.2670 -0.0446
  934loPI   C2A13928   0.137   1.878   6.821 -0.3893 -0.2192  0.0584
  934loPI   C3A13929   0.159   1.903   7.184 -0.2545 -0.0833 -0.0449
  934loPI   C4A13930  -0.176   1.754   7.629 -0.2109  0.0387  0.0260
  934loPI   C5A13931  -0.368   1.892   7.973  0.0150  0.3565  0.3655
  934loPI   C6A13932  -0.330   1.927   8.359  0.4673 -0.3679 -0.1990
  934loPI   C1B13933   0.967   1.595   6.491 -0.1071 -0.2412 -0.0939
  934loPI   C2B13934   0.977   1.630   6.977  0.1169 -0.1141 -0.0654
  934loPI   C3B13935   0.812   1.507   7.381  0.0479 -0.1698 -0.2117
  934loPI   C4B13936   0.827   1.518   7.871  0.3926  0.1099  0.0609
  935loPI    C113937   5.266  18.431   4.414 -0.1808  0.1292  0.2487
  935loPI    C213938   5.131  18.788   4.536 -0.0781  0.1319  0.3555
  935loPI    C313939   5.484  18.761   4.349 -0.2538  0.1335  0.0153
  935loPI   PO413940   5.201  18.268   4.602 -0.0209  0.1584 -0.0246
  935loPI   GL113941   5.351  18.116   5.022 -0.0023 -0.1717  0.1471
  935loPI   GL213942   5.304  17.921   5.276 -0.2340  0.5864 -0.0277
  935loPI   C1A13943   5.298  18.311   5.526  0.2107  0.2601  0.2067
  935loPI   C2A13944   5.397  18.376   5.960 -0.0114 -0.3177 -0.0016
  935loPI   C3A13945   5.659  18.151   6.192 -0.2801  0.0974 -0.4489
  935loPI   C4A13946   5.948  17.859   6.399  0.1768 -0.0824 -0.3406
  935loPI   C5A13947   5.938  17.756   6.826  0.0454  0.1751  0.2264
  935loPI   C6A13948   6.291  17.578   7.096  0.3436 -0.3119  0.0400
  935loPI   C1B13949   5.519  17.870   5.681  0.4558 -0.0661 -0.0566
  935loPI   C2B13950   5.626  17.663   6.069  0.0999 -0.2172 -0.2756
  935loPI   C3B13951   5.458  17.674   6.483 -0.0148  0.1914  0.1064
  935loPI   C4B13952   5.473  17.895   6.755  0.3730 -0.4755 -0.0968
  936loPI    C113953  14.864  14.184   5.364 -0.0819  0.1340  0.1304
  936loPI    C213954  14.548  13.982   5.224  0.0847 -0.1535  0.1610
  936loPI    C313955  14.780  14.190   4.973 -0.1185  0.0479  0.1367
  936loPI   PO413956  14.754  14.268   5.584  0.0519  0.0584 -0.0908
  936loPI   GL113957  14.548  14.546   5.777 -0.2507  0.2497  0.2009
  936loPI   GL213958  14.202  14.464   5.721  0.1007  0.1678 -0.0031
  936loPI   C1A13959  14.675  14.595   6.237  0.0140 -0.2064 -0.0467
  936loPI   C2A13960  14.729  14.592   6.664  0.1386 -0.0101 -0.0557
  936loPI   C3A13961  14.766  14.523   7.133  0.1516  0.2961  0.1944
  936loPI   C4A13962  14.683  14.624   7.511  0.2505  0.0286  0.0124
  936loPI   C5A13963  14.937  14.832   7.877  0.1546  0.0854  0.0490
  936loPI   C6A13964  15.203  14.686   8.155  0.0108  0.1037  0.4837
  936loPI   C1B13965  14.235  14.387   6.128 -0.1335  0.0445 -0.1042
  936loPI   C2B13966  14.312  14.310   6.515 -0.0743 -0.0331 -0.0723
  936loPI   C3B13967  14.341  14.354   6.875 -0.0912 -0.1369 -0.0460
  936loPI   C4B13968  14.082  14.251   7.251 -0.0128  0.1437 -0.0608
  937loPI    C113969   4.850   8.057   4.946  0.0322 -0.1275  0.1831
  937loPI    C213970   5.105   7.766   5.046  0.2833  0.0557  0.0853
  937loPI    C313971   4.931   7.764   4.686  0.3528  0.0726  0.0513
  937loPI   PO413972   4.705   8.041   5.164  0.0528 -0.2013  0.2800
  937loPI   GL113973   4.623   8.255   5.483  0.1885  0.1839 -0.0715
  937loPI   GL213974   4.423   7.958   5.656  0.0515  0.2788 -0.1851
  937loPI   C1A13975   4.799   8.195   5.919 -0.0688 -0.1032 -0.0805
  937loPI   C2A13976   4.718   8.231   6.402  0.0965  0.1352 -0.1058
  937loPI   C3A13977   4.719   8.030   6.812  0.3176 -0.2759 -0.0124
  937loPI   C4A13978   4.713   8.010   7.297 -0.1301 -0.1249 -0.2869
  937loPI   C5A13979   4.616   8.197   7.678  0.1548 -0.1720  0.1018
  937loPI   C6A13980   4.654   8.681   7.755 -0.2543  0.4207  0.0555
  937loPI   C1B13981   4.334   8.070   6.055  0.3943 -0.3808  0.4647
  937loPI   C2B13982   4.215   8.046   6.495  0.1490 -0.1594  0.1071
  937loPI   C3B13983   4.220   8.001   6.896 -0.0199  0.1046 -0.1868
  937loPI   C4B13984   4.194   8.092   7.246  0.1973  0.0678 -0.1700
  938loPI    C113985  17.689   2.582   5.606 -0.0618 -0.0962  0.0050
  938loPI    C213986  17.921   2.546   5.929 -0.0969  0.1173  0.0557
  938loPI    C313987  18.070   2.466   5.566 -0.1231 -0.3503  0.1420
  938loPI   PO413988  17.528   2.779   5.708 -0.3516  0.0462  0.2827
  938loPI   GL113989  17.596   3.045   6.050  0.1588 -0.1225 -0.0189
  938loPI   GL213990  17.591   2.772   6.297  0.0440  0.0616  0.0671
  938loPI   C1A13991  17.334   3.200   6.408 -0.3084 -0.2946 -0.1020
  938loPI   C2A13992  17.345   3.135   6.874 -0.1296 -0.3285  0.2272
  938loPI   C3A13993  17.294   3.133   7.360 -0.3895  0.1266  0.1090
  938loPI   C4A13994  17.192   3.433   7.662 -0.0301 -0.0248  0.2509
  938loPI   C5A13995  16.946   3.746   7.715 -0.0392 -0.0454  0.0198
  938loPI   C6A13996  16.587   3.978   7.459 -0.1737  0.0404 -0.1689
  938loPI   C1B13997  17.606   2.803   6.634  0.2003  0.0302 -0.3679
  938loPI   C2B13998  17.534   2.715   7.054  0.2698  0.1239 -0.1411
  938loPI   C3B13999  17.546   2.725   7.522  0.4533  0.5528 -0.3622
  938loPI   C4B14000  17.485   3.038   7.931  0.2406  0.4104  0.2258
  939loPI    C114001  13.675   1.581   5.064  0.0764 -0.0989  0.1322
  939loPI    C214002  13.807   1.957   5.026 -0.1574 -0.0184  0.0996
  939loPI    C314003  13.974   1.664   4.812 -0.2204  0.1288 -0.1549
  939loPI   PO414004  13.603   1.475   5.317  0.1131  0.1393  0.3686
  939loPI   GL114005  13.386   1.226   5.519 -0.1609  0.0180 -0.0680
  939loPI   GL214006  13.461   0.930   5.539 -0.0033  0.0575  0.1722
  939loPI   C1A14007  13.501   1.297   6.001  0.4149  0.0013 -0.0237
  939loPI   C2A14008  13.550   1.476   6.418  0.1180  0.1454  0.1909
  939loPI   C3A14009  13.454   1.628   6.924 -0.0645 -0.0755 -0.1196
  939loPI   C4A14010  13.115   1.622   7.294  0.0398 -0.0686  0.1375
  939loPI   C5A14011  12.860   1.415   7.668 -0.2638 -0.3658 -0.0371
  939loPI   C6A14012  12.623   1.145   7.951 -0.0686  0.0885 -0.1459
  939loPI   C1B14013  13.392   0.535   5.754 -0.0329  0.1409  0.2467
  939loPI   C2B14014  13.157   0.449   6.123 -0.1953 -0.0290 -0.1172
  939loPI   C3B14015  13.130   0.471   6.564  0.0529  0.1966 -0.1789
  939loPI   C4B14016  13.183   0.660   6.882 -0.0208  0.1939 -0.2724
  940loPI    C114017   0.313  16.301   5.056 -0.2725  0.1434 -0.0227
  940loPI    C214018   0.508  16.123   5.356 -0.1826  0.2813  0.0015
  940loPI    C314019   0.261  15.910   5.124 -0.0242  0.1105 -0.0132
  940loPI   PO414020   0.231  16.470   5.121 -0.1300 -0.4702  0.1875
  940loPI   GL114021   0.153  16.713   5.515  0.0817 -0.0122  0.3405
  940loPI   GL214022   0.493  16.596   5.616  0.3915  0.1974  0.1411
  940loPI   C1A14023   0.370  17.053   5.813 -0.3123 -0.1679  0.0673
  940loPI   C2A14024   0.503  17.086   6.187 -0.2761  0.0248 -0.0697
  940loPI   C3A14025   0.371  16.986   6.554 -0.0894 -0.1527  0.0845
  940loPI   C4A14026   0.286  17.033   6.920  0.1257 -0.3865 -0.0724
  940loPI   C5A14027   0.299  16.792   7.233 -0.1635  0.2264  0.1614
  940loPI   C6A14028   0.106  16.528   7.505 -0.1595  0.0022  0.1871
  940loPI   C1B14029   0.360  16.506   5.956  0.0914 -0.0512 -0.1560
  940loPI   C2B14030   0.486  16.560   6.318  0.1209  0.1038  0.1913
  940loPI   C3B14031   0.871  16.809   6.486 -0.2437 -0.1151 -0.2203
  940loPI   C4B14032   0.998  17.137   6.310  0.0079 -0.0769 -0.0222
  941loPI    C114033   9.876   1.465   4.911  0.2883 -0.2028  0.0825
  941loPI    C214034   9.990   1.816   4.755  0.2678 -0.1659  0.1501
  941loPI    C314035  10.088   1.474   4.571 -0.0765 -0.1102 -0.1480
  941loPI   PO414036   9.877   1.638   5.215  0.1838  0.1468 -0.0773
  941loPI   GL114037   9.877   1.434   5.600  0.3959 -0.0239 -0.0173
  941loPI   GL214038   9.565   1.208   5.583  0.1537 -0.1688  0.1213
  941loPI   C1A14039   9.844   1.416   6.086  0.2120 -0.1399 -0.1043
  941loPI   C2A14040   9.784   1.558   6.462 -0.3230 -0.1807 -0.0689
  941loPI   C3A14041   9.645   1.542   6.866  0.1366 -0.3498 -0.1033
  941loPI   C4A14042   9.571   1.344   7.223 -0.2086 -0.0546 -0.1174
  941loPI   C5A14043   9.771   1.394   7.665  0.0634  0.0624  0.0132
  941loPI   C6A14044   9.988   1.526   7.995 -0.0160  0.1524 -0.1825
  941loPI   C1B14045   9.883   0.920   5.917 -0.1910 -0.2133 -0.4106
  941loPI   C2B14046   9.840   0.933   6.346  0.2430  0.1078  0.0401
  941loPI   C3B14047   9.963   0.808   6.716  0.0712  0.0270  0.0567
  941loPI   C4B14048  10.079   0.579   7.011 -0.0889  0.1610 -0.1823
  942loPI    C114049   2.248   4.442   5.030  0.1623 -0.0215  0.1446
  942loPI    C214050   2.406   4.079   4.969 -0.1261 -0.1884  0.3651
  942loPI    C314051   2.008   4.128   4.967 -0.0882  0.1426  0.2613
  942loPI   PO414052   2.436   4.495   5.190 -0.2113  0.4646  0.0692
  942loPI   GL114053   2.492   4.524   5.617  0.2767 -0.2576 -0.4573
  942loPI   GL214054   2.471   4.685   5.875 -0.0191  0.0761 -0.5570
  942loPI   C1A14055   2.598   4.236   5.945 -0.3801  0.0779  0.1822
  942loPI   C2A14056   2.516   4.174   6.316  0.0916 -0.3171  0.1115
  942loPI   C3A14057   2.442   4.020   6.776  0.1349 -0.0568  0.2349
  942loPI   C4A14058   2.641   3.863   7.253  0.1791  0.4634 -0.0589
  942loPI   C5A14059   2.995   3.717   7.535  0.2697 -0.0282 -0.2154
  942loPI   C6A14060   3.092   3.549   7.847  0.0458  0.3223 -0.0553
  942loPI   C1B14061   2.294   4.643   6.254  0.1713  0.0489  0.0340
  942loPI   C2B14062   2.367   4.550   6.746  0.0547 -0.4508 -0.1874
  942loPI   C3B14063   2.196   4.711   7.084  0.3974 -0.0542 -0.1059
  942loPI   C4B14064   2.293   4.598   7.517  0.2490 -0.3755  0.0492
  943loPI    C114065   5.704   8.055   5.068 -0.0680 -0.1933 -0.2409
  943loPI    C214066   6.031   7.856   4.952 -0.0083 -0.0504 -0.3189
  943loPI    C314067   6.065   8.222   5.111 -0.0925 -0.2202  0.1023
  943loPI   PO414068   5.580   7.879   5.163 -0.1719 -0.1287 -0.1403
  943loPI   GL114069   5.360   7.708   5.460 -0.0281  0.3335 -0.0429
  943loPI   GL214070   5.594   7.471   5.473  0.0078 -0.0058  0.2098
  943loPI   C1A14071   5.230   8.006   5.751 -0.2046 -0.0169  0.1096
  943loPI   C2A14072   5.183   7.985   6.172 -0.0383 -0.0954 -0.0616
  943loPI   C3A14073   5.101   7.709   6.570  0.0300 -0.3813  0.2052
  943loPI   C4A14074   5.105   7.668   7.027  0.1775 -0.0635  0.0180
  943loPI   C5A14075   4.839   7.431   7.393 -0.0167 -0.2241  0.1412
  943loPI   C6A14076   4.599   7.190   7.684 -0.1237  0.1878  0.1309
  943loPI   C1B14077   5.499   7.463   5.875 -0.1348  0.0948  0.3876
  943loPI   C2B14078   5.438   7.513   6.205  0.0415  0.1961  0.5146
  943loPI   C3B14079   5.569   7.490   6.692  0.0086 -0.2261 -0.0118
  943loPI   C4B14080   5.708   7.231   7.034  0.1889  0.0949 -0.0487
  944loPI    C114081  13.489   0.220   4.967  0.1473 -0.0061 -0.0929
  944loPI    C214082  13.315   0.202   4.608 -0.1692  0.2714  0.0405
  944loPI    C314083  13.484   0.543   4.731  0.0237  0.1494  0.1182
  944loPI   PO414084  13.340   0.119   5.168 -0.0501  0.1417 -0.5346
  944loPI   GL114085  13.170   0.195   5.500  0.0326  0.0567  0.1354
  944loPI   GL214086  13.028  -0.187   5.549  0.3114  0.0141 -0.0414
  944loPI   C1A14087  13.346   0.075   5.856  0.2652  0.1758  0.1480
  944loPI   C2A14088  13.523   0.020   6.206 -0.1323 -0.4909 -0.2532
  944loPI   C3A14089  13.575   0.157   6.648 -0.0388  0.0421 -0.1025
  944loPI   C4A14090  13.901   0.436   6.955  0.1391  0.0448  0.0265
  944loPI   C5A14091  14.052   0.837   7.134  0.1580 -0.0629 -0.4425
  944loPI   C6A14092  13.984   0.922   7.599 -0.0788 -0.3912  0.3403
  944loPI   C1B14093  12.979  -0.235   6.004  0.1517 -0.0380 -0.0019
  944loPI   C2B14094  12.813  -0.388   6.359  0.1638  0.0543 -0.0525
  944loPI   C3B14095  12.835  -0.428   6.790  0.0272 -0.0527 -0.0686
  944loPI   C4B14096  13.001  -0.399   7.290 -0.4039  0.1001 -0.2409
  945loPI    C114097   6.743   1.623   4.709 -0.1073 -0.3954 -0.0944
  945loPI    C214098   6.477   1.763   4.445 -0.1038 -0.0456  0.0828
  945loPI    C314099   6.861   1.723   4.340 -0.1553 -0.1880 -0.0547
  945loPI   PO414100   6.714   1.847   4.952  0.0287 -0.0992  0.0568
  945loPI   GL114101   6.766   2.045   5.409  0.2091 -0.0631  0.1096
  945loPI   GL214102   6.936   2.334   5.580 -0.0115  0.1889 -0.0916
  945loPI   C1A14103   7.038   1.829   5.766 -0.2019 -0.1327 -0.1369
  945loPI   C2A14104   7.160   1.763   6.223  0.0956  0.0970  0.5920
  945loPI   C3A14105   7.446   1.858   6.536 -0.1835  0.1007  0.0531
  945loPI   C4A14106   7.738   2.095   6.753 -0.4245 -0.0421  0.0260
  945loPI   C5A14107   8.055   2.112   7.076  0.6059  0.2490 -0.0173
  945loPI   C6A14108   8.423   2.062   7.347  0.2561  0.0989  0.2094
  945loPI   C1B14109   6.772   2.224   5.919  0.0652  0.3411  0.1057
  945loPI   C2B14110   6.880   2.198   6.366 -0.0321  0.2458  0.2644
  945loPI   C3B14111   7.100   2.056   6.809  0.1701 -0.2398 -0.0325
  945loPI   C4B14112   7.065   1.762   7.154  0.0839 -0.1156  0.2448
  946loPI    C114113   3.280   6.470   5.009 -0.2030 -0.1704  0.2089
  946loPI    C214114   3.314   6.083   4.914  0.1095 -0.0891 -0.0226
  946loPI    C314115   3.180   6.345   4.643 -0.0055 -0.0181  0.1016
  946loPI   PO414116   3.117   6.453   5.315  0.1474 -0.1086  0.0709
  946loPI   GL114117   3.334   6.465   5.751  0.1287  0.2997 -0.0123
  946loPI   GL214118   3.399   6.670   5.599  0.1227  0.1919  0.1004
  946loPI   C1A14119   3.397   6.509   6.198  0.2353 -0.3038  0.1527
  946loPI   C2A14120   3.203   6.259   6.523  0.2085  0.0603  0.0707
  946loPI   C3A14121   3.220   6.218   7.031 -0.0480  0.0678  0.0399
  946loPI   C4A14122   3.255   6.004   7.364 -0.2475 -0.1781 -0.2783
  946loPI   C5A14123   3.155   5.742   7.553  0.3676 -0.0656  0.2949
  946loPI   C6A14124   3.124   5.345   7.773  0.1756  0.0907  0.3124
  946loPI   C1B14125   3.416   6.934   5.975  0.2248  0.2381 -0.3065
  946loPI   C2B14126   3.428   6.914   6.437 -0.0949  0.3431 -0.0789
  946loPI   C3B14127   3.298   6.897   6.872  0.0471 -0.4341 -0.0119
  946loPI   C4B14128   3.266   6.862   7.393  0.0936 -0.2031 -0.0891
  947loPI    C114129   1.445   7.076   5.631 -0.0619 -0.2374  0.0311
  947loPI    C214130   1.155   7.255   5.421 -0.0511  0.0240  0.2344
  947loPI    C314131   1.522   7.221   5.267 -0.1472 -0.1644  0.0417
  947loPI   PO414132   1.382   7.120   5.848  0.2767  0.2769 -0.1357
  947loPI   GL114133   1.281   7.050   6.181  0.1635  0.5335  0.1954
  947loPI   GL214134   1.126   6.848   6.389 -0.1072  0.1706  0.0294
  947loPI   C1A14135   1.190   7.378   6.432 -0.0972  0.1310 -0.0463
  947loPI   C2A14136   1.141   7.340   6.871 -0.0682  0.3006 -0.3408
  947loPI   C3A14137   1.291   7.465   7.281  0.1304  0.2877 -0.0764
  947loPI   C4A14138   1.477   7.476   7.626  0.1713 -0.1111  0.3211
  947loPI   C5A14139   1.539   7.744   7.938  0.0020 -0.2163  0.1311
  947loPI   C6A14140   1.705   7.933   8.242  0.1550 -0.0807 -0.0669
  947loPI   C1B14141   1.118   6.832   6.773 -0.2822 -0.1204  0.1011
  947loPI   C2B14142   0.995   6.954   7.261  0.2654  0.0206  0.1303
  947loPI   C3B14143   0.746   6.777   7.633  0.3917  0.1721  0.0893
  947loPI   C4B14144   0.668   6.728   8.054 -0.0717 -0.1210  0.2080
  948loPI    C114145   1.642   5.031   5.325  0.0119  0.0687  0.2099
  948loPI    C214146   1.823   5.365   5.451 -0.0860  0.1822  0.0540
  948loPI    C314147   1.786   5.293   5.060  0.0691 -0.0866  0.0859
  948loPI   PO414148   1.549   4.870   5.572 -0.1740  0.1319 -0.1956
  948loPI   GL114149   1.319   4.788   5.920 -0.0821 -0.3016  0.1248
  948loPI   GL214150   1.100   5.011   5.998  0.0413 -0.0271  0.2736
  948loPI   C1A14151   1.279   4.630   6.370 -0.2882  0.2425 -0.0565
  948loPI   C2A14152   1.151   4.584   6.837 -0.1172  0.1112  0.2434
  948loPI   C3A14153   1.008   4.446   7.280 -0.0152  0.2168  0.0459
  948loPI   C4A14154   0.927   4.294   7.783  0.2173 -0.3552 -0.4445
  948loPI   C5A14155   0.919   3.944   7.874 -0.1627 -0.0592  0.4437
  948loPI   C6A14156   0.932   3.578   7.937  0.1310 -0.2166 -0.4363
  948loPI   C1B14157   0.898   4.955   6.306  0.1299 -0.2108  0.0139
  948loPI   C2B14158   0.900   5.070   6.759 -0.2587  0.0471  0.0343
  948loPI   C3B14159   0.817   4.950   7.206 -0.1291  0.4200 -0.0983
  948loPI   C4B14160   0.898   4.921   7.668 -0.0362 -0.0106  0.0926
  949loPI    C114161   3.850   8.705   4.701 -0.2244 -0.1127  0.0985
  949loPI    C214162   4.053   8.390   4.564 -0.0326  0.0977 -0.1104
  949loPI    C314163   3.668   8.352   4.662 -0.0501 -0.1664 -0.2713
  949loPI   PO414164   3.960   8.795   4.894  0.0779  0.1386 -0.1719
  949loPI   GL114165   4.009   8.923   5.298  0.3935 -0.1172  0.4706
  949loPI   GL214166   3.637   9.094   5.368 -0.3290 -0.0773  0.1749
  949loPI   C1A14167   4.054   9.191   5.601  0.1296  0.1580 -0.2605
  949loPI   C2A14168   3.776   9.306   6.031 -0.1420  0.0497  0.0851
  949loPI   C3A14169   3.662   9.477   6.483 -0.3997  0.0491  0.2260
  949loPI   C4A14170   3.663   9.545   6.924 -0.0771 -0.0099 -0.3130
  949loPI   C5A14171   3.764   9.698   7.291 -0.1109 -0.0613 -0.2921
  949loPI   C6A14172   4.140   9.736   7.683 -0.2055  0.2975 -0.1955
  949loPI   C1B14173   3.428   9.532   5.700  0.0619 -0.0057 -0.2428
  949loPI   C2B14174   3.190   9.388   6.024  0.2892  0.1622  0.0985
  949loPI   C3B14175   3.110   9.419   6.519  0.2706 -0.1074 -0.0889
  949loPI   C4B14176   3.177   9.584   6.942  0.3200 -0.0843 -0.0384
  950loPI    C114177  11.908   5.773   5.492  0.1221  0.0294 -0.0057
  950loPI    C214178  12.220   5.652   5.273  0.1452  0.1820 -0.0585
  950loPI    C314179  12.044   6.002   5.193 -0.1029  0.0512 -0.0933
  950loPI   PO414180  11.990   5.658   5.699 -0.0079  0.0669  0.1595
  950loPI   GL114181  12.080   5.476   6.032  0.2047 -0.1102 -0.2194
  950loPI   GL214182  12.283   5.288   6.047 -0.0804  0.3311 -0.1190
  950loPI   C1A14183  12.000   5.240   6.442  0.2959  0.0376  0.4892
  950loPI   C2A14184  11.902   5.144   6.852 -0.2372 -0.1071  0.0366
  950loPI   C3A14185  11.867   5.321   7.292 -0.1909 -0.0309  0.2063
  950loPI   C4A14186  11.910   5.487   7.735  0.1084  0.1547 -0.0542
  950loPI   C5A14187  12.039   5.317   8.138 -0.1347  0.0393 -0.5791
  950loPI   C6A14188  12.336   4.890   8.132 -0.0834  0.1044  0.0200
  950loPI   C1B14189  12.648   5.404   6.202  0.1374 -0.2499 -0.3744
  950loPI   C2B14190  12.744   5.702   6.295  0.0734 -0.1909  0.2006
  950loPI   C3B14191  12.843   5.760   6.665 -0.3145 -0.4506 -0.0441
  950loPI   C4B14192  13.064   5.739   7.103  0.1715  0.3880 -0.1308
  951loPI    C114193   0.180   0.202   5.246  0.0869 -0.1951 -0.2443
  951loPI    C214194   0.145  -0.094   4.979 -0.1825 -0.0776 -0.3424
  951loPI    C314195  -0.128   0.198   4.991 -0.1348 -0.0439  0.0165
  951loPI   PO414196   0.306   0.094   5.498  0.0681  0.2097  0.0372
  951loPI   GL114197   0.253   0.177   6.004  0.4141  0.2727  0.1690
  951loPI   GL214198   0.493  -0.115   5.925 -0.2945  0.2976 -0.0757
  951loPI   C1A14199   0.252   0.339   6.373 -0.0367  0.2473  0.0412
  951loPI   C2A14200   0.159   0.472   6.715  0.1472  0.0047  0.0194
  951loPI   C3A14201   0.192   0.523   7.122  0.0884  0.2361  0.1193
  951loPI   C4A14202   0.352   0.565   7.476  0.0871  0.0796  0.2646
  951loPI   C5A14203   0.758   0.538   7.588  0.2487  0.0111  0.2408
  951loPI   C6A14204   1.029   0.261   7.897  0.0927  0.0982 -0.1141
  951loPI   C1B14205   0.446  -0.174   6.357  0.1229 -0.3938  0.1774
  951loPI   C2B14206   0.446  -0.024   6.844  0.0286 -0.1229  0.1678
  951loPI   C3B14207   0.233   0.052   7.211  0.0467  0.2526 -0.2491
  951loPI   C4B14208  -0.082   0.243   7.472  0.1423  0.0376  0.1301
  952loPI    C114209  16.624   0.833   5.329  0.2694  0.2699 -0.0236
  952loPI    C214210  16.710   1.098   5.043  0.2103  0.1302 -0.1722
  952loPI    C314211  16.605   0.725   4.945  0.0054  0.1335  0.0251
  952loPI   PO414212  16.500   0.936   5.473 -0.0533 -0.0624 -0.0826
  952loPI   GL114213  16.542   1.174   5.925 -0.0954 -0.2010  0.1055
  952loPI   GL214214  16.480   1.291   6.304 -0.1965 -0.1977 -0.0889
  952loPI   C1A14215  16.206   0.909   6.058 -0.0487 -0.0271  0.1401
  952loPI   C2A14216  15.877   0.982   6.334 -0.2077 -0.0363  0.0953
  952loPI   C3A14217  15.760   0.853   6.720 -0.0180  0.1035 -0.1122
  952loPI   C4A14218  15.537   0.991   7.073  0.0914  0.0391  0.2460
  952loPI   C5A14219  15.391   0.873   7.434  0.0845  0.3509 -0.2811
  952loPI   C6A14220  14.980   0.639   7.603  0.2029  0.4749 -0.0523
  952loPI   C1B14221  16.627   1.208   6.760 -0.2977  0.4587 -0.0685
  952loPI   C2B14222  16.542   0.952   7.200 -0.0962  0.3349 -0.2652
  952loPI   C3B14223  16.357   0.606   7.485  0.0706  0.0188 -0.2562
  952loPI   C4B14224  16.323   0.245   7.805 -0.1504  0.0333 -0.1407
  953loPI    C114225  11.270  15.905   4.951  0.0497 -0.1314 -0.2085
  953loPI    C214226  11.662  15.981   4.981 -0.0561  0.3650  0.0111
  953loPI    C314227  11.448  16.142   4.683 -0.0777  0.0035 -0.1747
  953loPI   PO414228  11.192  15.889   5.160  0.1750 -0.2890 -0.2022
  953loPI   GL114229  11.420  16.012   5.510 -0.3740  0.0038 -0.3462
  953loPI   GL214230  11.658  16.237   5.694  0.0708 -0.0979 -0.1170
  953loPI   C1A14231  11.171  15.842   5.814  0.1454  0.0056  0.0401
  953loPI   C2A14232  11.233  15.719   6.232 -0.2130  0.3183 -0.0569
  953loPI   C3A14233  11.500  15.358   6.428  0.0056  0.0545  0.1113
  953loPI   C4A14234  11.609  15.202   6.840 -0.2847  0.3768 -0.1522
  953loPI   C5A14235  11.788  15.059   7.221  0.1184 -0.2508 -0.2387
  953loPI   C6A14236  11.661  14.981   7.608 -0.2522 -0.3591  0.1459
  953loPI   C1B14237  11.698  16.142   6.052  0.0668  0.0711  0.0794
  953loPI   C2B14238  11.558  16.056   6.526 -0.0510 -0.0521 -0.1506
  953loPI   C3B14239  11.300  15.810   6.731 -0.1073 -0.2368  0.0663
  953loPI   C4B14240  10.887  15.716   6.918 -0.0614 -0.6431 -0.2837
  954loPI    C114241   3.030  11.816   5.095 -0.0985  0.0110  0.1666
  954loPI    C214242   2.712  11.625   4.948 -0.1212  0.3115 -0.1904
  954loPI    C314243   3.066  11.592   4.766  0.0760 -0.0736  0.2419
  954loPI   PO414244   2.886  11.753   5.415  0.0300  0.2593 -0.2507
  954loPI   GL114245   2.917  11.896   5.768  0.1384 -0.2591 -0.2279
  954loPI   GL214246   3.024  12.204   5.935  0.2131 -0.0436  0.0530
  954loPI   C1A14247   2.903  11.872   6.260  0.1095  0.2030 -0.1961
  954loPI   C2A14248   2.869  11.717   6.706  0.2553 -0.0046  0.0189
  954loPI   C3A14249   2.994  11.519   7.109  0.1752  0.1610  0.1230
  954loPI   C4A14250   3.092  11.382   7.447 -0.0758 -0.1153  0.1339
  954loPI   C5A14251   3.504  11.381   7.542 -0.0485 -0.0710  0.1143
  954loPI   C6A14252   3.982  11.406   7.516 -0.0630  0.0774  0.0277
  954loPI   C1B14253   3.099  12.430   6.317 -0.1052  0.0133 -0.3161
  954loPI   C2B14254   3.339  12.383   6.606  0.0443  0.1227  0.0168
  954loPI   C3B14255   3.247  12.312   6.979 -0.2123  0.1975 -0.1821
  954loPI   C4B14256   3.037  11.966   7.245 -0.2619  0.0028  0.3439
  955loPI    C114257  14.824   4.457   4.983  0.0457 -0.3990  0.0318
  955loPI    C214258  14.649   4.435   4.624 -0.1310  0.0208  0.0872
  955loPI    C314259  15.047   4.417   4.653 -0.1191 -0.0813 -0.1225
  955loPI   PO414260  14.756   4.381   5.106  0.2000  0.2034 -0.0135
  955loPI   GL114261  14.725   4.344   5.485  0.0212 -0.1599 -0.1727
  955loPI   GL214262  14.963   4.301   5.582  0.0322  0.0089  0.2355
  955loPI   C1A14263  14.401   4.467   5.723 -0.0956 -0.0659 -0.3082
  955loPI   C2A14264  14.357   4.442   6.270  0.0432  0.0636  0.5013
  955loPI   C3A14265  14.452   4.266   6.651  0.4770  0.0068 -0.1856
  955loPI   C4A14266  14.313   3.937   6.927  0.1143  0.0271 -0.1867
  955loPI   C5A14267  14.164   3.595   7.181 -0.0511 -0.2509 -0.1336
  955loPI   C6A14268  14.411   3.202   7.327 -0.0277  0.0655  0.2732
  955loPI   C1B14269  14.887   4.279   5.972 -0.1426  0.1995 -0.0240
  955loPI   C2B14270  14.946   4.226   6.466 -0.1914  0.0730 -0.0729
  955loPI   C3B14271  14.936   4.164   6.925  0.1415 -0.2569 -0.1871
  955loPI   C4B14272  14.834   4.109   7.304  0.0049 -0.2031 -0.1070
  956loPI    C114273   6.793   9.155   5.427  0.0783 -0.0448 -0.2639
  956loPI    C214274   7.055   8.854   5.406 -0.0990 -0.2050 -0.2040
  956loPI    C314275   6.698   8.821   5.228 -0.0889  0.0026 -0.2652
  956loPI   PO414276   6.758   9.206   5.599 -0.1032  0.0625 -0.0016
  956loPI   GL114277   6.624   8.978   6.007 -0.2753  0.0098 -0.0907
  956loPI   GL214278   6.336   8.972   6.016  0.0535  0.1598  0.2586
  956loPI   C1A14279   6.885   8.853   6.325  0.1414  0.1593 -0.0852
  956loPI   C2A14280   7.081   8.868   6.772  0.2175 -0.2155 -0.1143
  956loPI   C3A14281   7.238   8.758   7.199  0.1066  0.2270  0.1734
  956loPI   C4A14282   7.404   8.612   7.564 -0.3676 -0.0712  0.0942
  956loPI   C5A14283   7.718   8.431   7.717  0.1015  0.1519  0.2637
  956loPI   C6A14284   8.079   8.186   7.684  0.1247 -0.1078  0.1114
  956loPI   C1B14285   6.390   9.117   6.402 -0.3281  0.0621 -0.0941
  956loPI   C2B14286   6.606   9.071   6.830  0.1267 -0.1567  0.1414
  956loPI   C3B14287   6.739   9.033   7.249  0.2033 -0.0874 -0.0108
  956loPI   C4B14288   7.019   8.961   7.627 -0.0862  0.1768 -0.0739
  957loPI    C114289  11.831  16.628   5.114 -0.0416 -0.1085  0.1658
  957loPI    C214290  11.928  16.347   4.846  0.2653  0.0671  0.0885
  957loPI    C314291  11.635  16.607   4.766 -0.1174 -0.3124  0.2193
  957loPI   PO414292  11.875  16.571   5.363 -0.2890  0.3216  0.2546
  957loPI   GL114293  11.803  16.741   5.738 -0.0047  0.1863 -0.2122
  957loPI   GL214294  12.014  16.908   5.926 -0.1217 -0.1069 -0.0252
  957loPI   C1A14295  11.740  16.606   6.218 -0.0051 -0.2445  0.0643
  957loPI   C2A14296  11.873  16.503   6.580  0.2572  0.0236 -0.1823
  957loPI   C3A14297  11.928  16.414   7.042  0.0043  0.1820 -0.3147
  957loPI   C4A14298  11.709  16.223   7.353  0.1132  0.1271 -0.3619
  957loPI   C5A14299  11.748  15.891   7.519 -0.0375  0.1074 -0.0950
  957loPI   C6A14300  11.707  15.563   7.351  0.0244 -0.0926 -0.0242
  957loPI   C1B14301  12.129  16.888   6.378  0.2040 -0.0520 -0.4161
  957loPI   C2B14302  12.099  16.960   6.911 -0.2684  0.2549  0.0394
  957loPI   C3B14303  12.026  17.148   7.290  0.2022  0.1591 -0.1033
  957loPI   C4B14304  11.713  17.398   7.343  0.0654 -0.0092 -0.2388
  958loPI    C114305  17.433  14.189   5.168 -0.1179  0.1135 -0.0200
  958loPI    C214306  17.690  14.300   4.882 -0.1395 -0.0910 -0.1205
  958loPI    C314307  17.307  14.414   4.862 -0.0643  0.1932  0.0162
  958loPI   PO414308  17.497  14.309   5.397 -0.0244 -0.2961 -0.1611
  958loPI   GL114309  17.613  14.184   5.761  0.3133  0.0432  0.0885
  958loPI   GL214310  18.001  14.096   5.748 -0.0824 -0.3728 -0.0965
  958loPI   C1A14311  17.799  14.263   6.217  0.0423  0.0182 -0.1591
  958loPI   C2A14312  17.695  14.198   6.694  0.0106 -0.0650  0.0878
  958loPI   C3A14313  17.811  14.015   7.129 -0.1494 -0.2546 -0.2193
  958loPI   C4A14314  17.716  14.101   7.506  0.1772  0.1886  0.3328
  958loPI   C5A14315  17.522  14.375   7.817  0.4188  0.1214 -0.1491
  958loPI   C6A14316  17.344  14.555   8.243  0.0539  0.1699  0.2686
  958loPI   C1B14317  18.248  14.240   6.083  0.1379 -0.0040  0.0441
  958loPI   C2B14318  18.512  14.303   6.534  0.5763 -0.1858  0.1538
  958loPI   C3B14319  18.637  14.181   6.942 -0.1517 -0.0683 -0.0945
  958loPI   C4B14320  18.686  13.950   7.305  0.1218 -0.3591  0.2205
  959loPI    C114321   6.016   9.074   5.559 -0.0348  0.0848 -0.2015
  959loPI    C214322   5.936   8.828   5.255 -0.2993 -0.0053 -0.0613
  959loPI    C314323   5.867   8.710   5.631 -0.0528  0.1366  0.0303
  959loPI   PO414324   6.280   9.128   5.512 -0.0670 -0.3958  0.0528
  959loPI   GL114325   6.343   9.559   5.756  0.3079 -0.2901 -0.0122
  959loPI   GL214326   6.028   9.521   5.843 -0.2762 -0.0412  0.0036
  959loPI   C1A14327   6.524   9.501   6.111  0.1550 -0.0484 -0.1514
  959loPI   C2A14328   6.438   9.582   6.525  0.2322 -0.0279 -0.1279
  959loPI   C3A14329   6.584   9.550   6.944 -0.2480 -0.0268 -0.2016
  959loPI   C4A14330   6.486   9.734   7.436 -0.0099  0.2931  0.0626
  959loPI   C5A14331   6.404   9.879   7.826 -0.1453 -0.0899 -0.3220
  959loPI   C6A14332   6.218  10.255   7.897  0.0897  0.1427 -0.0155
  959loPI   C1B14333   5.943   9.564   6.292 -0.1656  0.0523  0.1960
  959loPI   C2B14334   6.022   9.384   6.739 -0.4110  0.0457 -0.0774
  959loPI   C3B14335   6.112   9.266   7.180 -0.3293  0.2457  0.0582
  959loPI   C4B14336   6.082   9.123   7.510  0.0914  0.1524 -0.0419
  960loPI    C114337  14.847   7.994   5.649  0.2284 -0.0130 -0.0725
  960loPI    C214338  14.909   7.823   5.293  0.0828 -0.0840 -0.0645
  960loPI    C314339  14.848   8.218   5.318 -0.1559 -0.1141 -0.1470
  960loPI   PO414340  14.998   7.954   5.890 -0.1872 -0.0728  0.0631
  960loPI   GL114341  14.960   8.068   6.362 -0.1984 -0.1501 -0.2539
  960loPI   GL214342  14.704   8.333   6.486 -0.1633  0.2036  0.0894
  960loPI   C1A14343  15.303   8.122   6.510 -0.2257  0.0635 -0.4344
  960loPI   C2A14344  15.532   8.102   6.961  0.0739  0.0366 -0.0782
  960loPI   C3A14345  15.642   8.199   7.388  0.0553  0.2838  0.2529
  960loPI   C4A14346  15.616   7.869   7.637 -0.0939 -0.0992 -0.2433
  960loPI   C5A14347  15.841   7.389   7.631 -0.0187 -0.3942  0.1236
  960loPI   C6A14348  15.753   7.049   7.371  0.0453  0.0725 -0.2043
  960loPI   C1B14349  14.904   8.138   6.856 -0.0981  0.1311  0.0549
  960loPI   C2B14350  15.118   8.353   7.187 -0.0123 -0.0497 -0.0485
  960loPI   C3B14351  15.204   8.445   7.575  0.1145  0.1542  0.1810
  960loPI   C4B14352  15.346   8.422   8.012  0.0034 -0.0470  0.0915
  961loPI    C114353   4.740  13.863   4.855 -0.0151  0.0673 -0.1425
  961loPI    C214354   5.035  14.085   4.699  0.1364  0.0224  0.0750
  961loPI    C314355   4.918  13.749   4.516  0.2255  0.0366 -0.0084
  961loPI   PO414356   4.735  13.979   5.152 -0.0902  0.0204 -0.0264
  961loPI   GL114357   4.870  13.943   5.603 -0.1224 -0.3558 -0.0284
  961loPI   GL214358   4.625  14.165   5.786  0.2528  0.1040 -0.1533
  961loPI   C1A14359   4.950  13.833   6.093  0.0738 -0.1955 -0.0478
  961loPI   C2A14360   4.838  13.855   6.490 -0.3530  0.1735 -0.0568
  961loPI   C3A14361   4.641  13.752   6.961 -0.0900  0.0199 -0.1133
  961loPI   C4A14362   4.676  13.907   7.347 -0.2631 -0.1706 -0.2224
  961loPI   C5A14363   4.540  13.945   7.818 -0.0165 -0.0806  0.2890
  961loPI   C6A14364   4.407  13.755   8.203  0.0638 -0.1127 -0.1128
  961loPI   C1B14365   4.512  14.135   6.244 -0.2324  0.1495 -0.1578
  961loPI   C2B14366   4.295  13.989   6.608  0.0183  0.4223 -0.0005
  961loPI   C3B14367   4.406  14.167   7.028 -0.0346  0.2656 -0.0393
  961loPI   C4B14368   4.350  14.223   7.483 -0.2757 -0.0284  0.0279
  962loPI    C114369  13.482   2.557   4.967  0.0727  0.0975 -0.0129
  962loPI    C214370  13.203   2.375   4.746  0.3021  0.1642 -0.3664
  962loPI    C314371  13.168   2.764   4.831  0.0656  0.0743 -0.0319
  962loPI   PO414372  13.541   2.419   5.196  0.1912 -0.1393 -0.0973
  962loPI   GL114373  13.896   2.229   5.492  0.4854 -0.0537  0.0915
  962loPI   GL214374  13.665   1.966   5.514 -0.2322 -0.0262 -0.1514
  962loPI   C1A14375  13.996   2.038   5.900  0.0823  0.0767  0.1497
  962loPI   C2A14376  14.133   2.125   6.318 -0.0445 -0.2396 -0.2873
  962loPI   C3A14377  14.112   2.101   6.768 -0.2465 -0.0163  0.2921
  962loPI   C4A14378  14.255   1.969   7.089  0.2302  0.1401  0.2002
  962loPI   C5A14379  14.439   2.041   7.364 -0.3065  0.2676  0.2216
  962loPI   C6A14380  14.653   2.281   7.654  0.0728 -0.2066 -0.0361
  962loPI   C1B14381  13.486   1.824   5.865 -0.0370  0.0572  0.0380
  962loPI   C2B14382  13.523   1.939   6.193  0.0442  0.0720 -0.0191
  962loPI   C3B14383  13.636   2.017   6.642 -0.1570 -0.0803  0.0094
  962loPI   C4B14384  13.713   2.018   7.035  0.0946  0.1347  0.0634
  963loPI    C114385   1.598   3.888   5.040  0.1334 -0.0045 -0.1527
  963loPI    C214386   1.494   4.230   4.861  0.2490  0.0027 -0.2076
  963loPI    C314387   1.280   3.898   4.798  0.1099  0.0742 -0.1188
  963loPI   PO414388   1.665   4.014   5.303  0.1376 -0.3230 -0.2366
  963loPI   GL114389   1.719   4.086   5.703  0.2849 -0.1816 -0.0991
  963loPI   GL214390   1.510   4.288   5.690  0.7126  0.3508  0.0390
  963loPI   C1A14391   2.055   4.198   6.095 -0.0479 -0.0619 -0.2494
  963loPI   C2A14392   2.050   4.176   6.537 -0.1291  0.1384 -0.1292
  963loPI   C3A14393   1.960   4.259   6.939  0.2266  0.0258 -0.3948
  963loPI   C4A14394   2.194   4.194   7.223 -0.0542  0.0294 -0.1806
  963loPI   C5A14395   2.328   4.140   7.636  0.0009  0.1646 -0.2775
  963loPI   C6A14396   2.687   4.024   7.845  0.4442  0.0194 -0.0161
  963loPI   C1B14397   1.559   4.229   6.196 -0.2828 -0.1442  0.1077
  963loPI   C2B14398   1.559   4.192   6.614 -0.0159  0.2088  0.0804
  963loPI   C3B14399   1.448   4.246   7.068  0.0475 -0.0439 -0.5691
  963loPI   C4B14400   1.421   4.415   7.605 -0.1383 -0.2390 -0.2612
  964loPI    C114401   6.622   4.016   4.818  0.0098  0.0523 -0.0033
  964loPI    C214402   6.543   4.408   4.789  0.0899  0.0681 -0.0081
  964loPI    C314403   6.275   4.140   4.660  0.1165  0.1246 -0.1835
  964loPI   PO414404   6.764   4.038   5.099 -0.0729 -0.1336 -0.2024
  964loPI   GL114405   6.591   3.902   5.394 -0.0629 -0.0894  0.0622
  964loPI   GL214406   6.294   3.816   5.518 -0.0757  0.1386  0.1681
  964loPI   C1A14407   6.940   3.939   5.709  0.0389 -0.1054  0.2542
  964loPI   C2A14408   7.352   3.944   5.989 -0.0920 -0.2399 -0.0128
  964loPI   C3A14409   7.573   3.669   6.358  0.1700 -0.1128  0.0350
  964loPI   C4A14410   7.660   3.467   6.833  0.0434 -0.2599  0.1917
  964loPI   C5A14411   7.585   3.443   7.287  0.1149  0.0969 -0.0023
  964loPI   C6A14412   7.614   3.222   7.712  0.2401 -0.0327 -0.1698
  964loPI   C1B14413   6.422   4.014   5.874 -0.0740 -0.0222  0.1045
  964loPI   C2B14414   6.464   4.261   6.266  0.3077 -0.1450  0.2847
  964loPI   C3B14415   6.639   4.456   6.648  0.0257 -0.0718 -0.2689
  964loPI   C4B14416   7.013   4.350   6.829 -0.0259 -0.2618 -0.1801
  965loPI    C114417   6.414   3.101   4.623  0.1550 -0.1499  0.0205
  965loPI    C214418   6.704   3.242   4.386  0.0250  0.0439 -0.0251
  965loPI    C314419   6.470   2.943   4.259  0.0160  0.0844 -0.1047
  965loPI   PO414420   6.434   3.267   4.932  0.0055  0.3864 -0.0856
  965loPI   GL114421   6.572   3.295   5.347 -0.0900  0.2414  0.2649
  965loPI   GL214422   6.380   3.110   5.530 -0.2322  0.0236  0.0785
  965loPI   C1A14423   6.628   3.575   5.714  0.1367 -0.0510 -0.0660
  965loPI   C2A14424   6.805   3.684   6.113  0.2805 -0.0984 -0.0439
  965loPI   C3A14425   7.077   3.664   6.408 -0.4562 -0.0955 -0.1271
  965loPI   C4A14426   7.181   3.360   6.696  0.0592 -0.2146  0.0815
  965loPI   C5A14427   7.118   3.288   7.095  0.2475  0.0051 -0.0057
  965loPI   C6A14428   6.844   3.434   7.385  0.4059 -0.0078 -0.3994
  965loPI   C1B14429   6.282   2.957   5.955  0.0763  0.1415  0.0040
  965loPI   C2B14430   6.310   2.964   6.393  0.2122  0.0500 -0.2093
  965loPI   C3B14431   6.148   3.029   6.773 -0.2098 -0.3268  0.0386
  965loPI   C4B14432   5.934   3.169   7.122  0.3214 -0.1170  0.0190
  966loPI    C114433   7.306   0.378   4.670 -0.1366 -0.2342  0.1606
  966loPI    C214434   7.455   0.079   4.450  0.0109 -0.0511  0.0081
  966loPI    C314435   7.406   0.441   4.287  0.0598  0.0700  0.2588
  966loPI   PO414436   7.277   0.218   4.922  0.0301 -0.2421  0.2002
  966loPI   GL114437   6.959  -0.081   5.168 -0.1983 -0.2477 -0.1035
  966loPI   GL214438   7.371  -0.119   5.273 -0.0357  0.2001  0.1605
  966loPI   C1A14439   6.612  -0.161   5.460 -0.1876 -0.1914 -0.1626
  966loPI   C2A14440   6.633  -0.382   5.801 -0.0115 -0.0356 -0.1550
  966loPI   C3A14441   6.785  -0.565   6.162  0.0924 -0.2280  0.4064
  966loPI   C4A14442   7.045  -0.649   6.467  0.2001 -0.2261 -0.0185
  966loPI   C5A14443   7.313  -0.660   6.801  0.2050  0.0145 -0.1047
  966loPI   C6A14444   7.237  -1.026   7.055  0.1868  0.0151 -0.0166
  966loPI   C1B14445   7.120  -0.142   5.639  0.1705 -0.0652 -0.2429
  966loPI   C2B14446   7.209  -0.279   6.087 -0.0710  0.3290  0.1338
  966loPI   C3B14447   7.614  -0.480   6.303  0.0338 -0.1250  0.2030
  966loPI   C4B14448   7.797  -0.752   6.518  0.1159  0.1596 -0.3413
  967loPI    C114449   8.644  13.995   5.197 -0.1189  0.1216 -0.0962
  967loPI    C214450   9.021  13.888   5.114 -0.1373 -0.0254  0.0078
  967loPI    C314451   8.754  13.927   4.818 -0.0675 -0.0261 -0.0553
  967loPI   PO414452   8.709  14.164   5.475  0.1273  0.1652  0.0856
  967loPI   GL114453   8.792  14.051   5.876 -0.1187  0.2173 -0.0760
  967loPI   GL214454   9.040  13.913   6.014  0.1999  0.1859  0.0031
  967loPI   C1A14455   8.898  14.357   6.211  0.0868 -0.1116 -0.1807
  967loPI   C2A14456   8.746  14.429   6.733  0.1459  0.2510  0.3219
  967loPI   C3A14457   8.839  14.456   7.166  0.0446 -0.2971 -0.3002
  967loPI   C4A14458   8.882  14.711   7.555  0.0908 -0.1953 -0.1463
  967loPI   C5A14459   8.833  14.910   7.981  0.1404 -0.0953 -0.1454
  967loPI   C6A14460   8.852  15.084   8.432  0.0517 -0.0889  0.0610
  967loPI   C1B14461   9.182  13.922   6.308  0.0417  0.1170  0.0653
  967loPI   C2B14462   9.238  14.057   6.659  0.3873  0.4698  0.0937
  967loPI   C3B14463   9.477  14.388   6.846  0.2848  0.1421 -0.0200
  967loPI   C4B14464   9.935  14.358   6.985  0.0472  0.2917  0.1148
  968loPI    C114465  18.097  16.785   5.231 -0.1369 -0.1607  0.0551
  968loPI    C214466  18.472  16.847   5.105 -0.1143  0.0124  0.2017
  968loPI    C314467  18.171  16.836   4.841  0.0145 -0.3202  0.0615
  968loPI   PO414468  18.165  16.740   5.498  0.1467 -0.3330 -0.2918
  968loPI   GL114469  18.368  16.567   5.813  0.1406  0.0873 -0.2465
  968loPI   GL214470  18.076  16.423   6.106  0.2367 -0.0973  0.4199
  968loPI   C1A14471  18.561  16.291   6.172  0.0255  0.2067 -0.3163
  968loPI   C2A14472  18.610  16.095   6.477 -0.0519  0.2302 -0.2038
  968loPI   C3A14473  18.709  15.838   6.842  0.0454 -0.2792  0.4007
  968loPI   C4A14474  18.588  15.563   7.116  0.1452  0.1546 -0.2735
  968loPI   C5A14475  18.694  15.243   7.435  0.0637 -0.3030  0.0432
  968loPI   C6A14476  18.869  15.384   7.785 -0.0749 -0.1784 -0.1030
  968loPI   C1B14477  18.207  16.373   6.573  0.4181 -0.1028 -0.1556
  968loPI   C2B14478  18.188  16.065   6.849  0.0429 -0.0499 -0.0649
  968loPI   C3B14479  18.158  15.971   7.329  0.4246 -0.0026  0.0278
  968loPI   C4B14480  18.154  15.986   7.784 -0.3577 -0.0885 -0.1296
  969loPI    C114481   0.536  17.868   5.071 -0.1101 -0.1596 -0.2029
  969loPI    C214482   0.614  18.255   5.005  0.0389 -0.1709 -0.0966
  969loPI    C314483   0.273  18.094   4.871  0.0282 -0.0304 -0.2405
  969loPI   PO414484   0.589  17.828   5.341  0.1898  0.0364  0.3156
  969loPI   GL114485   0.591  17.394   5.524 -0.0520  0.0891  0.0684
  969loPI   GL214486   0.306  17.496   5.563  0.2808  0.2714 -0.0059
  969loPI   C1A14487   0.735  17.417   5.931  0.1539  0.0971 -0.2716
  969loPI   C2A14488   0.731  17.548   6.295  0.4103  0.2072 -0.0954
  969loPI   C3A14489   0.552  17.591   6.525 -0.1476 -0.4610 -0.1735
  969loPI   C4A14490   0.425  17.523   6.983  0.0755  0.2611 -0.4604
  969loPI   C5A14491   0.323  17.727   7.352 -0.2018  0.0418 -0.1271
  969loPI   C6A14492   0.098  17.470   7.738  0.1314  0.0048 -0.2247
  969loPI   C1B14493   0.155  17.561   6.009  0.0415  0.1856 -0.0114
  969loPI   C2B14494   0.129  17.464   6.363 -0.2023  0.2586 -0.2786
  969loPI   C3B14495  -0.072  17.335   6.762 -0.3054  0.1162  0.0143
  969loPI   C4B14496   0.009  17.327   7.229  0.1125 -0.0203  0.1227
  970loPI    C114497   7.304   6.577   5.384  0.4024 -0.3121  0.2837
  970loPI    C214498   7.333   6.842   5.086 -0.1597 -0.1553  0.3562
  970loPI    C314499   7.428   6.458   5.023  0.0444 -0.0615  0.0719
  970loPI   PO414500   7.101   6.740   5.551 -0.0989 -0.1698  0.1746
  970loPI   GL114501   7.088   6.997   5.832 -0.1384 -0.3715  0.0759
  970loPI   GL214502   6.789   6.987   5.845 -0.1278  0.0282 -0.0147
  970loPI   C1A14503   7.242   6.915   6.185 -0.0211 -0.1130  0.1571
  970loPI   C2A14504   7.184   6.764   6.656 -0.1498 -0.1610  0.1096
  970loPI   C3A14505   7.015   6.781   7.057 -0.0361 -0.0126  0.1623
  970loPI   C4A14506   7.183   6.938   7.505  0.2407 -0.2404  0.3292
  970loPI   C5A14507   7.368   7.053   7.962 -0.0775  0.1703 -0.0145
  970loPI   C6A14508   7.243   7.371   8.238 -0.1546  0.2942  0.1625
  970loPI   C1B14509   6.693   6.904   6.296 -0.1248  0.1650  0.0587
  970loPI   C2B14510   6.574   6.824   6.757  0.2565  0.2812 -0.3100
  970loPI   C3B14511   6.495   6.585   7.195  0.0127  0.0995  0.1757
  970loPI   C4B14512   6.229   6.501   7.574  0.0915 -0.2893  0.0722
  971loPI    C114513   9.765   6.301   5.613  0.1455 -0.0966 -0.1239
  971loPI    C214514  10.060   6.394   5.359  0.1321  0.1974 -0.0350
  971loPI    C314515   9.804   6.677   5.482 -0.0302 -0.0010  0.0904
  971loPI   PO414516   9.852   6.186   5.822  0.1989  0.0188  0.0033
  971loPI   GL114517   9.843   5.940   6.183  0.0362  0.3755 -0.3776
  971loPI   GL214518  10.139   6.000   6.247 -0.2839 -0.2475  0.1930
  971loPI   C1A14519   9.533   5.962   6.638 -0.1936  0.1762 -0.3794
  971loPI   C2A14520   9.490   6.144   7.029  0.1267 -0.4778  0.1296
  971loPI   C3A14521   9.278   6.304   7.238 -0.1831  0.1409  0.0204
  971loPI   C4A14522   8.879   6.240   7.246 -0.2127  0.1702  0.0238
  971loPI   C5A14523   8.717   6.186   7.721  0.3221 -0.1932  0.1857
  971loPI   C6A14524   8.269   6.178   7.818  0.0105  0.3582  0.1808
  971loPI   C1B14525  10.117   6.023   6.651  0.1283  0.0619 -0.2039
  971loPI   C2B14526   9.930   5.751   6.941  0.0190 -0.3509  0.3525
  971loPI   C3B14527   9.966   5.712   7.358  0.0955  0.2429 -0.1518
  971loPI   C4B14528  10.051   5.617   7.768 -0.0119 -0.4133  0.1785
  972loPI    C114529  12.180  17.423   5.145  0.0937  0.2560 -0.0458
  972loPI    C214530  12.325  17.352   4.779 -0.0307  0.0653 -0.0594
  972loPI    C314531  12.115  17.685   4.849 -0.1647  0.0135 -0.2090
  972loPI   PO414532  12.247  17.425   5.344 -0.0866  0.1062 -0.0438
  972loPI   GL114533  12.434  17.259   5.644  0.2075  0.0571 -0.0417
  972loPI   GL214534  12.581  17.559   5.691  0.1000  0.1006  0.0479
  972loPI   C1A14535  12.511  17.039   6.061  0.0265  0.1720  0.2140
  972loPI   C2A14536  12.608  16.901   6.450  0.3774 -0.3560  0.2659
  972loPI   C3A14537  12.620  17.076   6.858  0.1422  0.2950  0.0920
  972loPI   C4A14538  12.516  17.090   7.350 -0.4664  0.0571 -0.0538
  972loPI   C5A14539  12.271  16.802   7.542 -0.0382 -0.0861 -0.3137
  972loPI   C6A14540  12.185  16.401   7.476 -0.1452 -0.0287  0.2793
  972loPI   C1B14541  12.745  17.460   6.079  0.1148  0.0296 -0.0791
  972loPI   C2B14542  12.907  17.363   6.483 -0.1277  0.2631 -0.1209
  972loPI   C3B14543  13.250  17.437   6.725  0.3323 -0.2282  0.2857
  972loPI   C4B14544  13.527  17.275   6.902  0.1407 -0.1060 -0.2536
  973loPI    C114545   0.656  15.614   5.069 -0.0268  0.0260 -0.0318
  973loPI    C214546   0.706  15.984   4.925 -0.0070  0.0236 -0.0313
  973loPI    C314547   0.968  15.696   4.833 -0.0312  0.0057 -0.0448
  973loPI   PO414548   0.605  15.584   5.355 -0.0916 -0.0858 -0.0711
  973loPI   GL114549   0.778  15.613   5.663 -0.0755  0.2024 -0.0624
  973loPI   GL214550   0.665  15.879   5.796 -0.1943  0.3175  0.0992
  973loPI   C1A14551   0.689  15.427   6.059 -0.3279 -0.3034 -0.2786
  973loPI   C2A14552   0.631  15.510   6.439  0.1171  0.1032  0.1420
  973loPI   C3A14553   0.491  15.763   6.822 -0.1519 -0.3433 -0.1551
  973loPI   C4A14554   0.467  16.129   7.119  0.0767  0.0168 -0.3896
  973loPI   C5A14555   0.627  16.461   7.373 -0.1908  0.1649 -0.0456
  973loPI   C6A14556   0.644  16.543   7.817 -0.0417  0.0677 -0.2968
  973loPI   C1B14557   0.510  15.983   6.277 -0.0099 -0.0735 -0.1590
  973loPI   C2B14558   0.329  16.168   6.619 -0.0915  0.1055 -0.0233
  973loPI   C3B14559   0.458  16.549   6.836 -0.3110  0.0883 -0.2346
  973loPI   C4B14560   0.849  16.797   6.993 -0.1884  0.0920  0.2572
  974loPI    C114561  14.085   3.100   5.175 -0.0335 -0.0135 -0.1458
  974loPI    C214562  13.882   2.887   4.904  0.1075 -0.0953 -0.1885
  974loPI    C314563  14.194   3.110   4.790 -0.1084  0.2271 -0.1623
  974loPI   PO414564  13.795   3.192   5.363  0.0425 -0.2233 -0.3605
  974loPI   GL114565  13.673   3.010   5.756 -0.3340 -0.1371  0.4284
  974loPI   GL214566  13.880   2.940   5.943  0.0148  0.0935  0.1841
  974loPI   C1A14567  13.372   2.903   5.964  0.1040  0.0273 -0.2845
  974loPI   C2A14568  13.390   2.823   6.497 -0.0625 -0.2581 -0.0336
  974loPI   C3A14569  13.514   2.885   6.941 -0.0659  0.2559 -0.1176
  974loPI   C4A14570  13.481   2.680   7.332 -0.1137 -0.2731  0.0438
  974loPI   C5A14571  13.286   2.461   7.648  0.5225  0.0154  0.0482
  974loPI   C6A14572  13.030   2.126   7.638  0.2705 -0.1843 -0.1337
  974loPI   C1B14573  13.920   3.062   6.341  0.0751  0.0955 -0.0395
  974loPI   C2B14574  13.880   3.120   6.718  0.1910 -0.1342 -0.1131
  974loPI   C3B14575  13.630   3.344   7.129  0.0272  0.0868 -0.3794
  974loPI   C4B14576  13.457   3.149   7.472  0.0064 -0.2205 -0.1132
  975loPI    C114577  14.786   1.331   5.145 -0.1493 -0.1593 -0.1747
  975loPI    C214578  14.448   1.330   5.359 -0.0317  0.0590  0.0163
  975loPI    C314579  14.446   1.468   4.984 -0.1806 -0.0643 -0.0296
  975loPI   PO414580  14.823   0.988   5.224  0.0182  0.1685 -0.0261
  975loPI   GL114581  14.875   0.833   5.595  0.0778  0.0259  0.1003
  975loPI   GL214582  15.221   0.564   5.609  0.0383  0.0012 -0.1451
  975loPI   C1A14583  14.982   1.003   6.009  0.0971  0.0115  0.2825
  975loPI   C2A14584  14.819   1.014   6.463  0.2792 -0.0735 -0.2949
  975loPI   C3A14585  14.894   1.312   6.743 -0.1404 -0.1042  0.0708
  975loPI   C4A14586  14.982   1.342   7.199 -0.0259 -0.2121 -0.4269
  975loPI   C5A14587  15.073   1.371   7.612 -0.0208  0.2010  0.1060
  975loPI   C6A14588  15.187   1.500   8.053 -0.1308  0.1197 -0.2673
  975loPI   C1B14589  15.220   0.514   5.989  0.1480 -0.1966  0.0026
  975loPI   C2B14590  15.266   0.760   6.434  0.1875 -0.0764 -0.2648
  975loPI   C3B14591  15.301   1.158   6.437  0.0575  0.0046  0.1246
  975loPI   C4B14592  15.107   1.523   6.315 -0.1398  0.3324  0.1722
  976loPI    C114593   2.798  16.496   5.045  0.2234  0.1927  0.1786
  976loPI    C214594   2.667  16.694   4.723  0.0872  0.1096  0.1820
  976loPI    C314595   2.967  16.432   4.688  0.2791  0.3258  0.1805
  976loPI   PO414596   2.609  16.382   5.155  0.2782  0.1440  0.0133
  976loPI   GL114597   2.656  16.452   5.590 -0.3682  0.3307  0.0245
  976loPI   GL214598   2.830  16.359   5.798  0.2057  0.1439 -0.1351
  976loPI   C1A14599   2.683  16.825   5.894  0.2175  0.1236 -0.0746
  976loPI   C2A14600   2.681  16.951   6.317 -0.0584  0.3853  0.1422
  976loPI   C3A14601   2.841  16.995   6.698 -0.1993 -0.2553 -0.0319
  976loPI   C4A14602   2.928  16.786   7.092 -0.4681 -0.0131 -0.0307
  976loPI   C5A14603   2.718  16.860   7.509 -0.2206 -0.0150  0.0257
  976loPI   C6A14604   2.373  16.865   7.903  0.0765 -0.1768  0.1884
  976loPI   C1B14605   2.931  16.496   6.240 -0.0048 -0.1235 -0.1938
  976loPI   C2B14606   2.994  16.567   6.675  0.2614  0.3597 -0.2080
  976loPI   C3B14607   3.301  16.485   6.987  0.1572  0.0593 -0.1440
  976loPI   C4B14608   3.346  16.275   7.444  0.3311  0.0981 -0.0506
  977loPI    C114609   5.533  11.437   4.630  0.1725  0.0179 -0.1042
  977loPI    C214610   5.459  11.812   4.512  0.0796  0.0883  0.1703
  977loPI    C314611   5.531  11.527   4.240 -0.1674  0.2371 -0.0559
  977loPI   PO414612   5.653  11.624   4.940  0.2354  0.0153  0.1714
  977loPI   GL114613   5.639  11.650   5.371  0.0398 -0.2526  0.0746
  977loPI   GL214614   5.311  11.558   5.477 -0.1592  0.2502 -0.2786
  977loPI   C1A14615   5.811  11.972   5.620 -0.3154 -0.0750  0.0609
  977loPI   C2A14616   5.795  11.949   6.054 -0.3145 -0.0615  0.2611
  977loPI   C3A14617   6.089  11.950   6.423  0.2660 -0.1074  0.1329
  977loPI   C4A14618   6.138  11.877   6.890 -0.0647 -0.0377  0.4244
  977loPI   C5A14619   5.901  11.943   7.241 -0.1234 -0.1781 -0.3797
  977loPI   C6A14620   5.577  11.736   7.428 -0.0716  0.0771 -0.0992
  977loPI   C1B14621   5.455  11.628   5.864  0.1914  0.2799 -0.2747
  977loPI   C2B14622   5.453  11.636   6.261 -0.1621  0.0920  0.0970
  977loPI   C3B14623   5.607  11.770   6.592  0.0014  0.0570  0.0888
  977loPI   C4B14624   5.620  11.590   6.949 -0.6512  0.0629 -0.2270
  978loPI    C114625   8.032   1.395   4.588  0.1752 -0.1775  0.2301
  978loPI    C214626   8.100   1.618   4.262 -0.0604 -0.0031  0.2968
  978loPI    C314627   7.785   1.372   4.274 -0.0380 -0.0280  0.3834
  978loPI   PO414628   7.945   1.458   4.943  0.0763 -0.2166 -0.0747
  978loPI   GL114629   7.966   1.339   5.325  0.3355  0.2086 -0.1067
  978loPI   GL214630   7.943   0.952   5.318 -0.0484  0.1297 -0.5271
  978loPI   C1A14631   7.880   1.425   5.712 -0.0632  0.0403  0.2203
  978loPI   C2A14632   7.990   1.473   6.144  0.1446 -0.0705 -0.0323
  978loPI   C3A14633   8.199   1.301   6.418  0.1658 -0.1095  0.1534
  978loPI   C4A14634   8.145   1.244   6.857  0.3919 -0.0430  0.1564
  978loPI   C5A14635   8.122   1.124   7.260  0.2207  0.3608  0.0146
  978loPI   C6A14636   7.740   1.113   7.491 -0.2806 -0.0786  0.1078
  978loPI   C1B14637   8.033   0.890   5.719 -0.3835  0.2392 -0.2014
  978loPI   C2B14638   7.995   0.893   6.055  0.2160 -0.1944 -0.0506
  978loPI   C3B14639   8.002   0.863   6.478  0.2242  0.4837 -0.0512
  978loPI   C4B14640   8.130   0.730   6.869  0.0377  0.1560  0.0170
  979loPI    C114641  18.273   4.167   5.382  0.1062  0.2066  0.0042
  979loPI    C214642  18.010   4.332   5.131  0.0881  0.0685 -0.0690
  979loPI    C314643  18.341   4.160   4.988  0.1047  0.0376  0.0062
  979loPI   PO414644  18.163   4.040   5.584 -0.0618 -0.2392  0.1127
  979loPI   GL114645  18.296   3.984   5.914  0.0773  0.0446  0.0970
  979loPI   GL214646  18.261   4.303   6.133 -0.0469  0.0937  0.0675
  979loPI   C1A14647  18.345   3.854   6.348 -0.1450 -0.0458  0.0013
  979loPI   C2A14648  18.501   3.888   6.793 -0.3620 -0.0324  0.0997
  979loPI   C3A14649  18.450   4.012   7.278  0.0805 -0.1898  0.2782
  979loPI   C4A14650  18.221   3.962   7.566 -0.0314 -0.1997 -0.3336
  979loPI   C5A14651  18.082   3.841   7.988 -0.0367  0.1454  0.2491
  979loPI   C6A14652  17.877   3.818   8.491 -0.0473 -0.3329 -0.0596
  979loPI   C1B14653  18.359   4.315   6.549 -0.0179  0.1749 -0.1023
  979loPI   C2B14654  18.325   4.395   7.001  0.1840  0.2388  0.2121
  979loPI   C3B14655  18.349   4.485   7.471  0.1877  0.3925  0.0249
  979loPI   C4B14656  18.575   4.160   7.791 -0.2731  0.1528  0.0011
  980loPI    C114657   4.447   8.878   4.853 -0.4265  0.1111 -0.0980
  980loPI    C214658   4.565   9.256   4.797  0.1729 -0.0393  0.0727
  980loPI    C314659   4.728   8.961   4.581 -0.2496 -0.2134 -0.0195
  980loPI   PO414660   4.472   8.871   5.123 -0.1416 -0.0521  0.2323
  980loPI   GL114661   4.667   8.782   5.493  0.0417  0.2642 -0.4524
  980loPI   GL214662   4.523   9.124   5.555  0.0654 -0.1999 -0.3837
  980loPI   C1A14663   4.448   8.640   5.829  0.0331 -0.0970 -0.0597
  980loPI   C2A14664   4.364   8.598   6.248 -0.4820  0.0580  0.0334
  980loPI   C3A14665   4.292   8.736   6.700 -0.2235  0.1198 -0.0061
  980loPI   C4A14666   4.102   8.600   7.123 -0.0800 -0.0862  0.2350
  980loPI   C5A14667   4.228   8.803   7.530 -0.4447 -0.1014  0.3856
  980loPI   C6A14668   4.254   8.973   7.928 -0.1853 -0.3311 -0.3301
  980loPI   C1B14669   4.438   9.106   6.018 -0.0131 -0.0028  0.2620
  980loPI   C2B14670   4.548   9.234   6.380  0.0661 -0.5591 -0.2828
  980loPI   C3B14671   4.472   9.175   6.796 -0.2553 -0.1708  0.3782
  980loPI   C4B14672   4.509   8.988   7.136 -0.0498 -0.0913  0.1662
  981loPI    C114673  17.501  18.402   5.390  0.0948 -0.0899  0.0031
  981loPI    C214674  17.777  18.619   5.199 -0.0271  0.1146  0.0561
  981loPI    C314675  17.503  18.414   4.990  0.0714  0.0323  0.0065
  981loPI   PO414676  17.645  18.306   5.616 -0.2141  0.1285  0.2908
  981loPI   GL114677  17.522  18.171   6.022  0.0582 -0.0388 -0.3165
  981loPI   GL214678  17.866  18.304   6.114  0.1827  0.1064  0.1241
  981loPI   C1A14679  17.538  18.036   6.472 -0.0081  0.0557 -0.0150
  981loPI   C2A14680  17.591  18.064   6.792 -0.0070 -0.1146 -0.0656
  981loPI   C3A14681  17.570  18.150   7.288 -0.0816 -0.1354  0.2453
  981loPI   C4A14682  17.362  18.296   7.626  0.1261 -0.0891 -0.0320
  981loPI   C5A14683  16.986  18.572   7.621  0.3905  0.3058  0.0386
  981loPI   C6A14684  16.583  18.474   7.766  0.0951 -0.0927  0.1829
  981loPI   C1B14685  17.844  18.500   6.502 -0.1889 -0.0223  0.2679
  981loPI   C2B14686  17.657  18.652   6.999 -0.3254 -0.1206 -0.0400
  981loPI   C3B14687  17.354  18.656   7.294  0.0454 -0.2940  0.0827
  981loPI   C4B14688  17.133  19.025   7.427 -0.4597 -0.0801 -0.3567
  982loPI    C114689  13.570  15.936   4.954  0.0145  0.0462 -0.0255
  982loPI    C214690  13.213  15.921   5.133  0.1080 -0.4946  0.1338
  982loPI    C314691  13.288  15.688   4.817  0.0824  0.1545 -0.3730
  982loPI   PO414692  13.840  15.908   5.154  0.2572 -0.1580  0.0249
  982loPI   GL114693  14.217  15.906   5.387 -0.2183 -0.1663  0.0298
  982loPI   GL214694  14.300  16.238   5.302 -0.4583 -0.2415  0.3081
  982loPI   C1A14695  14.342  15.851   5.873 -0.2408  0.0450 -0.2420
  982loPI   C2A14696  14.484  15.846   6.375  0.1025  0.0350 -0.3725
  982loPI   C3A14697  14.485  15.830   6.870  0.1595  0.2335  0.0104
  982loPI   C4A14698  14.410  16.018   7.224  0.3488  0.0122  0.0881
  982loPI   C5A14699  14.450  16.324   7.578 -0.1399 -0.0218 -0.3446
  982loPI   C6A14700  14.582  16.635   7.932 -0.0212  0.0162  0.1383
  982loPI   C1B14701  14.161  16.317   5.661  0.4224  0.0748 -0.1397
  982loPI   C2B14702  13.842  16.395   5.966 -0.1501  0.0075 -0.2981
  982loPI   C3B14703  13.990  16.494   6.394  0.2400  0.1141 -0.2256
  982loPI   C4B14704  14.317  16.788   6.561 -0.0015 -0.0884 -0.1474
  983loPI    C114705   7.308  14.273   4.929  0.0257 -0.0028 -0.0513
  983loPI    C214706   7.609  14.071   4.760 -0.0945 -0.1137 -0.1347
  983loPI    C314707   7.231  13.966   4.684 -0.1544  0.0213 -0.0256
  983loPI   PO414708   7.417  14.333   5.202 -0.1330  0.1947  0.0735
  983loPI   GL114709   7.634  14.350   5.655  0.0074  0.3976  0.0792
  983loPI   GL214710   7.720  14.648   5.885  0.0799 -0.1845 -0.3828
  983loPI   C1A14711   7.435  14.193   5.991 -0.0329 -0.1259 -0.3306
  983loPI   C2A14712   7.348  13.931   6.320 -0.1750  0.2875 -0.1687
  983loPI   C3A14713   7.335  13.796   6.702  0.0734 -0.2195  0.1815
  983loPI   C4A14714   7.198  13.856   7.067 -0.0462 -0.1927 -0.0962
  983loPI   C5A14715   7.376  13.841   7.496 -0.0287  0.2471 -0.1511
  983loPI   C6A14716   7.300  13.829   7.971  0.0022 -0.2463  0.0814
  983loPI   C1B14717   7.641  14.614   6.328 -0.0213  0.0743  0.0051
  983loPI   C2B14718   7.390  14.322   6.663  0.0779 -0.0509 -0.0194
  983loPI   C3B14719   7.317  14.387   7.040  0.2132  0.4210  0.2294
  983loPI   C4B14720   7.487  14.374   7.428 -0.1191 -0.1595  0.0512
  984loPI    C114721   8.293   5.736   4.849  0.3923  0.2872  0.1140
  984loPI    C214722   8.540   5.427   4.787  0.0950  0.0740 -0.0350
  984loPI    C314723   8.273   5.528   4.507  0.1427  0.4259  0.0423
  984loPI   PO414724   8.151   5.724   5.075  0.2874 -0.2515 -0.0092
  984loPI   GL114725   8.068   5.814   5.515  0.0357  0.1095  0.0541
  984loPI   GL214726   8.342   5.824   5.662  0.0659  0.1274  0.1076
  984loPI   C1A14727   7.809   5.898   5.809 -0.2778 -0.2184 -0.0488
  984loPI   C2A14728   7.829   5.982   6.242 -0.1706  0.1204  0.3949
  984loPI   C3A14729   7.855   5.891   6.669  0.0383  0.0749  0.1938
  984loPI   C4A14730   7.996   5.801   7.103 -0.3348  0.0300 -0.2436
  984loPI   C5A14731   8.004   5.690   7.591 -0.2116 -0.0754 -0.1416
  984loPI   C6A14732   7.995   5.601   7.960 -0.1025  0.1476  0.3817
  984loPI   C1B14733   8.301   5.906   6.041 -0.3342  0.0636 -0.1386
  984loPI   C2B14734   8.340   5.967   6.449 -0.1186 -0.1927 -0.2759
  984loPI   C3B14735   8.476   6.042   6.964  0.2451 -0.1077 -0.2413
  984loPI   C4B14736   8.457   5.885   7.428  0.0909  0.5634  0.2641
  985loPI    C114737   2.117   5.994   5.296  0.2331  0.1928 -0.2040
  985loPI    C214738   1.785   6.213   5.333 -0.0129 -0.2227  0.1362
  985loPI    C314739   1.922   6.118   4.969 -0.1646  0.0983 -0.0087
  985loPI   PO414740   2.127   5.918   5.602 -0.0140  0.0549  0.1150
  985loPI   GL114741   2.042   5.743   6.022 -0.1311 -0.0297  0.2140
  985loPI   GL214742   1.904   5.654   6.202 -0.1272  0.2747 -0.2779
  985loPI   C1A14743   1.916   6.017   6.553  0.2299  0.3759  0.1424
  985loPI   C2A14744   1.915   6.057   6.974  0.2093  0.2755  0.0243
  985loPI   C3A14745   2.094   6.240   7.327 -0.0690 -0.1557 -0.2301
  985loPI   C4A14746   2.342   6.096   7.790  0.1954 -0.2681 -0.0030
  985loPI   C5A14747   2.641   5.715   7.940 -0.1866  0.1589 -0.1217
  985loPI   C6A14748   2.503   5.363   8.099  0.2481  0.0689 -0.3140
  985loPI   C1B14749   1.857   5.555   6.591 -0.3443  0.3547  0.0489
  985loPI   C2B14750   1.792   5.555   6.984  0.3384  0.3966  0.2665
  985loPI   C3B14751   1.921   5.619   7.420  0.2900 -0.0633  0.1712
  985loPI   C4B14752   2.038   5.462   7.831 -0.0241 -0.2244  0.0429
  986loPI    C114753   0.372   9.307   5.173 -0.2695  0.0749 -0.2842
  986loPI    C214754   0.402   9.609   4.912 -0.1886  0.0445 -0.3104
  986loPI    C314755   0.490   9.236   4.797  0.0457  0.0589 -0.1855
  986loPI   PO414756   0.345   9.430   5.391 -0.3627 -0.1759  0.1089
  986loPI   GL114757   0.467   9.783   5.764  0.0381  0.3217  0.2169
  986loPI   GL214758   0.086   9.812   5.587  0.0624 -0.1699 -0.0262
  986loPI   C1A14759   0.461   9.578   6.221  0.0406  0.0620  0.1096
  986loPI   C2A14760   0.514   9.650   6.588  0.1739  0.0418 -0.1247
  986loPI   C3A14761   0.525   9.572   7.066  0.1054 -0.0109  0.3421
  986loPI   C4A14762   0.626   9.391   7.438 -0.2612 -0.1857 -0.1866
  986loPI   C5A14763   0.570   9.114   7.727  0.3703  0.1394 -0.6758
  986loPI   C6A14764   0.326   8.743   7.653 -0.0028 -0.2437 -0.2243
  986loPI   C1B14765   0.016   9.705   6.000  0.1474 -0.1822  0.0000
  986loPI   C2B14766  -0.021   9.560   6.437  0.1971  0.1412  0.1959
  986loPI   C3B14767   0.078   9.317   6.766 -0.2886 -0.1782  0.2305
  986loPI   C4B14768   0.163   9.076   7.088 -0.1576 -0.2175  0.0384
  987loPI    C114769   5.039  14.389   5.287  0.0942 -0.1725 -0.2203
  987loPI    C214770   4.686  14.548   5.185  0.0569 -0.1471 -0.0543
  987loPI    C314771   5.001  14.586   4.941 -0.0124 -0.0246 -0.1256
  987loPI   PO414772   5.085  14.392   5.498  0.1493 -0.0130  0.1869
  987loPI   GL114773   5.138  14.325   5.927 -0.0532  0.2336  0.1358
  987loPI   GL214774   5.280  14.722   5.796  0.3567 -0.2685 -0.1983
  987loPI   C1A14775   5.010  14.291   6.340 -0.3798 -0.3948 -0.2573
  987loPI   C2A14776   4.644  14.345   6.655  0.1401 -0.1005 -0.0040
  987loPI   C3A14777   4.231  14.599   6.858  0.1685 -0.1853 -0.0437
  987loPI   C4A14778   3.889  14.778   7.113 -0.1898 -0.3800 -0.1605
  987loPI   C5A14779   3.763  14.903   7.588  0.1784  0.1479 -0.0200
  987loPI   C6A14780   3.971  15.170   7.773 -0.2415  0.0382 -0.0333
  987loPI   C1B14781   5.192  14.732   6.275 -0.0123  0.1412 -0.1021
  987loPI   C2B14782   5.054  14.581   6.784 -0.4052 -0.0391 -0.0587
  987loPI   C3B14783   5.246  14.596   7.244  0.1690 -0.1034 -0.0864
  987loPI   C4B14784   5.708  14.583   7.353 -0.1574  0.1396 -0.1975
  988loPI    C114785   7.268  14.857   4.959 -0.1251 -0.4007  0.0736
  988loPI    C214786   7.171  14.690   4.609 -0.0918 -0.2364 -0.0152
  988loPI    C314787   7.550  14.682   4.736 -0.0607 -0.0881 -0.0965
  988loPI   PO414788   6.963  14.871   5.048  0.2839 -0.0083  0.2126
  988loPI   GL114789   6.874  14.933   5.448 -0.1596  0.0612  0.1086
  988loPI   GL214790   6.926  15.300   5.506 -0.2651 -0.0284  0.3060
  988loPI   C1A14791   6.721  14.933   5.897 -0.1011  0.2034  0.2266
  988loPI   C2A14792   6.681  15.030   6.341  0.0633  0.0448  0.0895
  988loPI   C3A14793   6.645  15.011   6.820  0.0503 -0.5114 -0.2862
  988loPI   C4A14794   6.482  14.957   7.252  0.0916  0.0730  0.0289
  988loPI   C5A14795   6.442  14.965   7.731  0.2153  0.2615 -0.2293
  988loPI   C6A14796   6.204  15.233   7.935 -0.0079 -0.1183  0.1002
  988loPI   C1B14797   6.815  15.504   5.866 -0.2907  0.2708  0.0296
  988loPI   C2B14798   6.758  15.555   6.295  0.2130  0.0659 -0.3072
  988loPI   C3B14799   6.713  15.528   6.755 -0.0568  0.0818  0.1427
  988loPI   C4B14800   6.736  15.798   7.051 -0.1878 -0.0010  0.1849
  989loPI    C114801   7.214   2.039   4.933 -0.1851  0.1162 -0.0511
  989loPI    C214802   7.329   2.361   4.724 -0.0053  0.0889  0.0046
  989loPI    C314803   7.292   2.006   4.542  0.0269  0.0918 -0.0076
  989loPI   PO414804   7.266   2.039   5.102 -0.2727  0.2482 -0.4425
  989loPI   GL114805   7.389   2.086   5.498 -0.1983  0.1106 -0.0106
  989loPI   GL214806   7.614   1.894   5.565 -0.0815 -0.3136 -0.0488
  989loPI   C1A14807   7.327   2.232   5.958  0.0550  0.1197  0.1827
  989loPI   C2A14808   7.382   2.332   6.360  0.0514 -0.3523 -0.0741
  989loPI   C3A14809   7.243   2.502   6.649 -0.1115  0.0818  0.1342
  989loPI   C4A14810   7.206   2.429   7.117  0.1010 -0.0727  0.1365
  989loPI   C5A14811   7.477   2.070   7.145  0.0394  0.0652  0.0832
  989loPI   C6A14812   7.514   1.591   7.375 -0.0164 -0.0899 -0.1758
  989loPI   C1B14813   7.605   1.837   6.020 -0.2957 -0.5629  0.0355
  989loPI   C2B14814   7.793   2.079   6.251  0.0503  0.2242 -0.1344
  989loPI   C3B14815   8.172   2.379   6.447 -0.0731 -0.2304 -0.2278
  989loPI   C4B14816   8.275   2.799   6.462 -0.2618  0.0622 -0.1463
  990loPI    C114817  10.004   5.735   5.342 -0.0272 -0.0623  0.1446
  990loPI    C214818  10.236   5.959   5.105  0.1225  0.1240  0.4603
  990loPI    C314819  10.225   5.562   5.058  0.0852  0.1656  0.0909
  990loPI   PO414820   9.987   5.784   5.604  0.1017  0.1465  0.0458
  990loPI   GL114821   9.940   5.568   5.842  0.3295  0.0478 -0.1789
  990loPI   GL214822   9.702   5.483   5.959  0.2358  0.0759  0.0505
  990loPI   C1A14823  10.026   5.488   6.301  0.3025  0.0877  0.1560
  990loPI   C2A14824  10.110   5.352   6.719 -0.0937 -0.0603 -0.0538
  990loPI   C3A14825  10.063   5.257   7.121  0.1538 -0.1386  0.0496
  990loPI   C4A14826  10.211   5.188   7.537  0.1490  0.0853 -0.1059
  990loPI   C5A14827  10.536   5.406   7.879  0.0235  0.2965  0.0493
  990loPI   C6A14828  10.610   5.264   8.321  0.0012  0.1417  0.0347
  990loPI   C1B14829   9.476   5.520   6.317  0.1724 -0.2067  0.1033
  990loPI   C2B14830   9.591   5.482   6.717 -0.0123 -0.0342  0.0222
  990loPI   C3B14831   9.548   5.444   7.132 -0.0912  0.2478 -0.1006
  990loPI   C4B14832   9.609   5.407   7.548 -0.1706  0.0770 -0.1498
  991loPI    C114833   3.914  15.275   5.138  0.1370 -0.0044 -0.0265
  991loPI    C214834   3.993  15.463   4.794  0.1093  0.0542 -0.0012
  991loPI    C314835   4.179  15.120   4.882 -0.0880 -0.1074 -0.2007
  991loPI   PO414836   3.935  15.489   5.325  0.0581  0.0956 -0.1763
  991loPI   GL114837   4.265  15.388   5.587  0.1958 -0.0427 -0.2822
  991loPI   GL214838   4.483  15.741   5.592 -0.2106 -0.1243 -0.2342
  991loPI   C1A14839   4.356  15.525   6.099  0.2016 -0.0683  0.0123
  991loPI   C2A14840   4.264  15.825   6.470 -0.1408  0.1898 -0.2760
  991loPI   C3A14841   4.256  15.920   6.898  0.1205  0.0243  0.1518
  991loPI   C4A14842   4.181  15.923   7.346 -0.0449 -0.1647 -0.1370
  991loPI   C5A14843   3.909  15.807   7.670 -0.1018  0.0606 -0.0340
  991loPI   C6A14844   3.742  15.531   8.042 -0.3626  0.0490  0.0955
  991loPI   C1B14845   4.439  16.127   5.936  0.0033  0.2153  0.1836
  991loPI   C2B14846   4.171  16.481   6.216  0.4358  0.1877  0.0320
  991loPI   C3B14847   3.977  16.829   6.174 -0.0039 -0.3187 -0.1680
  991loPI   C4B14848   3.631  17.069   5.983  0.0941  0.0604  0.2517
  992loPI    C114849  18.519  16.026   4.922  0.1782  0.1354 -0.0488
  992loPI    C214850  18.641  15.992   4.543  0.0253 -0.2054 -0.0710
  992loPI    C314851  18.679  15.682   4.794 -0.1465 -0.0812  0.1113
  992loPI   PO414852  18.257  16.032   4.973 -0.0862 -0.0390 -0.2591
  992loPI   GL114853  18.002  15.914   5.346 -0.1559  0.0745  0.1726
  992loPI   GL214854  18.142  16.167   5.511  0.1612  0.0259 -0.0352
  992loPI   C1A14855  17.968  15.756   5.734  0.2049  0.2949  0.2372
  992loPI   C2A14856  17.810  16.004   6.078 -0.0866  0.1580 -0.1069
  992loPI   C3A14857  17.761  15.989   6.525 -0.1269  0.0880 -0.0766
  992loPI   C4A14858  17.643  15.871   6.854 -0.1492 -0.2575  0.1173
  992loPI   C5A14859  17.708  15.913   7.181  0.2118 -0.3590  0.1661
  992loPI   C6A14860  17.675  16.144   7.501 -0.0499 -0.1145 -0.0985
  992loPI   C1B14861  18.347  16.028   5.861 -0.0561 -0.3108  0.2297
  992loPI   C2B14862  18.271  15.895   6.233  0.1315 -0.1977  0.0265
  992loPI   C3B14863  18.263  15.662   6.580 -0.0936  0.1481 -0.3690
  992loPI   C4B14864  18.043  15.588   7.023 -0.2551 -0.0038  0.0884
  993loPI    C114865  18.346   9.987   5.133  0.1687  0.0212  0.1010
  993loPI    C214866  18.736   9.900   5.103  0.1590  0.0833 -0.2448
  993loPI    C314867  18.602  10.259   4.988  0.0062  0.0809 -0.0784
  993loPI   PO414868  18.194   9.894   5.403 -0.3997  0.1079  0.4470
  993loPI   GL114869  18.307  10.031   5.907 -0.3419 -0.0646 -0.1772
  993loPI   GL214870  18.101   9.821   5.903  0.3439 -0.1212  0.2551
  993loPI   C1A14871  18.494  10.257   6.137  0.1072  0.0581 -0.0251
  993loPI   C2A14872  18.592  10.553   6.455  0.0920 -0.0889  0.1293
  993loPI   C3A14873  18.599  10.607   6.866  0.2393 -0.1986 -0.0157
  993loPI   C4A14874  18.663  10.942   7.001  0.0375 -0.4612 -0.1803
  993loPI   C5A14875  19.061  11.131   7.281 -0.2273  0.0756  0.1416
  993loPI   C6A14876  19.354  11.386   7.544 -0.0493  0.1422 -0.0039
  993loPI   C1B14877  18.253   9.820   6.348 -0.2205 -0.2443 -0.0537
  993loPI   C2B14878  18.337   9.820   6.774  0.1400 -0.4264  0.1665
  993loPI   C3B14879  18.753   9.719   7.110 -0.1131 -0.4135 -0.1000
  993loPI   C4B14880  18.873   9.602   7.402  0.0239 -0.2342  0.0336
  994loPI    C114881  13.233  10.221   5.803  0.0591 -0.1089  0.0129
  994loPI    C214882  13.336  10.145   5.425  0.0034 -0.1482  0.0055
  994loPI    C314883  13.366  10.517   5.569 -0.0772 -0.1119 -0.0699
  994loPI   PO414884  13.045  10.162   5.874  0.1955  0.1901  0.2058
  994loPI   GL114885  12.699  10.291   6.081 -0.0219 -0.1208 -0.2740
  994loPI   GL214886  12.431  10.453   6.171 -0.0606 -0.0281 -0.2326
  994loPI   C1A14887  12.510  10.024   6.382  0.1396  0.0726  0.2311
  994loPI   C2A14888  12.388  10.002   6.757 -0.3904  0.0422  0.1298
  994loPI   C3A14889  12.360   9.828   7.189  0.0739  0.2096  0.0483
  994loPI   C4A14890  12.450   9.721   7.693 -0.1418  0.0215 -0.1107
  994loPI   C5A14891  12.557   9.719   8.099  0.0058 -0.0227  0.0220
  994loPI   C6A14892  12.918   9.801   8.242  0.2728 -0.2373 -0.1652
  994loPI   C1B14893  12.384  10.548   6.628 -0.1916 -0.0644  0.0364
  994loPI   C2B14894  12.605  10.719   7.056  0.0706  0.3664 -0.1040
  994loPI   C3B14895  12.491  10.707   7.584  0.0831  0.0845  0.2506
  994loPI   C4B14896  12.180  10.745   7.955  0.2056  0.1091  0.2146
  995loPI    C114897   4.647  15.154   5.054  0.0669 -0.1291  0.0240
  995loPI    C214898   4.632  14.844   4.802  0.0301 -0.1845  0.0940
  995loPI    C314899   4.954  15.081   4.808  0.0081 -0.1505 -0.0434
  995loPI   PO414900   4.520  15.053   5.246  0.2681  0.0175  0.0064
  995loPI   GL114901   4.429  14.777   5.607 -0.1073 -0.2666 -0.1255
  995loPI   GL214902   4.707  14.684   5.673  0.1047  0.2072  0.0240
  995loPI   C1A14903   4.228  15.013   6.033 -0.0215  0.0651 -0.0775
  995loPI   C2A14904   3.845  14.854   6.262  0.1182 -0.1473 -0.0219
  995loPI   C3A14905   3.633  14.891   6.655 -0.2050 -0.2262  0.2538
  995loPI   C4A14906   3.385  14.599   7.018  0.0888  0.1364  0.0692
  995loPI   C5A14907   3.406  14.622   7.437 -0.1348  0.2224  0.0686
  995loPI   C6A14908   3.057  14.827   7.638  0.1509 -0.0211  0.1512
  995loPI   C1B14909   4.718  14.588   6.066  0.1100  0.3409  0.1876
  995loPI   C2B14910   4.402  14.634   6.273  0.3246  0.2277 -0.1680
  995loPI   C3B14911   4.256  14.960   6.550  0.4623  0.0025  0.2679
  995loPI   C4B14912   4.401  15.370   6.811 -0.0049 -0.0470  0.2614
  996loPI    C114913  14.413   7.683   5.308 -0.1080  0.3579  0.0639
  996loPI    C214914  14.060   7.832   5.191 -0.1667  0.0097 -0.2190
  996loPI    C314915  14.218   7.518   5.000 -0.0224 -0.2624  0.3281
  996loPI   PO414916  14.394   7.723   5.542  0.2120  0.0266  0.0010
  996loPI   GL114917  14.539   7.766   6.037  0.2010 -0.0857 -0.0926
  996loPI   GL214918  14.502   7.974   5.955  0.3955  0.3984  0.1342
  996loPI   C1A14919  14.632   7.510   6.401 -0.2998 -0.1025  0.1152
  996loPI   C2A14920  14.582   7.605   6.860  0.2012  0.0288  0.1775
  996loPI   C3A14921  14.580   7.756   7.258 -0.2055 -0.0457  0.0464
  996loPI   C4A14922  14.327   7.885   7.573  0.1857 -0.0499 -0.1426
  996loPI   C5A14923  14.041   7.658   7.786 -0.0831  0.1981 -0.1408
  996loPI   C6A14924  13.801   7.642   8.236  0.4278  0.1146  0.0912
  996loPI   C1B14925  14.410   7.964   6.490  0.4140 -0.1557 -0.1849
  996loPI   C2B14926  14.384   8.054   6.840  0.1308 -0.3286 -0.1571
  996loPI   C3B14927  14.557   8.244   7.220 -0.0090 -0.1201  0.1207
  996loPI   C4B14928  14.724   8.174   7.635 -0.1572 -0.0540 -0.1177
  997loPI    C114929  10.260  14.279   5.299 -0.1257  0.0126 -0.1776
  997loPI    C214930  10.417  13.917   5.366 -0.0320  0.0967  0.0678
  997loPI    C314931  10.168  13.973   5.058 -0.0876 -0.1880  0.0586
  997loPI   PO414932  10.473  14.413   5.536  0.2080 -0.1399 -0.4619
  997loPI   GL114933  10.386  14.389   5.896 -0.0643  0.0610 -0.0567
  997loPI   GL214934  10.362  14.017   5.916  0.0652  0.0135  0.0737
  997loPI   C1A14935  10.060  14.489   6.214 -0.4073  0.3586 -0.2140
  997loPI   C2A14936   9.823  14.597   6.550 -0.2717  0.1235  0.1557
  997loPI   C3A14937   9.728  14.794   6.951 -0.2902 -0.0322 -0.1193
  997loPI   C4A14938   9.798  14.769   7.371 -0.3845  0.0920 -0.0938
  997loPI   C5A14939   9.975  14.799   7.706 -0.0800 -0.2554  0.1660
  997loPI   C6A14940  10.432  14.807   7.909  0.3077 -0.3712  0.1241
  997loPI   C1B14941  10.323  14.019   6.364 -0.1220 -0.0414 -0.0798
  997loPI   C2B14942  10.321  14.228   6.674 -0.1711  0.0654 -0.0339
  997loPI   C3B14943  10.504  14.254   7.081 -0.0584  0.1439 -0.2240
  997loPI   C4B14944  10.448  14.030   7.436  0.0170  0.4120  0.1407
  998loPI    C114945  16.345  10.318   5.250  0.2844  0.0293 -0.0019
  998loPI    C214946  15.989  10.144   5.309  0.2061  0.2697  0.2603
  998loPI    C314947  16.238  10.002   5.030 -0.0343  0.0100  0.1737
  998loPI   PO414948  16.349  10.531   5.489  0.0094 -0.1422 -0.3271
  998loPI   GL114949  16.217  10.599   5.980 -0.5428  0.2929  0.3607
  998loPI   GL214950  16.291  10.238   6.248  0.0002  0.1537 -0.0901
  998loPI   C1A14951  16.391  10.795   6.422  0.0611  0.3506  0.0867
  998loPI   C2A14952  16.434  10.994   6.801  0.0611 -0.0768 -0.4218
  998loPI   C3A14953  16.345  11.096   7.218 -0.2341  0.4539 -0.2976
  998loPI   C4A14954  16.080  11.282   7.547 -0.0155  0.0351  0.0572
  998loPI   C5A14955  16.106  11.393   7.890  0.2138  0.0684  0.1427
  998loPI   C6A14956  15.735  11.631   8.044 -0.1997 -0.0515 -0.1321
  998loPI   C1B14957  16.507  10.392   6.727  0.2188 -0.0105  0.1232
  998loPI   C2B14958  16.524  10.628   7.191 -0.1846  0.0536  0.1387
  998loPI   C3B14959  16.362  10.716   7.588 -0.1007 -0.0649 -0.0358
  998loPI   C4B14960  16.238  10.898   8.023  0.2094 -0.1264  0.1608
  999loPI    C114961   3.948   8.360   5.096  0.0533  0.1082 -0.2175
  999loPI    C214962   4.229   8.479   5.353  0.0390 -0.1874 -0.0603
  999loPI    C314963   4.329   8.385   4.978  0.1238 -0.1381 -0.0504
  999loPI   PO414964   3.736   8.493   5.258 -0.3903  0.0563 -0.2893
  999loPI   GL114965   3.580   8.580   5.515  0.0590 -0.0090  0.3238
  999loPI   GL214966   3.878   8.738   5.692 -0.0654  0.3592 -0.2398
  999loPI   C1A14967   3.443   8.912   5.858  0.1215  0.1606  0.2174
  999loPI   C2A14968   3.591   8.853   6.239  0.0756  0.2712 -0.1898
  999loPI   C3A14969   3.362   9.030   6.648  0.3648 -0.0350 -0.1680
  999loPI   C4A14970   3.406   9.052   7.077 -0.1970  0.1242 -0.0384
  999loPI   C5A14971   3.395   9.417   7.352  0.3398 -0.2784  0.2999
  999loPI   C6A14972   3.159   9.788   7.498  0.2644  0.0952  0.4280
  999loPI   C1B14973   4.019   8.827   5.974 -0.0351 -0.0213  0.1391
  999loPI   C2B14974   4.016   8.998   6.416 -0.1061 -0.1249 -0.0485
  999loPI   C3B14975   3.914   9.154   6.840  0.0706 -0.0467  0.0137
  999loPI   C4B14976   3.872   9.031   7.306 -0.4623  0.3300  0.2067
 1000loPI    C114977  16.244   4.076   5.281  0.1080 -0.0167 -0.0289
 1000loPI    C214978  16.293   3.749   5.055  0.1876 -0.0121 -0.0190
 1000loPI    C314979  16.503   4.080   4.977 -0.0667  0.1156 -0.1783
 1000loPI   PO414980  16.362   3.953   5.576  0.0976 -0.0204 -0.5062
 1000loPI   GL114981  16.248   4.103   5.920  0.0229  0.1169  0.1633
 1000loPI   GL214982  15.930   3.866   5.985  0.1674  0.4607  0.1076
 1000loPI   C1A14983  16.142   3.941   6.422 -0.0947 -0.0420 -0.1665
 1000loPI   C2A14984  15.845   3.990   6.782 -0.1056 -0.1601  0.1079
 1000loPI   C3A14985  15.659   4.036   7.153 -0.1082  0.0782 -0.1707
 1000loPI   C4A14986  15.688   4.048   7.582 -0.2859  0.2753 -0.1419
 1000loPI   C5A14987  15.962   4.025   7.884 -0.0904  0.0962 -0.2194
 1000loPI   C6A14988  15.918   3.922   8.342 -0.0667  0.0138  0.0315
 1000loPI   C1B14989  15.578   3.753   6.289 -0.2761  0.0406  0.2054
 1000loPI   C2B14990  15.430   3.398   6.371  0.0966  0.1041 -0.3129
 1000loPI   C3B14991  15.465   3.198   6.742 -0.0044 -0.1124  0.0111
 1000loPI   C4B14992  15.471   3.025   7.060  0.1373  0.1672 -0.1334
 1001loPI    C114993  15.752   7.899   5.524  0.1855 -0.1062  0.0790
 1001loPI    C214994  16.042   7.976   5.260 -0.0285 -0.4302 -0.2611
 1001loPI    C314995  15.726   8.219   5.287  0.2398 -0.1068  0.0721
 1001loPI   PO414996  15.843   7.905   5.747  0.0920  0.1204  0.2023
 1001loPI   GL114997  16.007   7.923   6.166 -0.1245  0.1097  0.3779
 1001loPI   GL214998  16.304   8.028   6.145 -0.0469 -0.3288  0.0589
 1001loPI   C1A14999  15.760   7.854   6.585  0.3941 -0.1787  0.1958
 1001loPI   C2A15000  15.915   7.847   7.065 -0.1811  0.2471 -0.0134
 1001loPI   C3A15001  16.150   7.786   7.370  0.1073  0.2527  0.2214
 1001loPI   C4A15002  16.395   7.551   7.716 -0.0807  0.0716  0.2092
 1001loPI   C5A15003  16.490   7.803   8.065 -0.3197  0.2600 -0.2882
 1001loPI   C6A15004  16.722   8.043   8.345 -0.1281 -0.4092  0.0758
 1001loPI   C1B15005  16.277   7.808   6.549 -0.0220 -0.0270  0.2416
 1001loPI   C2B15006  16.412   7.965   6.986 -0.2623 -0.0229  0.0233
 1001loPI   C3B15007  16.577   8.070   7.423  0.0116  0.0058  0.0690
 1001loPI   C4B15008  16.659   8.194   7.850  0.2247 -0.0175  0.2564
 1002loPI    C115009   1.629  10.219   4.690 -0.1380  0.0792  0.0244
 1002loPI    C215010   1.772  10.563   4.543  0.1444 -0.0868 -0.0976
 1002loPI    C315011   1.803  10.226   4.330 -0.0286 -0.2107  0.0691
 1002loPI   PO415012   1.762  10.263   5.036  0.0226 -0.0171  0.0587
 1002loPI   GL115013   1.691  10.157   5.432 -0.1131 -0.2682 -0.1306
 1002loPI   GL215014   1.499   9.976   5.595  0.0675 -0.1997  0.0625
 1002loPI   C1A15015   1.642  10.442   5.799  0.5123  0.2575 -0.0332
 1002loPI   C2A15016   1.780  10.627   6.160 -0.3320 -0.2723 -0.1463
 1002loPI   C3A15017   1.866  10.637   6.605  0.0872 -0.2448 -0.0097
 1002loPI   C4A15018   2.098  10.340   6.902  0.4011  0.3130  0.1755
 1002loPI   C5A15019   1.885  10.124   7.193  0.2898 -0.1153  0.0285
 1002loPI   C6A15020   1.750   9.863   7.490  0.0257 -0.3263  0.0931
 1002loPI   C1B15021   1.439  10.057   5.985 -0.2841  0.1540  0.1294
 1002loPI   C2B15022   1.404  10.277   6.343  0.0077  0.0899 -0.0142
 1002loPI   C3B15023   1.365  10.638   6.580  0.2659  0.3399 -0.1021
 1002loPI   C4B15024   1.445  10.958   6.434  0.2587  0.0680  0.0989
 1003loPI    C115025   5.974   0.166   4.377  0.1594 -0.1926  0.0458
 1003loPI    C215026   6.242   0.093   4.089  0.0055  0.1868 -0.2025
 1003loPI    C315027   5.853   0.105   4.000 -0.0634  0.0724  0.0719
 1003loPI   PO415028   5.996  -0.023   4.690 -0.2464  0.0630 -0.0778
 1003loPI   GL115029   6.245   0.111   5.048 -0.2848 -0.1066  0.1428
 1003loPI   GL215030   5.907   0.160   5.130 -0.0008 -0.0890  0.3552
 1003loPI   C1A15031   6.189  -0.307   5.285 -0.2859  0.2959  0.3396
 1003loPI   C2A15032   6.045  -0.530   5.734  0.1157  0.0598  0.0101
 1003loPI   C3A15033   6.227  -0.510   6.183  0.0226  0.1740  0.0374
 1003loPI   C4A15034   6.491  -0.546   6.619  0.0069 -0.1467 -0.0516
 1003loPI   C5A15035   6.738  -0.907   6.952  0.0705  0.0966  0.2345
 1003loPI   C6A15036   6.770  -1.193   7.193  0.1154 -0.2145  0.2186
 1003loPI   C1B15037   5.770   0.312   5.554 -0.0112 -0.1741 -0.0379
 1003loPI   C2B15038   6.005   0.431   6.017  0.2499  0.1025  0.1305
 1003loPI   C3B15039   6.049   0.315   6.418  0.2398  0.3561  0.2060
 1003loPI   C4B15040   6.118   0.398   6.783 -0.5503 -0.0190 -0.1304
 1004loPI    C115041  10.700   0.286   4.850 -0.0684 -0.3381 -0.0269
 1004loPI    C215042  10.623   0.059   4.530 -0.1548 -0.2325 -0.0815
 1004loPI    C315043  10.458   0.422   4.562 -0.0805 -0.2093  0.0434
 1004loPI   PO415044  10.720   0.150   5.193 -0.1015  0.0213  0.4035
 1004loPI   GL115045  10.794   0.085   5.550  0.0765 -0.1575  0.1279
 1004loPI   GL215046  10.622   0.376   5.718 -0.1408 -0.2463  0.1198
 1004loPI   C1A15047  10.602  -0.026   5.961 -0.4018 -0.0661  0.0233
 1004loPI   C2A15048  10.812   0.013   6.392 -0.3473 -0.1998 -0.3013
 1004loPI   C3A15049  10.940  -0.246   6.741  0.3648  0.0330  0.0713
 1004loPI   C4A15050  11.014  -0.515   7.104  0.3824 -0.0808 -0.0587
 1004loPI   C5A15051  10.896  -0.633   7.526 -0.0994  0.1929  0.1305
 1004loPI   C6A15052  10.709  -0.790   7.833 -0.0413 -0.2876  0.1609
 1004loPI   C1B15053  10.788   0.433   6.108  0.1078  0.3390  0.2147
 1004loPI   C2B15054  10.933   0.512   6.548  0.0553  0.0740 -0.0836
 1004loPI   C3B15055  11.011   0.230   6.837  0.0282  0.2105 -0.2217
 1004loPI   C4B15056  11.186   0.054   7.158  0.0873 -0.2337  0.0327
 1005loPI    C115057  17.930   6.895   5.439  0.2737  0.3244 -0.1122
 1005loPI    C215058  17.748   6.805   5.095 -0.1837  0.2124  0.1517
 1005loPI    C315059  17.819   7.187   5.189 -0.0671  0.2441 -0.0586
 1005loPI   PO415060  17.850   6.806   5.641 -0.1309 -0.1776 -0.1661
 1005loPI   GL115061  17.606   7.062   5.900  0.1029 -0.1140  0.2266
 1005loPI   GL215062  17.627   7.356   6.027 -0.1014  0.0353 -0.0041
 1005loPI   C1A15063  17.530   6.939   6.356  0.0997 -0.2890  0.0225
 1005loPI   C2A15064  17.671   6.648   6.683  0.0068 -0.4091 -0.2149
 1005loPI   C3A15065  17.546   6.404   7.054 -0.0820 -0.0543  0.3975
 1005loPI   C4A15066  17.391   6.102   7.304 -0.0970  0.1262 -0.2048
 1005loPI   C5A15067  17.191   5.842   7.598 -0.4158 -0.3304  0.0588
 1005loPI   C6A15068  17.262   5.431   7.945 -0.2522 -0.1583  0.0054
 1005loPI   C1B15069  17.774   7.347   6.438  0.2174  0.0311  0.1419
 1005loPI   C2B15070  17.866   7.153   6.897  0.2140 -0.2811 -0.2135
 1005loPI   C3B15071  17.625   7.316   7.303 -0.2254  0.1664 -0.0737
 1005loPI   C4B15072  17.531   7.087   7.721  0.3420  0.3437  0.0701
 1006loPI    C115073  12.808   1.880   4.786  0.1915 -0.0245 -0.0237
 1006loPI    C215074  12.615   1.625   4.546 -0.0053  0.1313 -0.0340
 1006loPI    C315075  12.635   2.012   4.450 -0.0116  0.1802  0.1577
 1006loPI   PO415076  12.740   1.787   5.020 -0.0742 -0.5693  0.1646
 1006loPI   GL115077  12.911   1.797   5.409 -0.1951  0.1163  0.2406
 1006loPI   GL215078  13.105   1.859   5.510  0.1659  0.1046  0.3086
 1006loPI   C1A15079  12.636   1.891   5.807 -0.1686  0.0010 -0.0203
 1006loPI   C2A15080  12.421   1.973   6.214 -0.0352  0.3362 -0.0217
 1006loPI   C3A15081  12.598   2.166   6.536  0.5045 -0.1407  0.1295
 1006loPI   C4A15082  12.615   2.352   6.943  0.0025 -0.5777  0.4858
 1006loPI   C5A15083  12.691   2.515   7.329 -0.2304  0.1118  0.0057
 1006loPI   C6A15084  13.031   2.826   7.534  0.0757  0.2580 -0.1974
 1006loPI   C1B15085  12.994   1.545   5.909  0.0688  0.2296 -0.0111
 1006loPI   C2B15086  13.037   1.369   6.280  0.3095  0.0184 -0.4209
 1006loPI   C3B15087  12.732   1.409   6.673  0.1698 -0.1483 -0.1226
 1006loPI   C4B15088  12.679   1.359   7.211 -0.2432 -0.1164 -0.2941
 1007loPI    C115089  14.150  18.331   5.095  0.1839 -0.0526  0.1506
 1007loPI    C215090  14.524  18.451   5.172  0.2263 -0.0689 -0.0264
 1007loPI    C315091  14.321  18.613   4.868  0.0736 -0.0300  0.0954
 1007loPI   PO415092  14.069  18.265   5.283  0.1385  0.2767  0.1571
 1007loPI   GL115093  14.098  18.222   5.667 -0.0653  0.1033  0.0083
 1007loPI   GL215094  14.104  18.674   5.650 -0.2219 -0.1521  0.1254
 1007loPI   C1A15095  14.092  18.013   6.099 -0.0688  0.1641  0.2141
 1007loPI   C2A15096  13.929  18.173   6.461  0.2860 -0.1802  0.0320
 1007loPI   C3A15097  13.926  18.347   6.979 -0.1315  0.0954  0.2879
 1007loPI   C4A15098  13.807  18.704   7.208 -0.2567 -0.1417 -0.1709
 1007loPI   C5A15099  13.572  19.108   7.400  0.3333 -0.0844 -0.1884
 1007loPI   C6A15100  13.455  19.566   7.585 -0.0982 -0.0903 -0.2480
 1007loPI   C1B15101  14.043  18.527   6.082  0.0440  0.1699 -0.0434
 1007loPI   C2B15102  14.089  18.614   6.508  0.0646  0.0862 -0.1285
 1007loPI   C3B15103  14.288  18.655   6.850 -0.0238 -0.0076 -0.1000
 1007loPI   C4B15104  14.309  18.736   7.264 -0.2296  0.3062 -0.5310
 1008loPI    C115105   0.795   3.179   5.363 -0.0510  0.1959 -0.1063
 1008loPI    C215106   0.407   3.084   5.341  0.0032 -0.0754  0.0537
 1008loPI    C315107   0.556   3.374   5.109 -0.3058  0.0702  0.0328
 1008loPI   PO415108   0.861   3.257   5.608 -0.0479 -0.1303  0.1662
 1008loPI   GL115109   0.728   3.111   5.956  0.1908  0.0342 -0.0498
 1008loPI   GL215110   0.388   3.079   5.916  0.1045  0.0280  0.0235
 1008loPI   C1A15111   0.992   3.041   6.297 -0.1189 -0.0185  0.2170
 1008loPI   C2A15112   0.863   2.836   6.674  0.0069 -0.2545 -0.0286
 1008loPI   C3A15113   0.883   2.382   6.764  0.0731 -0.1856 -0.0149
 1008loPI   C4A15114   1.043   2.132   6.990 -0.1505 -0.1165  0.2110
 1008loPI   C5A15115   1.100   2.013   7.332  0.0236 -0.0710 -0.1013
 1008loPI   C6A15116   1.127   1.895   7.675  0.2231  0.1276 -0.2819
 1008loPI   C1B15117   0.436   3.210   6.338 -0.0673 -0.2441  0.0938
 1008loPI   C2B15118   0.402   3.057   6.769  0.1565  0.2448  0.0222
 1008loPI   C3B15119   0.181   3.031   7.142 -0.2128  0.0339  0.1206
 1008loPI   C4B15120   0.213   3.123   7.538 -0.0881 -0.0819 -0.1635
 1009loPI    C115121  11.031  11.368   5.253  0.0373 -0.0977 -0.0110
 1009loPI    C215122  10.920  11.640   4.982 -0.0234 -0.0006  0.1102
 1009loPI    C315123  11.125  11.316   4.868 -0.1479 -0.0180 -0.0680
 1009loPI   PO415124  11.186  11.515   5.451  0.0761  0.2498  0.0234
 1009loPI   GL115125  11.155  11.587   5.783 -0.3250  0.0562  0.0964
 1009loPI   GL215126  11.364  11.468   5.968  0.1296  0.2854 -0.2556
 1009loPI   C1A15127  11.012  11.919   6.067 -0.0486  0.2975 -0.3733
 1009loPI   C2A15128  11.051  12.102   6.505  0.0399 -0.1414 -0.1012
 1009loPI   C3A15129  10.974  12.350   6.726 -0.3253  0.0229  0.0313
 1009loPI   C4A15130  10.854  12.583   7.196 -0.0837  0.0703  0.0010
 1009loPI   C5A15131  10.937  12.934   7.515 -0.1341 -0.1838 -0.0649
 1009loPI   C6A15132  10.965  13.222   7.848 -0.1061 -0.1406 -0.0787
 1009loPI   C1B15133  11.473  11.770   6.368  0.0725  0.1948 -0.3117
 1009loPI   C2B15134  11.374  11.896   6.837  0.0266  0.0688  0.3496
 1009loPI   C3B15135  11.423  11.901   7.177  0.2802 -0.0978 -0.6462
 1009loPI   C4B15136  11.791  11.753   7.317  0.2969 -0.1777 -0.1045
 1010loPI    C115137  17.307  11.455   5.384 -0.0939 -0.1619  0.1918
 1010loPI    C215138  17.017  11.228   5.228 -0.0695 -0.1088  0.0675
 1010loPI    C315139  17.214  11.487   4.997  0.2203 -0.2933  0.1023
 1010loPI   PO415140  17.366  11.195   5.548 -0.2552 -0.1821  0.0120
 1010loPI   GL115141  17.316  11.102   5.944 -0.1229  0.1738 -0.1390
 1010loPI   GL215142  17.151  10.806   5.980  0.0929 -0.2225  0.0301
 1010loPI   C1A15143  17.317  11.372   6.175 -0.1628  0.2280 -0.1506
 1010loPI   C2A15144  17.366  11.459   6.506  0.0459  0.0176 -0.2904
 1010loPI   C3A15145  17.344  11.610   6.915  0.0821 -0.2081  0.0861
 1010loPI   C4A15146  17.397  11.605   7.273  0.0880  0.0694  0.2100
 1010loPI   C5A15147  17.380  11.778   7.549 -0.0371 -0.3482 -0.0420
 1010loPI   C6A15148  17.432  12.254   7.718 -0.2016  0.2427 -0.2078
 1010loPI   C1B15149  17.383  10.620   6.259  0.2095  0.2852 -0.2407
 1010loPI   C2B15150  17.357  10.486   6.708  0.0848  0.0247 -0.0138
 1010loPI   C3B15151  17.329  10.607   7.108  0.2788  0.2817 -0.2165
 1010loPI   C4B15152  17.108  10.709   7.579 -0.1972  0.1739 -0.1886
 1011loPI    C115153  18.177   2.068   5.820  0.2004 -0.0485  0.1596
 1011loPI    C215154  18.230   1.709   5.652  0.3225 -0.0433  0.1863
 1011loPI    C315155  18.538   1.898   5.823  0.2182 -0.0091  0.3376
 1011loPI   PO415156  17.910   2.068   5.880 -0.1269 -0.0411 -0.0239
 1011loPI   GL115157  17.751   1.916   6.242 -0.2490  0.1030 -0.6128
 1011loPI   GL215158  17.960   1.662   6.135 -0.3393  0.1485  0.3203
 1011loPI   C1A15159  17.751   1.805   6.652  0.2897 -0.1966 -0.0285
 1011loPI   C2A15160  17.697   1.818   7.079  0.0683  0.1898 -0.1804
 1011loPI   C3A15161  17.326   1.748   7.331  0.2004  0.1062  0.1493
 1011loPI   C4A15162  17.061   1.478   7.571  0.2255  0.1159  0.0931
 1011loPI   C5A15163  16.983   1.448   8.065 -0.1418  0.1947 -0.1914
 1011loPI   C6A15164  17.270   1.561   8.291 -0.1605  0.2556 -0.1809
 1011loPI   C1B15165  18.027   1.438   6.483  0.0439  0.1288  0.1674
 1011loPI   C2B15166  18.021   1.460   6.937  0.1353  0.2106 -0.1219
 1011loPI   C3B15167  18.050   1.546   7.330 -0.3341  0.0603 -0.0311
 1011loPI   C4B15168  18.108   1.389   7.822 -0.0562  0.0920  0.0701
 1012loPI    C115169   8.609  15.148   4.995 -0.1309  0.3274  0.0877
 1012loPI    C215170   8.949  14.940   4.955 -0.1789  0.2653  0.0018
 1012loPI    C315171   8.611  14.805   4.789 -0.2460  0.3266  0.0879
 1012loPI   PO415172   8.633  15.190   5.286  0.1326  0.0725 -0.2145
 1012loPI   GL115173   8.541  15.076   5.647  0.0760 -0.1442  0.0807
 1012loPI   GL215174   8.176  14.886   5.602 -0.4078 -0.1378  0.0431
 1012loPI   C1A15175   8.669  14.902   6.117 -0.1663  0.1532  0.1440
 1012loPI   C2A15176   8.894  14.878   6.459  0.0290 -0.0630  0.0895
 1012loPI   C3A15177   9.222  14.861   6.690  0.1339 -0.1533 -0.0504
 1012loPI   C4A15178   9.286  14.770   7.152 -0.0594 -0.1779  0.0522
 1012loPI   C5A15179   9.316  14.573   7.457 -0.1110  0.3528  0.1551
 1012loPI   C6A15180   9.121  14.197   7.737  0.1529 -0.0631 -0.2507
 1012loPI   C1B15181   8.152  14.779   6.064 -0.1785 -0.0384 -0.1726
 1012loPI   C2B15182   8.090  14.817   6.397 -0.1216  0.2185  0.0376
 1012loPI   C3B15183   8.420  14.913   6.681 -0.3111  0.4560  0.0022
 1012loPI   C4B15184   8.738  14.972   6.962  0.2667  0.2030 -0.0365
 1013loPI    C115185   3.602  12.816   5.054 -0.0931  0.2814  0.2489
 1013loPI    C215186   3.605  13.209   4.983 -0.1110  0.2051 -0.2026
 1013loPI    C315187   3.293  12.987   4.868  0.1358 -0.0236 -0.4448
 1013loPI   PO415188   3.647  12.759   5.368  0.0603 -0.0121  0.3335
 1013loPI   GL115189   3.980  12.833   5.638  0.1983 -0.0508  0.0270
 1013loPI   GL215190   3.706  13.010   5.933  0.0053  0.0674  0.1560
 1013loPI   C1A15191   4.053  12.684   6.055  0.0876 -0.0889 -0.3672
 1013loPI   C2A15192   4.289  12.692   6.502  0.1227 -0.2340 -0.1180
 1013loPI   C3A15193   4.448  12.885   6.894 -0.0734 -0.2688 -0.0290
 1013loPI   C4A15194   4.547  12.928   7.360 -0.0324  0.0057 -0.0501
 1013loPI   C5A15195   4.807  13.031   7.647  0.0450  0.0405  0.3049
 1013loPI   C6A15196   5.090  13.005   8.036  0.1713  0.3917  0.0105
 1013loPI   C1B15197   3.613  13.325   6.125 -0.0161 -0.0042  0.2201
 1013loPI   C2B15198   3.420  13.374   6.466 -0.1191 -0.3117  0.1012
 1013loPI   C3B15199   3.262  13.487   6.800  0.3251 -0.0009  0.2261
 1013loPI   C4B15200   3.192  13.702   7.173  0.0809  0.0946  0.0523
 1014loPI    C115201  16.457   5.171   5.511  0.0006 -0.1004  0.0436
 1014loPI    C215202  16.552   5.052   5.141  0.3491  0.0109  0.0939
 1014loPI    C315203  16.790   5.308   5.336  0.0291  0.1614  0.2952
 1014loPI   PO415204  16.248   5.033   5.552 -0.0312 -0.1538  0.4707
 1014loPI   GL115205  16.068   5.092   5.953  0.0660 -0.1079  0.0743
 1014loPI   GL215206  16.254   4.819   6.021  0.1485  0.0371 -0.1331
 1014loPI   C1A15207  15.996   5.163   6.442 -0.3022 -0.2085  0.2112
 1014loPI   C2A15208  16.086   4.927   6.720  0.0124  0.0455 -0.0152
 1014loPI   C3A15209  16.107   4.929   7.202 -0.0070  0.2543  0.0041
 1014loPI   C4A15210  16.019   4.659   7.587  0.1481  0.0373 -0.1773
 1014loPI   C5A15211  16.199   4.547   7.926  0.0959 -0.1470 -0.0792
 1014loPI   C6A15212  16.418   4.289   8.040  0.0945 -0.1576 -0.0298
 1014loPI   C1B15213  16.392   4.449   6.222  0.0655  0.0676 -0.0079
 1014loPI   C2B15214  16.544   4.282   6.574 -0.1703  0.1355  0.0691
 1014loPI   C3B15215  16.333   4.121   6.965  0.0715  0.0040 -0.0344
 1014loPI   C4B15216  16.127   3.706   7.039 -0.0008 -0.1115  0.0345
 1015loPI    C115217   1.211  12.685   5.390 -0.1838  0.0530  0.2534
 1015loPI    C215218   1.086  12.336   5.240 -0.0066 -0.0072  0.2441
 1015loPI    C315219   1.025  12.674   5.036 -0.0632 -0.0484  0.1923
 1015loPI   PO415220   1.491  12.667   5.498 -0.1332  0.0517 -0.1439
 1015loPI   GL115221   1.787  12.737   5.807  0.2413 -0.2112 -0.1925
 1015loPI   GL215222   1.707  12.333   5.817  0.0082  0.0178 -0.4168
 1015loPI   C1A15223   1.886  12.716   6.175  0.1147 -0.1223  0.0918
 1015loPI   C2A15224   1.938  12.874   6.565  0.2236  0.1158 -0.2054
 1015loPI   C3A15225   1.953  12.873   6.973  0.4385 -0.1048 -0.2362
 1015loPI   C4A15226   1.883  12.664   7.274 -0.0917 -0.0531  0.1911
 1015loPI   C5A15227   1.906  12.390   7.645 -0.0134 -0.1638 -0.1395
 1015loPI   C6A15228   2.225  11.987   7.624  0.0089 -0.0564  0.1113
 1015loPI   C1B15229   1.519  12.068   6.143  0.1148 -0.0910  0.0729
 1015loPI   C2B15230   1.564  11.951   6.506  0.0836 -0.3479  0.6010
 1015loPI   C3B15231   1.636  12.194   6.887  0.1222 -0.0253  0.2958
 1015loPI   C4B15232   1.421  12.244   7.309 -0.3214  0.1048 -0.1830
 1016loPI    C115233  16.063  12.256   5.024 -0.0427 -0.1532  0.3451
 1016loPI    C215234  16.329  12.207   5.319  0.1311 -0.1335  0.1933
 1016loPI    C315235  16.426  12.109   4.943  0.1105  0.3592  0.0526
 1016loPI   PO415236  15.990  12.517   5.143  0.0473 -0.1009 -0.0542
 1016loPI   GL115237  16.409  12.652   5.530 -0.0030  0.0289  0.1145
 1016loPI   GL215238  16.100  12.633   5.591  0.2389 -0.2745  0.0430
 1016loPI   C1A15239  16.715  12.729   5.948 -0.0676  0.3323  0.0977
 1016loPI   C2A15240  16.685  12.590   6.341 -0.1282  0.0267 -0.0351
 1016loPI   C3A15241  16.738  12.367   6.754  0.2784 -0.0577  0.0119
 1016loPI   C4A15242  16.805  12.438   7.271  0.1389  0.3338  0.0969
 1016loPI   C5A15243  16.958  12.499   7.688 -0.1663 -0.3792  0.4155
 1016loPI   C6A15244  16.836  12.421   8.045  0.1084  0.2358 -0.3340
 1016loPI   C1B15245  15.879  12.489   5.947 -0.0828  0.0331 -0.2786
 1016loPI   C2B15246  15.697  12.451   6.356  0.2832  0.2335  0.2289
 1016loPI   C3B15247  15.873  12.282   6.689  0.0988  0.1147 -0.2186
 1016loPI   C4B15248  15.941  12.398   7.196  0.0736  0.2177 -0.0126
 1017loPI    C115249   9.386  18.679   5.010  0.0715 -0.0668  0.0684
 1017loPI    C215250   9.080  18.914   5.118  0.1701  0.0238  0.1517
 1017loPI    C315251   9.393  19.069   4.922  0.1955 -0.0548  0.1295
 1017loPI   PO415252   9.431  18.500   5.219 -0.1367 -0.4338 -0.2938
 1017loPI   GL115253   9.238  18.591   5.566 -0.0531 -0.1895  0.0628
 1017loPI   GL215254   9.330  18.882   5.615  0.3492 -0.1271  0.1667
 1017loPI   C1A15255   9.233  18.424   6.008  0.0450  0.2470 -0.1206
 1017loPI   C2A15256   9.355  18.351   6.453 -0.1247  0.0658  0.0442
 1017loPI   C3A15257   9.313  18.386   6.893  0.2242 -0.5785  0.0052
 1017loPI   C4A15258   9.106  18.439   7.249 -0.1452  0.1097  0.0628
 1017loPI   C5A15259   9.054  18.703   7.607  0.0869 -0.0622  0.3054
 1017loPI   C6A15260   9.142  18.989   7.908  0.0151 -0.1105 -0.0190
 1017loPI   C1B15261   9.179  18.969   5.905 -0.1692 -0.1162 -0.1338
 1017loPI   C2B15262   9.238  18.913   6.337 -0.1396  0.0695 -0.1936
 1017loPI   C3B15263   9.247  18.890   6.704  0.0027 -0.0160  0.0780
 1017loPI   C4B15264   9.252  18.902   7.158 -0.1006 -0.1692 -0.0322
 1018loPI    C115265  11.812  10.182   5.372  0.1274  0.0550  0.1372
 1018loPI    C215266  11.961  10.042   5.028  0.2296  0.1377  0.1475
 1018loPI    C315267  11.602   9.920   5.155  0.0998  0.2637 -0.0921
 1018loPI   PO415268  12.062  10.151   5.544  0.2642 -0.0790  0.2719
 1018loPI   GL115269  12.159  10.138   5.927  0.2718  0.0213  0.0896
 1018loPI   GL215270  12.201   9.845   6.049 -0.1260  0.2985  0.2055
 1018loPI   C1A15271  11.975  10.293   6.289 -0.1499  0.2912  0.1534
 1018loPI   C2A15272  11.936  10.369   6.750  0.0811 -0.0442 -0.2786
 1018loPI   C3A15273  12.267  10.353   7.097 -0.1469 -0.2238 -0.1600
 1018loPI   C4A15274  12.357  10.159   7.514  0.0650 -0.5173  0.1146
 1018loPI   C5A15275  12.150  10.225   7.920  0.1669 -0.2310  0.2389
 1018loPI   C6A15276  12.141  10.316   8.419 -0.0422 -0.2447 -0.2303
 1018loPI   C1B15277  12.010   9.822   6.469  0.1338 -0.1805 -0.0843
 1018loPI   C2B15278  11.881   9.793   6.945 -0.1306  0.0500  0.2993
 1018loPI   C3B15279  11.848  10.084   7.219 -0.1172 -0.4232  0.1974
 1018loPI   C4B15280  11.699  10.542   7.107  0.0982 -0.2966  0.0700
 1019loPI    C115281   0.769   6.985   5.585 -0.1992  0.0561  0.1356
 1019loPI    C215282   0.513   6.812   5.332 -0.1052  0.0727  0.0287
 1019loPI    C315283   0.906   6.743   5.297 -0.1012 -0.0242  0.2481
 1019loPI   PO415284   0.623   7.213   5.652  0.1436 -0.0949 -0.2881
 1019loPI   GL115285   0.850   7.509   5.947 -0.0404 -0.1232 -0.0816
 1019loPI   GL215286   1.169   7.566   5.927 -0.1032  0.3435  0.0885
 1019loPI   C1A15287   0.785   7.788   6.161  0.1758  0.1357  0.0627
 1019loPI   C2A15288   0.914   7.839   6.566  0.1772  0.2162  0.0649
 1019loPI   C3A15289   0.950   7.774   7.027 -0.1291  0.0324  0.0429
 1019loPI   C4A15290   0.991   7.925   7.339  0.1366 -0.0567  0.0963
 1019loPI   C5A15291   1.022   8.088   7.716  0.3284 -0.0791 -0.1679
 1019loPI   C6A15292   1.297   8.194   8.079 -0.4980 -0.0254  0.0610
 1019loPI   C1B15293   1.305   7.830   6.245  0.1332 -0.0397  0.0707
 1019loPI   C2B15294   1.462   7.890   6.642 -0.0217  0.1717  0.0559
 1019loPI   C3B15295   1.549   7.955   7.140 -0.0577 -0.1462 -0.0566
 1019loPI   C4B15296   1.592   8.108   7.612 -0.2222  0.0924  0.2221
 1020loPI    C115297   4.375   2.639   5.158  0.0812 -0.1618 -0.0239
 1020loPI    C215298   4.069   2.688   4.904  0.1028  0.1725  0.0102
 1020loPI    C315299   4.416   2.877   4.839  0.2847 -0.1562  0.0054
 1020loPI   PO415300   4.296   2.611   5.369 -0.3056  0.1406  0.3357
 1020loPI   GL115301   4.121   2.437   5.706  0.2963 -0.0612 -0.0747
 1020loPI   GL215302   4.412   2.216   5.705 -0.2086 -0.2559  0.2611
 1020loPI   C1A15303   4.257   2.468   6.120  0.0444 -0.2530  0.1115
 1020loPI   C2A15304   4.617   2.339   6.414  0.0365 -0.1183  0.0460
 1020loPI   C3A15305   4.750   2.364   6.818 -0.0364 -0.2434  0.0416
 1020loPI   C4A15306   4.690   2.178   7.182 -0.1440 -0.0453 -0.4268
 1020loPI   C5A15307   4.679   2.274   7.589 -0.1283  0.1573  0.4657
 1020loPI   C6A15308   4.378   2.415   7.933  0.1479 -0.0498  0.3938
 1020loPI   C1B15309   4.477   1.948   6.058  0.0090 -0.3107  0.1733
 1020loPI   C2B15310   4.371   1.806   6.446  0.0830  0.0131  0.0864
 1020loPI   C3B15311   4.461   1.932   6.770 -0.1537 -0.0051  0.0784
 1020loPI   C4B15312   4.242   2.018   7.190  0.1572 -0.1220  0.4325
 1021loPI    C115313   1.797   8.570   4.728  0.0028  0.1314 -0.0598
 1021loPI    C215314   1.566   8.244   4.726 -0.1863  0.2637 -0.0927
 1021loPI    C315315   1.923   8.237   4.546 -0.1903  0.0763 -0.0956
 1021loPI   PO415316   1.648   8.678   4.966  0.2154  0.0965  0.0242
 1021loPI   GL115317   1.774   8.794   5.360 -0.1115 -0.1694  0.0303
 1021loPI   GL215318   1.560   8.754   5.666  0.3071  0.0021  0.1640
 1021loPI   C1A15319   2.103   8.789   5.654  0.1277  0.0474 -0.3407
 1021loPI   C2A15320   2.410   8.634   5.885 -0.1364 -0.1456 -0.2712
 1021loPI   C3A15321   2.494   8.657   6.266 -0.1128  0.3965  0.2334
 1021loPI   C4A15322   2.480   8.714   6.726  0.1726  0.2921 -0.1594
 1021loPI   C5A15323   2.670   8.678   7.127 -0.1324 -0.3349  0.1049
 1021loPI   C6A15324   2.832   8.623   7.544 -0.0140 -0.0526 -0.0603
 1021loPI   C1B15325   1.508   8.673   6.110  0.2228  0.1891 -0.1541
 1021loPI   C2B15326   1.548   8.730   6.513 -0.0136 -0.1127 -0.0209
 1021loPI   C3B15327   1.331   8.830   6.971  0.1872 -0.0972 -0.0668
 1021loPI   C4B15328   1.441   8.924   7.384  0.0337  0.2865  0.0681
 1022loPI    C115329   8.508  11.286   5.326  0.2791  0.1089  0.0774
 1022loPI    C215330   8.432  10.906   5.427  0.3073  0.0752 -0.0270
 1022loPI    C315331   8.315  11.045   5.071  0.1407  0.2148  0.0811
 1022loPI   PO415332   8.718  11.286   5.503 -0.1277  0.2873  0.1603
 1022loPI   GL115333   8.595  11.179   5.889  0.3566 -0.2311 -0.1009
 1022loPI   GL215334   8.209  11.170   5.931  0.0672  0.1301  0.0576
 1022loPI   C1A15335   8.582  11.334   6.259  0.2819  0.0101 -0.0204
 1022loPI   C2A15336   8.798  11.177   6.653 -0.2508  0.1675 -0.1280
 1022loPI   C3A15337   8.739  11.233   7.154  0.0348 -0.3199 -0.0859
 1022loPI   C4A15338   8.916  11.105   7.481  0.1678  0.3003 -0.2757
 1022loPI   C5A15339   8.992  10.991   8.007  0.3594 -0.2560 -0.4038
 1022loPI   C6A15340   9.257  10.956   8.352 -0.1183  0.0237 -0.0070
 1022loPI   C1B15341   7.977  11.207   6.224 -0.0593  0.0173 -0.2141
 1022loPI   C2B15342   7.928  11.209   6.656  0.1362  0.0624  0.0303
 1022loPI   C3B15343   7.774  11.242   7.050  0.1387  0.1731  0.0340
 1022loPI   C4B15344   7.749  11.440   7.510  0.2506  0.0968 -0.2456
 1023loPI    C115345  17.288   5.193   5.733  0.1428 -0.0776  0.2709
 1023loPI    C215346  17.427   4.953   5.444  0.0368  0.3500 -0.1485
 1023loPI    C315347  17.599   4.952   5.805  0.1776 -0.1866 -0.2084
 1023loPI   PO415348  16.968   5.182   5.766 -0.2804 -0.0362  0.2823
 1023loPI   GL115349  16.888   5.240   6.213 -0.2628  0.1542  0.2110
 1023loPI   GL215350  16.694   4.989   6.175  0.0177 -0.3242  0.0353
 1023loPI   C1A15351  16.939   5.206   6.590  0.1635 -0.0116  0.1212
 1023loPI   C2A15352  17.034   5.087   6.991 -0.2890 -0.1171  0.3070
 1023loPI   C3A15353  17.217   5.001   7.443  0.2087 -0.2917  0.0210
 1023loPI   C4A15354  17.499   4.940   7.680  0.2106 -0.0939  0.2494
 1023loPI   C5A15355  17.789   5.190   7.895 -0.2862 -0.0995 -0.3389
 1023loPI   C6A15356  17.868   5.582   8.095 -0.0921 -0.0557  0.2450
 1023loPI   C1B15357  16.562   4.788   6.610 -0.1418 -0.2663  0.0095
 1023loPI   C2B15358  16.712   4.703   6.948 -0.1647  0.1470  0.1479
 1023loPI   C3B15359  16.448   4.523   7.341 -0.2126  0.0191  0.2511
 1023loPI   C4B15360  16.154   4.166   7.411  0.0792  0.1213  0.1804
 1024loPI    C115361  14.118  15.457   4.975  0.1735  0.0022  0.1024
 1024loPI    C215362  13.884  15.266   4.713  0.1366 -0.1649  0.2548
 1024loPI    C315363  13.922  15.664   4.694 -0.2532 -0.1215  0.2997
 1024loPI   PO415364  14.080  15.360   5.259  0.1635  0.2866  0.1046
 1024loPI   GL115365  13.856  15.083   5.548 -0.1729  0.0929  0.2656
 1024loPI   GL215366  13.830  14.758   5.637  0.0119  0.0719  0.0236
 1024loPI   C1A15367  13.838  15.304   5.910 -0.3323 -0.0069  0.1165
 1024loPI   C2A15368  13.855  15.166   6.265  0.1774  0.1969  0.1510
 1024loPI   C3A15369  13.861  15.093   6.666 -0.3421  0.3501  0.1903
 1024loPI   C4A15370  13.925  15.063   7.078 -0.4962 -0.1078  0.1443
 1024loPI   C5A15371  13.802  14.866   7.391 -0.2130  0.1095  0.0208
 1024loPI   C6A15372  13.662  14.967   7.810  0.3055  0.3011  0.2522
 1024loPI   C1B15373  13.767  14.747   6.078 -0.0716  0.0660  0.1704
 1024loPI   C2B15374  13.788  14.606   6.479 -0.1990 -0.1387  0.2074
 1024loPI   C3B15375  13.891  14.590   6.869  0.0427  0.0960 -0.0583
 1024loPI   C4B15376  14.221  14.691   7.187  0.5096 -0.0550 -0.2611
 1025loPI    C115377   5.958   5.887   4.950 -0.0451 -0.2606  0.0261
 1025loPI    C215378   6.085   6.233   4.793  0.0334 -0.2897  0.0250
 1025loPI    C315379   5.731   6.080   4.683 -0.0017 -0.2095  0.0260
 1025loPI   PO415380   6.049   5.937   5.287 -0.1308 -0.0232 -0.2062
 1025loPI   GL115381   6.279   6.189   5.662  0.1242  0.0388  0.3662
 1025loPI   GL215382   6.068   6.421   5.771  0.2487  0.0315  0.0776
 1025loPI   C1A15383   6.306   6.011   6.046  0.2702 -0.1555 -0.0864
 1025loPI   C2A15384   6.370   5.947   6.497 -0.1934 -0.2035 -0.1610
 1025loPI   C3A15385   6.500   5.890   6.959 -0.2640 -0.0582  0.0971
 1025loPI   C4A15386   6.323   5.766   7.358  0.0231 -0.4070  0.3798
 1025loPI   C5A15387   6.450   5.426   7.600  0.1405  0.2379  0.0120
 1025loPI   C6A15388   6.708   5.146   7.889 -0.0833 -0.0910 -0.3059
 1025loPI   C1B15389   6.002   6.323   6.284  0.0183 -0.4106 -0.0902
 1025loPI   C2B15390   5.745   6.364   6.600  0.0406  0.0801  0.2976
 1025loPI   C3B15391   5.623   6.328   7.100 -0.1045  0.4565 -0.1048
 1025loPI   C4B15392   5.506   6.438   7.450  0.1817  0.0525  0.1001
 1026loPI    C115393   1.376   7.717   5.247  0.1408 -0.0723 -0.1536
 1026loPI    C215394   1.250   7.902   4.916 -0.0001  0.1105 -0.0001
 1026loPI    C315395   1.328   7.510   4.908 -0.0195  0.1100 -0.2442
 1026loPI   PO415396   1.567   7.872   5.351 -0.1228 -0.5138  0.0339
 1026loPI   GL115397   1.810   8.062   5.682  0.0496  0.1989 -0.0846
 1026loPI   GL215398   1.816   7.873   6.016  0.2300  0.0037  0.0428
 1026loPI   C1A15399   1.852   8.381   5.846  0.2578 -0.3340 -0.1228
 1026loPI   C2A15400   1.954   8.640   6.247  0.0468 -0.1904 -0.4383
 1026loPI   C3A15401   2.032   8.633   6.709  0.3014  0.1415 -0.0602
 1026loPI   C4A15402   2.125   8.672   7.142  0.0407 -0.1745  0.0454
 1026loPI   C5A15403   2.349   8.700   7.519 -0.2566 -0.2397 -0.1793
 1026loPI   C6A15404   2.515   8.780   7.941  0.0524 -0.0296 -0.1384
 1026loPI   C1B15405   2.049   7.829   6.371 -0.1020 -0.3008 -0.1576
 1026loPI   C2B15406   2.240   7.829   6.811  0.1108  0.1107  0.1323
 1026loPI   C3B15407   2.451   7.789   7.262 -0.0352  0.0137 -0.2015
 1026loPI   C4B15408   2.897   7.741   7.496 -0.3482  0.0854 -0.3881
 1027loPI    C115409   3.984   3.234   5.109  0.1069 -0.0901  0.0455
 1027loPI    C215410   4.232   3.358   4.820 -0.0535 -0.1924 -0.1380
 1027loPI    C315411   3.837   3.351   4.756 -0.0872 -0.2568  0.0695
 1027loPI   PO415412   4.011   3.160   5.237 -0.0184 -0.1051 -0.2662
 1027loPI   GL115413   4.167   3.124   5.635 -0.0300 -0.1975  0.0633
 1027loPI   GL215414   4.416   2.890   5.790 -0.0425 -0.2811  0.0921
 1027loPI   C1A15415   4.113   3.294   6.097  0.1671 -0.1179 -0.0113
 1027loPI   C2A15416   4.113   3.305   6.485  0.0876  0.3088  0.0032
 1027loPI   C3A15417   4.229   3.447   6.895 -0.0840  0.1811 -0.0019
 1027loPI   C4A15418   4.601   3.667   7.082  0.2550 -0.0400 -0.1561
 1027loPI   C5A15419   4.515   3.920   7.344 -0.1135  0.1195  0.0682
 1027loPI   C6A15420   4.310   3.891   7.663 -0.2008 -0.2893 -0.2472
 1027loPI   C1B15421   4.430   2.873   6.264  0.1237  0.3241  0.0810
 1027loPI   C2B15422   4.432   2.952   6.645  0.0224  0.1528  0.2784
 1027loPI   C3B15423   4.396   2.976   7.154 -0.1741  0.1024  0.0942
 1027loPI   C4B15424   4.436   3.353   7.447  0.0291 -0.1601  0.1862
 1028loPI    C115425  17.329   0.277   5.477  0.0723 -0.0855  0.0231
 1028loPI    C215426  17.321   0.161   5.094  0.2617 -0.0415  0.0051
 1028loPI    C315427  17.091  -0.024   5.364 -0.0785  0.1060 -0.1778
 1028loPI   PO415428  17.591   0.222   5.557 -0.1495  0.1597 -0.1384
 1028loPI   GL115429  17.768   0.325   5.993 -0.1018  0.0534  0.3277
 1028loPI   GL215430  17.436   0.449   5.977  0.2231 -0.0009 -0.1855
 1028loPI   C1A15431  17.936   0.267   6.426 -0.2204  0.1334 -0.1421
 1028loPI   C2A15432  18.128   0.143   6.723  0.2705 -0.1306 -0.0525
 1028loPI   C3A15433  18.248   0.110   7.143  0.0511 -0.3152  0.0549
 1028loPI   C4A15434  17.952   0.062   7.421  0.0945  0.2306  0.1526
 1028loPI   C5A15435  17.700   0.089   7.684  0.1140 -0.0383  0.1563
 1028loPI   C6A15436  17.517   0.002   8.060 -0.0021  0.1081  0.3043
 1028loPI   C1B15437  17.594   0.552   6.425  0.1774 -0.1438  0.4964
 1028loPI   C2B15438  17.935   0.692   6.698  0.0166 -0.3619  0.0133
 1028loPI   C3B15439  17.966   0.516   7.139 -0.0699  0.0776  0.2362
 1028loPI   C4B15440  17.641   0.515   7.439  0.3332  0.0126  0.1111
 1029loPI    C115441  13.132   8.474   5.331  0.1782 -0.1547 -0.0638
 1029loPI    C215442  13.485   8.619   5.211  0.0833  0.1874  0.0592
 1029loPI    C315443  13.171   8.864   5.251 -0.1586 -0.1061 -0.0062
 1029loPI   PO415444  13.199   8.373   5.558 -0.0076  0.2148 -0.3640
 1029loPI   GL115445  13.333   8.043   5.740 -0.0812 -0.3920  0.0873
 1029loPI   GL215446  13.281   7.776   6.014  0.0510  0.1780 -0.0335
 1029loPI   C1A15447  13.348   8.322   6.175  0.3052 -0.1456 -0.1637
 1029loPI   C2A15448  13.169   8.386   6.571  0.2256 -0.0164  0.2203
 1029loPI   C3A15449  12.876   8.740   6.861  0.0271  0.0340  0.0988
 1029loPI   C4A15450  12.720   8.834   7.245  0.2632 -0.0449 -0.1205
 1029loPI   C5A15451  12.915   8.730   7.749  0.0061  0.1014 -0.0220
 1029loPI   C6A15452  13.055   8.504   8.097 -0.2872  0.0189 -0.0966
 1029loPI   C1B15453  13.179   7.900   6.464  0.0614  0.0493 -0.1310
 1029loPI   C2B15454  13.215   8.011   6.908  0.3671  0.1943 -0.0049
 1029loPI   C3B15455  13.049   8.365   7.171  0.1126 -0.1684  0.0173
 1029loPI   C4B15456  13.204   8.712   7.376  0.1951  0.4379 -0.1451
 1030loPI    C115457  17.925   1.140   5.564 -0.1524 -0.1279  0.0741
 1030loPI    C215458  18.121   1.246   5.232 -0.2104  0.0969  0.1100
 1030loPI    C315459  17.872   0.933   5.225  0.0643 -0.1245  0.0371
 1030loPI   PO415460  18.055   1.274   5.814  0.2889 -0.0111 -0.2364
 1030loPI   GL115461  18.373   1.302   6.122 -0.3354 -0.0111 -0.1615
 1030loPI   GL215462  18.627   1.499   6.120 -0.2297 -0.1410 -0.4132
 1030loPI   C1A15463  18.263   1.004   6.518 -0.4160  0.0950  0.0283
 1030loPI   C2A15464  18.177   0.993   6.997  0.3067  0.4026  0.1383
 1030loPI   C3A15465  17.878   1.062   7.311 -0.1766 -0.2278  0.2281
 1030loPI   C4A15466  17.818   0.935   7.790  0.0523  0.0576  0.3663
 1030loPI   C5A15467  18.182   0.834   8.082  0.3631 -0.0955 -0.1142
 1030loPI   C6A15468  18.497   0.923   8.332 -0.2456 -0.2825 -0.2541
 1030loPI   C1B15469  18.556   1.442   6.561 -0.1848 -0.1928  0.1247
 1030loPI   C2B15470  18.496   1.378   6.964 -0.0772 -0.1161 -0.3574
 1030loPI   C3B15471  18.448   1.309   7.381 -0.0698  0.0523  0.0374
 1030loPI   C4B15472  18.558   1.167   7.833  0.1905  0.0265  0.0987
 1031loPI    C115473  16.733  12.868   5.025 -0.0079  0.0786 -0.0027
 1031loPI    C215474  16.456  12.592   4.943  0.0456  0.0738 -0.1708
 1031loPI    C315475  16.528  12.887   4.682  0.1075  0.1495 -0.0687
 1031loPI   PO415476  16.663  13.018   5.234 -0.3158  0.0843  0.0508
 1031loPI   GL115477  16.377  13.336   5.522  0.0080  0.1318  0.1007
 1031loPI   GL215478  16.409  13.076   5.786  0.1012  0.1652  0.0621
 1031loPI   C1A15479  16.034  13.417   5.826 -0.0404  0.0525 -0.1340
 1031loPI   C2A15480  16.043  13.335   6.283 -0.1113 -0.2161 -0.0351
 1031loPI   C3A15481  16.288  13.519   6.580 -0.5165  0.0177  0.1380
 1031loPI   C4A15482  16.295  13.662   6.965 -0.0172 -0.0075 -0.0217
 1031loPI   C5A15483  16.299  13.947   7.345  0.2197 -0.0845  0.0047
 1031loPI   C6A15484  16.078  13.938   7.709  0.0439  0.1929 -0.0622
 1031loPI   C1B15485  16.198  12.873   6.048  0.1026 -0.1394 -0.0334
 1031loPI   C2B15486  16.147  12.700   6.391 -0.0175 -0.1272 -0.0807
 1031loPI   C3B15487  16.325  12.664   6.751 -0.2018  0.2233  0.1131
 1031loPI   C4B15488  16.370  12.702   7.154  0.0785 -0.1728  0.2243
 1032loPI    C115489  17.839   3.872   5.072 -0.1109 -0.0896  0.0421
 1032loPI    C215490  17.703   3.651   4.767 -0.2660  0.0447  0.0128
 1032loPI    C315491  17.965   3.946   4.699  0.0052 -0.1806  0.0626
 1032loPI   PO415492  17.841   3.655   5.381 -0.1924 -0.1460  0.1460
 1032loPI   GL115493  17.812   3.680   5.836  0.3071 -0.1376 -0.2138
 1032loPI   GL215494  17.819   4.029   6.019  0.3645  0.0994  0.2965
 1032loPI   C1A15495  17.648   3.575   6.171  0.0441 -0.1513 -0.2018
 1032loPI   C2A15496  17.527   3.669   6.498 -0.1937  0.0207 -0.0545
 1032loPI   C3A15497  17.499   4.008   6.768  0.1837  0.0136  0.1548
 1032loPI   C4A15498  17.341   4.113   7.192  0.3572  0.0909  0.1760
 1032loPI   C5A15499  17.343   4.003   7.602  0.0835  0.0445 -0.0738
 1032loPI   C6A15500  17.353   3.818   7.987  0.2038 -0.2401  0.0114
 1032loPI   C1B15501  17.920   4.116   6.527  0.0307  0.1571  0.4057
 1032loPI   C2B15502  17.981   3.883   6.885 -0.3863 -0.1627 -0.2204
 1032loPI   C3B15503  18.204   3.577   7.145  0.2471  0.2185 -0.1758
 1032loPI   C4B15504  18.186   3.452   7.651 -0.1017  0.0324 -0.0250
 1033loPI    C115505   0.158  18.155   5.366  0.1771 -0.2182 -0.0634
 1033loPI    C215506   0.045  17.824   5.171 -0.0175  0.0515 -0.4199
 1033loPI    C315507  -0.156  18.166   5.120  0.0626  0.1847  0.0927
 1033loPI   PO415508   0.234  18.058   5.664 -0.0786  0.1135 -0.0702
 1033loPI   GL115509  -0.091  18.008   6.100  0.0526  0.2179 -0.1755
 1033loPI   GL215510  -0.455  17.850   6.131  0.0730 -0.0175 -0.2447
 1033loPI   C1A15511   0.257  17.949   6.343 -0.1305 -0.0402 -0.1005
 1033loPI   C2A15512   0.236  18.018   6.794  0.0519  0.1925  0.0231
 1033loPI   C3A15513   0.292  18.246   7.252 -0.1623  0.0669  0.1029
 1033loPI   C4A15514   0.271  18.177   7.655 -0.0622  0.1490 -0.2722
 1033loPI   C5A15515   0.368  18.385   8.044 -0.3640 -0.2540 -0.4605
 1033loPI   C6A15516   0.383  18.703   8.385 -0.1899  0.1031 -0.1151
 1033loPI   C1B15517  -0.712  17.794   6.569  0.2085  0.1389 -0.1216
 1033loPI   C2B15518  -0.615  18.033   6.910 -0.1901 -0.0000  0.1964
 1033loPI   C3B15519  -0.587  18.273   7.310 -0.3237 -0.2060  0.1305
 1033loPI   C4B15520  -0.808  18.323   7.642  0.1295 -0.0785  0.1503
 1034loPI    C115521  14.630  11.345   5.295 -0.1691  0.1293  0.0123
 1034loPI    C215522  14.454  11.133   5.005  0.1360 -0.0780 -0.0255
 1034loPI    C315523  14.853  11.131   5.041  0.1296  0.3137  0.1136
 1034loPI   PO415524  14.505  11.248   5.476 -0.2249  0.1804 -0.2270
 1034loPI   GL115525  14.307  11.213   5.861 -0.2426 -0.2179 -0.0249
 1034loPI   GL215526  14.055  10.953   6.099 -0.1918  0.3631  0.5119
 1034loPI   C1A15527  14.321  11.356   6.303 -0.0133  0.0725 -0.0364
 1034loPI   C2A15528  14.322  11.464   6.692  0.0121 -0.1867 -0.3474
 1034loPI   C3A15529  14.497  11.347   7.091 -0.5071  0.0373 -0.0677
 1034loPI   C4A15530  14.381  11.306   7.524  0.3365 -0.3877 -0.2813
 1034loPI   C5A15531  14.236  10.956   7.683  0.1278  0.5704  0.2998
 1034loPI   C6A15532  13.922  10.574   7.559  0.1649 -0.1105 -0.1352
 1034loPI   C1B15533  13.995  11.059   6.583 -0.1400 -0.0153 -0.4903
 1034loPI   C2B15534  13.933  11.179   6.974  0.3366  0.0634  0.4453
 1034loPI   C3B15535  13.934  11.200   7.373 -0.1660 -0.2704  0.1708
 1034loPI   C4B15536  13.918  11.347   7.823 -0.0895  0.0147  0.0549
 1035loPI    C115537   9.795   3.508   4.658  0.0229  0.1547 -0.2687
 1035loPI    C215538  10.164   3.650   4.713  0.0851 -0.0778 -0.0720
 1035loPI    C315539  10.104   3.339   4.469  0.0398 -0.1341  0.0105
 1035loPI   PO415540   9.680   3.386   4.926 -0.3634  0.0236  0.0314
 1035loPI   GL115541   9.575   3.513   5.407  0.0163  0.2288 -0.3527
 1035loPI   GL215542   9.317   3.519   5.322  0.3030  0.0362  0.3589
 1035loPI   C1A15543   9.830   3.331   5.783  0.2139 -0.0194  0.0451
 1035loPI   C2A15544   9.875   2.863   6.011 -0.1779  0.2606 -0.0526
 1035loPI   C3A15545   9.904   2.873   6.498  0.3072  0.1157  0.1714
 1035loPI   C4A15546   9.991   2.916   6.951  0.0718 -0.0065  0.0979
 1035loPI   C5A15547   9.958   2.904   7.371  0.0575 -0.3272 -0.1985
 1035loPI   C6A15548  10.281   2.998   7.727 -0.0704  0.1503 -0.0953
 1035loPI   C1B15549   9.407   3.572   5.841 -0.5322 -0.0480 -0.0889
 1035loPI   C2B15550   9.504   3.642   6.267  0.2101  0.1849 -0.0050
 1035loPI   C3B15551   9.435   3.534   6.769 -0.2880  0.0689 -0.1110
 1035loPI   C4B15552   9.339   3.566   7.196  0.1565  0.1115  0.0919
 1036loPI    C115553   1.757  11.571   5.086 -0.7200  0.1261  0.1119
 1036loPI    C215554   1.504  11.283   4.972 -0.3994 -0.0639 -0.1366
 1036loPI    C315555   1.724  11.476   4.699 -0.1913  0.0188  0.0860
 1036loPI   PO415556   1.693  11.743   5.263 -0.1953  0.5449  0.1409
 1036loPI   GL115557   1.771  11.758   5.698  0.2842 -0.0347  0.0568
 1036loPI   GL215558   2.060  11.649   5.911 -0.0400  0.0906  0.0723
 1036loPI   C1A15559   1.571  11.576   6.127  0.2110 -0.1910  0.1148
 1036loPI   C2A15560   1.516  11.436   6.566 -0.2946 -0.0403 -0.0448
 1036loPI   C3A15561   1.601  11.580   7.012  0.1193  0.0740 -0.1102
 1036loPI   C4A15562   1.449  11.782   7.403 -0.0109  0.0583  0.0191
 1036loPI   C5A15563   1.640  11.885   7.809 -0.1702  0.0098  0.3559
 1036loPI   C6A15564   1.916  11.990   8.068  0.0518 -0.2647 -0.2687
 1036loPI   C1B15565   2.023  11.679   6.370 -0.3339 -0.3069 -0.0887
 1036loPI   C2B15566   2.042  11.523   6.755 -0.0767  0.2151 -0.0895
 1036loPI   C3B15567   2.086  11.361   7.098  0.0145 -0.3013 -0.0533
 1036loPI   C4B15568   2.120  11.136   7.573 -0.2071  0.2476 -0.1609
 1037loPI    C115569  12.506   6.144   5.425  0.2298  0.1462  0.0061
 1037loPI    C215570  12.790   6.052   5.159 -0.0112 -0.1120 -0.1664
 1037loPI    C315571  12.487   6.290   5.054 -0.0008 -0.0526 -0.0626
 1037loPI   PO415572  12.612   6.212   5.587  0.1695  0.1571  0.0615
 1037loPI   GL115573  12.523   6.412   5.961 -0.0601  0.0623 -0.0600
 1037loPI   GL215574  12.557   6.661   5.955 -0.3888 -0.0667 -0.1019
 1037loPI   C1A15575  12.529   6.236   6.338 -0.0321  0.2764  0.1570
 1037loPI   C2A15576  12.447   6.113   6.602  0.0198  0.4437 -0.0927
 1037loPI   C3A15577  12.476   5.996   7.118 -0.1485 -0.1769 -0.0091
 1037loPI   C4A15578  12.729   5.995   7.488 -0.3151  0.1188  0.1415
 1037loPI   C5A15579  12.982   6.179   7.895 -0.0888 -0.0976 -0.0139
 1037loPI   C6A15580  13.419   6.384   7.947  0.0205  0.0528 -0.0546
 1037loPI   C1B15581  12.484   6.751   6.456  0.1280 -0.1091 -0.1666
 1037loPI   C2B15582  12.239   6.845   6.867 -0.0520 -0.0763  0.0607
 1037loPI   C3B15583  12.467   6.909   7.190 -0.1055 -0.0335 -0.0341
 1037loPI   C4B15584  12.803   7.078   7.449  0.0518  0.1535  0.0628
 1038loPI    C115585   4.829  10.542   5.104  0.1475 -0.1338 -0.2171
 1038loPI    C215586   4.969  10.307   5.396  0.2890  0.0464 -0.1389
 1038loPI    C315587   4.867  10.148   5.044 -0.0023 -0.1913  0.0480
 1038loPI   PO415588   4.978  10.755   5.108 -0.1370 -0.2230  0.1499
 1038loPI   GL115589   5.134  11.011   5.450  0.0720 -0.1145 -0.1490
 1038loPI   GL215590   4.974  10.769   5.602  0.1235  0.2563  0.1112
 1038loPI   C1A15591   5.260  11.166   5.875  0.1029  0.1402  0.1537
 1038loPI   C2A15592   5.245  11.211   6.343 -0.1723 -0.1369 -0.1335
 1038loPI   C3A15593   5.518  11.225   6.628  0.2533  0.0470  0.2892
 1038loPI   C4A15594   5.721  11.094   6.974  0.2915 -0.0427 -0.1291
 1038loPI   C5A15595   5.735  11.282   7.390 -0.3989 -0.4675  0.3069
 1038loPI   C6A15596   5.999  11.507   7.750  0.1170 -0.2610  0.2545
 1038loPI   C1B15597   4.996  10.809   6.110 -0.0577 -0.1035  0.2985
 1038loPI   C2B15598   4.815  10.738   6.509  0.0452  0.0257 -0.1876
 1038loPI   C3B15599   4.554  10.614   6.877  0.1491  0.1087 -0.0050
 1038loPI   C4B15600   4.671  10.526   7.340  0.0582 -0.1041 -0.0697
 1039loPI    C115601  17.362  17.400   5.635  0.0636  0.1147 -0.0240
 1039loPI    C215602  17.310  17.516   5.256 -0.3495  0.0772  0.0170
 1039loPI    C315603  17.245  17.135   5.359  0.0562  0.0185  0.0709
 1039loPI   PO415604  17.569  17.517   5.698  0.0727  0.1067 -0.1839
 1039loPI   GL115605  17.909  17.485   6.092 -0.0541 -0.1399  0.0150
 1039loPI   GL215606  17.717  17.715   6.166  0.1386 -0.0879 -0.1975
 1039loPI   C1A15607  18.096  17.334   6.417 -0.0962  0.0942 -0.0550
 1039loPI   C2A15608  18.041  17.358   6.771 -0.4155 -0.0273 -0.1274
 1039loPI   C3A15609  18.221  17.442   7.131  0.3061  0.0356 -0.0143
 1039loPI   C4A15610  18.306  17.468   7.537  0.0456 -0.0653 -0.0653
 1039loPI   C5A15611  18.383  17.660   7.938  0.0187 -0.2106  0.1419
 1039loPI   C6A15612  18.718  17.957   8.028 -0.0756  0.2384  0.0129
 1039loPI   C1B15613  17.565  17.490   6.504 -0.2141 -0.0393 -0.0090
 1039loPI   C2B15614  17.521  17.442   6.941 -0.1688 -0.2053 -0.1009
 1039loPI   C3B15615  17.735  17.699   7.167 -0.1328  0.0226  0.1846
 1039loPI   C4B15616  17.924  17.791   7.559  0.1754  0.0215 -0.1892
 1040loPI    C115617   5.415   3.242   4.957  0.1121 -0.0104 -0.0760
 1040loPI    C215618   5.600   3.580   4.848 -0.0765  0.0793 -0.1221
 1040loPI    C315619   5.217   3.590   4.964 -0.0206 -0.0878  0.0829
 1040loPI   PO415620   5.583   3.108   5.117 -0.0342  0.0265  0.0776
 1040loPI   GL115621   5.772   3.107   5.522  0.1750 -0.1592 -0.2228
 1040loPI   GL215622   5.478   2.941   5.822 -0.2534  0.2956 -0.1040
 1040loPI   C1A15623   5.575   3.412   5.797  0.0813  0.1674 -0.0822
 1040loPI   C2A15624   5.705   3.609   6.193 -0.0338  0.0812  0.1705
 1040loPI   C3A15625   5.808   3.885   6.559 -0.0244 -0.2350  0.1177
 1040loPI   C4A15626   5.711   4.205   6.803  0.0311  0.2401  0.1806
 1040loPI   C5A15627   5.926   4.113   7.287  0.3001 -0.1463  0.0873
 1040loPI   C6A15628   5.862   3.967   7.652 -0.2878  0.0408 -0.3433
 1040loPI   C1B15629   5.849   3.101   6.110  0.1573 -0.1378  0.0473
 1040loPI   C2B15630   5.796   3.191   6.444  0.3387  0.0593  0.2492
 1040loPI   C3B15631   5.800   3.420   6.757 -0.0595 -0.1142 -0.1245
 1040loPI   C4B15632   5.728   3.691   7.126 -0.0778 -0.0032  0.1245
 1041loPI    C115633   3.149  12.704   5.298  0.0685 -0.4114  0.1172
 1041loPI    C215634   3.104  12.385   5.060 -0.3062 -0.1745 -0.1395
 1041loPI    C315635   2.828  12.675   5.061 -0.0583  0.0687  0.2202
 1041loPI   PO415636   3.190  12.589   5.506  0.1412 -0.0423 -0.1154
 1041loPI   GL115637   3.432  12.510   5.918  0.0154  0.1654  0.0655
 1041loPI   GL215638   3.692  12.395   5.740  0.1979  0.0585 -0.0642
 1041loPI   C1A15639   3.527  12.762   6.323 -0.0492  0.0057  0.1084
 1041loPI   C2A15640   3.423  12.930   6.662  0.0838 -0.2293 -0.0088
 1041loPI   C3A15641   3.459  12.781   7.067 -0.1593  0.0877 -0.1247
 1041loPI   C4A15642   3.420  12.491   7.424 -0.0006 -0.0011 -0.0446
 1041loPI   C5A15643   3.668  12.276   7.731 -0.1823  0.5111 -0.0440
 1041loPI   C6A15644   4.097  12.078   7.625  0.1218 -0.0002  0.0210
 1041loPI   C1B15645   3.781  12.219   6.187 -0.0800 -0.0880 -0.0574
 1041loPI   C2B15646   3.854  12.390   6.495  0.0125  0.0839  0.1727
 1041loPI   C3B15647   3.791  12.402   6.910 -0.0775  0.0688 -0.0943
 1041loPI   C4B15648   3.841  12.265   7.282  0.1520 -0.1486  0.2728
 1042loPI    C115649   1.840  15.893   5.249  0.0115 -0.0005  0.0389
 1042loPI    C215650   1.872  15.704   4.898  0.1435  0.1488 -0.0309
 1042loPI    C315651   1.642  16.030   4.929 -0.0255  0.0215  0.0711
 1042loPI   PO415652   2.088  15.735   5.405 -0.1060  0.1621  0.0952
 1042loPI   GL115653   2.274  15.776   5.809  0.0127 -0.1453  0.0375
 1042loPI   GL215654   2.558  15.495   5.779  0.1497 -0.2594  0.3067
 1042loPI   C1A15655   2.299  15.739   6.203  0.1008  0.0220 -0.1974
 1042loPI   C2A15656   2.518  15.687   6.568 -0.0446 -0.0768 -0.1008
 1042loPI   C3A15657   2.284  15.969   6.635  0.0074 -0.1619 -0.1554
 1042loPI   C4A15658   2.303  16.134   6.979  0.2694  0.5023  0.1994
 1042loPI   C5A15659   2.336  16.488   7.258 -0.1948  0.0687  0.0098
 1042loPI   C6A15660   2.569  16.397   7.678 -0.0459 -0.1057 -0.0164
 1042loPI   C1B15661   2.356  15.230   6.062  0.1284 -0.2030  0.1655
 1042loPI   C2B15662   2.020  15.258   6.296  0.1957  0.2409  0.0210
 1042loPI   C3B15663   2.072  15.503   6.719 -0.2606  0.2812 -0.1570
 1042loPI   C4B15664   2.084  15.342   7.127  0.2064  0.1981  0.0333
 1043loPI    C115665   2.426  13.618   5.280  0.1396 -0.1011  0.0057
 1043loPI    C215666   2.733  13.732   5.051  0.2553 -0.1288  0.1459
 1043loPI    C315667   2.424  13.538   4.888  0.0584  0.3703 -0.0966
 1043loPI   PO415668   2.603  13.447   5.499 -0.1911 -0.1602 -0.2160
 1043loPI   GL115669   2.853  13.285   5.860  0.2596 -0.4414  0.2597
 1043loPI   GL215670   2.515  13.385   5.951 -0.0713  0.2655 -0.0576
 1043loPI   C1A15671   3.138  13.116   6.164  0.1046  0.0767 -0.0122
 1043loPI   C2A15672   2.953  13.176   6.582  0.1213  0.0777  0.0651
 1043loPI   C3A15673   2.896  13.175   7.009 -0.3380 -0.0989  0.0413
 1043loPI   C4A15674   2.809  13.384   7.490  0.0478 -0.0977 -0.1264
 1043loPI   C5A15675   2.955  13.832   7.686  0.1125  0.1978  0.0353
 1043loPI   C6A15676   3.022  14.164   8.040  0.1338 -0.1252 -0.0854
 1043loPI   C1B15677   2.488  13.220   6.403 -0.3999  0.1600  0.0731
 1043loPI   C2B15678   2.355  12.982   6.773  0.3045  0.0892  0.1202
 1043loPI   C3B15679   2.463  13.099   7.216 -0.0112 -0.1346  0.2994
 1043loPI   C4B15680   2.674  12.917   7.591 -0.1353  0.1483  0.1571
 1044loPI    C115681   7.724  10.493   5.219  0.1667 -0.0928  0.1172
 1044loPI    C215682   7.736  10.169   5.454  0.0085 -0.1774  0.0109
 1044loPI    C315683   7.489  10.179   5.140 -0.0024  0.0553  0.0249
 1044loPI   PO415684   7.996  10.671   5.332  0.1841 -0.1951 -0.2526
 1044loPI   GL115685   7.947  10.729   5.742  0.1320 -0.0786  0.0713
 1044loPI   GL215686   7.932  10.405   5.844 -0.2735  0.0831 -0.0485
 1044loPI   C1A15687   7.841  10.768   6.211  0.0197 -0.1149  0.2100
 1044loPI   C2A15688   7.916  10.686   6.592  0.2232  0.1801 -0.1473
 1044loPI   C3A15689   7.959  10.723   7.010 -0.1575 -0.3968 -0.1560
 1044loPI   C4A15690   8.024  10.580   7.393  0.4746  0.2143  0.0229
 1044loPI   C5A15691   7.804  10.409   7.745  0.0361 -0.0620  0.4168
 1044loPI   C6A15692   7.515  10.251   8.069 -0.3206 -0.2195  0.1532
 1044loPI   C1B15693   8.084  10.339   6.196 -0.0981 -0.4670  0.0907
 1044loPI   C2B15694   8.445  10.373   6.494  0.1620 -0.2223  0.2232
 1044loPI   C3B15695   8.812  10.339   6.754 -0.0123  0.0005  0.0008
 1044loPI   C4B15696   8.930  10.187   7.089 -0.0234  0.0857 -0.2451
 1045loPI    C115697  11.096  12.562   5.011  0.0386 -0.1037 -0.1650
 1045loPI    C215698  10.698  12.528   4.999  0.0292 -0.0117 -0.1238
 1045loPI    C315699  10.920  12.379   4.702 -0.0490  0.1165 -0.2472
 1045loPI   PO415700  11.155  12.692   5.217  0.0530  0.1016 -0.2073
 1045loPI   GL115701  11.136  12.842   5.603  0.0771 -0.0899  0.1100
 1045loPI   GL215702  11.153  12.562   5.780  0.0212  0.1191 -0.0323
 1045loPI   C1A15703  10.974  13.025   5.899 -0.0206  0.1441 -0.0652
 1045loPI   C2A15704  10.934  13.093   6.196 -0.1560 -0.2605 -0.0126
 1045loPI   C3A15705  11.099  13.354   6.569 -0.1786  0.2833  0.2921
 1045loPI   C4A15706  11.155  13.342   7.055 -0.1138 -0.2403 -0.1242
 1045loPI   C5A15707  10.953  13.438   7.383  0.1771 -0.0326 -0.1063
 1045loPI   C6A15708  10.815  13.741   7.569 -0.2770  0.1035 -0.0070
 1045loPI   C1B15709  11.003  12.450   6.146 -0.2226  0.0803  0.0864
 1045loPI   C2B15710  10.719  12.699   6.384 -0.1969 -0.2985 -0.1302
 1045loPI   C3B15711  10.797  12.877   6.781 -0.2273 -0.0049 -0.2492
 1045loPI   C4B15712  10.642  13.097   7.086 -0.2753  0.0955  0.1411
 1046loPI    C115713   9.845  14.452   5.078  0.2232 -0.1250 -0.0601
 1046loPI    C215714   9.720  14.586   4.723  0.2080 -0.0132 -0.0131
 1046loPI    C315715  10.100  14.471   4.770  0.2387  0.0772 -0.0365
 1046loPI   PO415716   9.873  14.622   5.326  0.0203 -0.0384  0.4146
 1046loPI   GL115717   9.930  14.619   5.768 -0.0222  0.3021 -0.2014
 1046loPI   GL215718  10.199  14.895   5.815 -0.1530  0.1093  0.3127
 1046loPI   C1A15719   9.724  14.905   6.070  0.1367  0.0499 -0.1755
 1046loPI   C2A15720   9.696  15.086   6.518 -0.0023 -0.1537 -0.5119
 1046loPI   C3A15721   9.562  15.272   6.849 -0.0116  0.0602 -0.1418
 1046loPI   C4A15722   9.373  15.218   7.275 -0.1152  0.1402 -0.0867
 1046loPI   C5A15723   9.076  15.166   7.542  0.5018 -0.2318  0.1642
 1046loPI   C6A15724   8.738  15.341   7.795  0.4048  0.1931 -0.2491
 1046loPI   C1B15725  10.193  14.924   6.261  0.0955  0.0587  0.1374
 1046loPI   C2B15726  10.193  14.949   6.717  0.2056  0.0506 -0.0086
 1046loPI   C3B15727  10.251  14.798   7.026 -0.1515  0.1856  0.2142
 1046loPI   C4B15728  10.234  14.501   7.396 -0.2476 -0.0040 -0.1571
 1047loPI    C115729   7.119   9.562   5.118 -0.0171 -0.0039 -0.0492
 1047loPI    C215730   7.330   9.225   5.163  0.1421  0.1035  0.0169
 1047loPI    C315731   6.966   9.212   4.999  0.1871 -0.0876 -0.0707
 1047loPI   PO415732   7.269   9.728   5.336  0.1832  0.1169 -0.1987
 1047loPI   GL115733   7.239  10.030   5.636  0.1403  0.1407 -0.1187
 1047loPI   GL215734   7.289  10.376   5.549  0.0387  0.0153  0.0914
 1047loPI   C1A15735   7.116  10.228   5.982  0.1820  0.0120  0.1752
 1047loPI   C2A15736   7.023  10.466   6.268 -0.2433  0.0278 -0.3041
 1047loPI   C3A15737   6.976  10.369   6.734 -0.0662  0.1322 -0.1070
 1047loPI   C4A15738   6.965  10.365   7.160  0.1593  0.0305 -0.0054
 1047loPI   C5A15739   6.729  10.440   7.503  0.1785  0.3376 -0.0027
 1047loPI   C6A15740   6.422  10.690   7.608  0.1355  0.0964 -0.1183
 1047loPI   C1B15741   7.485  10.577   5.928 -0.0357 -0.0584  0.0882
 1047loPI   C2B15742   7.592  10.392   6.351 -0.3305  0.0382  0.1658
 1047loPI   C3B15743   7.487  10.311   6.791 -0.4417  0.0165 -0.1438
 1047loPI   C4B15744   7.518  10.064   7.172 -0.0402 -0.0443 -0.1751
 1048loPI    C115745   4.669  17.100   5.055  0.1666  0.0117 -0.0627
 1048loPI    C215746   4.623  17.177   4.666 -0.0059 -0.1268 -0.0714
 1048loPI    C315747   4.337  17.280   4.925  0.0510 -0.1523  0.0020
 1048loPI   PO415748   4.871  17.159   5.106  0.0636  0.0491  0.2767
 1048loPI   GL115749   5.059  17.241   5.466  0.0967 -0.0979 -0.2979
 1048loPI   GL215750   5.310  17.350   5.510 -0.1980  0.1357  0.2986
 1048loPI   C1A15751   4.882  17.059   5.818 -0.2831  0.0015  0.0246
 1048loPI   C2A15752   4.891  17.139   6.261 -0.0318 -0.3845  0.0460
 1048loPI   C3A15753   4.744  17.383   6.617  0.3816 -0.1378  0.0602
 1048loPI   C4A15754   4.614  17.421   7.125  0.0079 -0.0648  0.1680
 1048loPI   C5A15755   4.824  17.244   7.527  0.0787 -0.0262  0.1650
 1048loPI   C6A15756   5.202  17.239   7.729  0.2559 -0.2020 -0.0613
 1048loPI   C1B15757   5.145  17.483   5.925  0.0733 -0.1894 -0.0433
 1048loPI   C2B15758   5.346  17.304   6.228  0.0113 -0.1686  0.0275
 1048loPI   C3B15759   5.409  17.088   6.606  0.0449  0.5654  0.0161
 1048loPI   C4B15760   5.144  17.039   6.947  0.3356 -0.2775 -0.0962
 1049loPI    C115761  11.215   4.842   5.491  0.1941 -0.2508 -0.0848
 1049loPI    C215762  10.861   4.761   5.322  0.0756 -0.1387  0.1057
 1049loPI    C315763  11.196   4.739   5.105 -0.0633 -0.0979 -0.1157
 1049loPI   PO415764  11.095   4.775   5.766 -0.1006 -0.1395  0.0450
 1049loPI   GL115765  11.222   4.828   6.166  0.2315 -0.1778 -0.1400
 1049loPI   GL215766  11.028   5.105   6.131  0.2017 -0.0010  0.0689
 1049loPI   C1A15767  11.021   4.704   6.512 -0.0988 -0.1681 -0.0772
 1049loPI   C2A15768  10.980   4.925   6.893 -0.2519 -0.0255 -0.1125
 1049loPI   C3A15769  10.947   5.380   6.956 -0.1369  0.1877 -0.0205
 1049loPI   C4A15770  10.949   5.530   7.337  0.1365  0.0423 -0.2230
 1049loPI   C5A15771  11.004   5.825   7.663  0.3419 -0.4052 -0.0299
 1049loPI   C6A15772  10.985   5.661   8.075 -0.0839 -0.0430  0.0901
 1049loPI   C1B15773  10.843   5.320   6.397 -0.0242  0.0170  0.1198
 1049loPI   C2B15774  10.571   5.093   6.660  0.0484  0.3951  0.1041
 1049loPI   C3B15775  10.504   5.165   7.045 -0.3480 -0.0790 -0.2619
 1049loPI   C4B15776  10.698   5.049   7.425  0.2200 -0.1512 -0.2344
 1050loPI    C115777  14.963  15.121   5.053  0.3301  0.2346 -0.0034
 1050loPI    C215778  14.938  15.485   4.887 -0.0954  0.0820 -0.2901
 1050loPI    C315779  15.157  15.200   4.712  0.3319  0.2256 -0.0045
 1050loPI   PO415780  15.039  15.173   5.391 -0.0832  0.0670 -0.0601
 1050loPI   GL115781  15.254  15.043   5.684  0.0180 -0.2975  0.0988
 1050loPI   GL215782  15.329  15.372   5.782 -0.1642 -0.3086  0.1245
 1050loPI   C1A15783  15.193  14.982   6.087  0.0873  0.0713  0.2524
 1050loPI   C2A15784  15.157  14.855   6.454  0.0662 -0.0419 -0.0351
 1050loPI   C3A15785  15.075  14.996   6.815 -0.0083  0.0627  0.2286
 1050loPI   C4A15786  14.838  15.097   7.153  0.0279 -0.1122  0.3667
 1050loPI   C5A15787  14.948  15.224   7.511 -0.0699  0.3716 -0.0792
 1050loPI   C6A15788  15.100  15.401   7.927  0.0461  0.0253 -0.1229
 1050loPI   C1B15789  15.092  15.640   6.086 -0.3635 -0.2318  0.1566
 1050loPI   C2B15790  15.035  15.842   6.312  0.2729 -0.2973 -0.2141
 1050loPI   C3B15791  14.944  16.013   6.661 -0.0328  0.0614 -0.2745
 1050loPI   C4B15792  14.806  16.313   6.983  0.1008 -0.3337  0.1356
 1051loPI    C115793  17.705   9.478   5.550  0.3495 -0.0207  0.3278
 1051loPI    C215794  17.970   9.258   5.345 -0.1710 -0.2156 -0.1634
 1051loPI    C315795  17.837   9.605   5.194 -0.3527 -0.2229 -0.0248
 1051loPI   PO415796  17.751   9.466   5.761  0.3663 -0.6032  0.0382
 1051loPI   GL115797  17.631   9.271   6.136  0.2824  0.2238 -0.0264
 1051loPI   GL215798  17.692   9.709   6.221 -0.2573  0.0919  0.4662
 1051loPI   C1A15799  17.780   9.237   6.536  0.0914  0.1137 -0.0356
 1051loPI   C2A15800  17.859   9.398   6.880  0.0834  0.3061 -0.0770
 1051loPI   C3A15801  17.830   9.362   7.322  0.2795 -0.3292  0.2738
 1051loPI   C4A15802  17.941   9.310   7.670  0.3201 -0.0730  0.1836
 1051loPI   C5A15803  18.021   8.997   7.853 -0.0806 -0.0225  0.3237
 1051loPI   C6A15804  17.940   8.671   8.145 -0.0414 -0.1779 -0.1150
 1051loPI   C1B15805  17.852   9.852   6.651  0.0457 -0.0275 -0.0200
 1051loPI   C2B15806  17.886   9.884   7.136 -0.0981 -0.1874 -0.3628
 1051loPI   C3B15807  17.792   9.944   7.549 -0.0578 -0.0311  0.0588
 1051loPI   C4B15808  17.795   9.795   7.924  0.0293 -0.0714 -0.0187
 1052loPI    C115809   7.270  12.686   4.941  0.0249 -0.1736  0.0849
 1052loPI    C215810   6.936  12.702   4.722 -0.0390  0.0194  0.1941
 1052loPI    C315811   7.275  12.565   4.560 -0.0901  0.1405 -0.0191
 1052loPI   PO415812   7.196  12.688   5.196 -0.2849 -0.0701  0.2336
 1052loPI   GL115813   7.349  12.912   5.655  0.2634 -0.0818  0.3504
 1052loPI   GL215814   7.309  12.575   5.651  0.1396  0.0548 -0.1997
 1052loPI   C1A15815   7.094  13.060   5.950  0.0882  0.1951  0.1254
 1052loPI   C2A15816   7.034  13.007   6.338  0.0504 -0.2326 -0.0737
 1052loPI   C3A15817   6.983  12.816   6.764 -0.1545  0.1672  0.2328
 1052loPI   C4A15818   6.735  12.890   7.181 -0.1955 -0.0601 -0.1512
 1052loPI   C5A15819   6.709  13.168   7.555  0.0121  0.0641 -0.0048
 1052loPI   C6A15820   6.879  13.379   7.884 -0.2854 -0.0163  0.2975
 1052loPI   C1B15821   7.007  12.582   5.828  0.1060 -0.0927  0.1396
 1052loPI   C2B15822   6.640  12.542   6.016 -0.2507  0.0255  0.1360
 1052loPI   C3B15823   6.523  12.652   6.495  0.0197 -0.1509 -0.0724
 1052loPI   C4B15824   6.462  12.734   6.877  0.3318 -0.0525  0.0368
 1053loPI    C115825  11.222  10.179   5.343 -0.0895  0.1481  0.0336
 1053loPI    C215826  11.295  10.572   5.368  0.1746  0.0998  0.0495
 1053loPI    C315827  11.401  10.369   5.040  0.2831 -0.0073  0.1491
 1053loPI   PO415828  11.432  10.067   5.648 -0.1127 -0.0029 -0.0016
 1053loPI   GL115829  11.352  10.137   6.111 -0.0188 -0.0081 -0.2339
 1053loPI   GL215830  11.643   9.933   6.086  0.2444  0.1175 -0.0906
 1053loPI   C1A15831  11.144  10.280   6.539 -0.1178  0.2106 -0.1543
 1053loPI   C2A15832  10.958  10.238   6.957 -0.0378  0.1993  0.4988
 1053loPI   C3A15833  10.860  10.183   7.434 -0.0342  0.1230  0.1831
 1053loPI   C4A15834  10.694  10.099   7.881  0.2391  0.2025  0.1525
 1053loPI   C5A15835  10.642  10.138   8.302 -0.1054 -0.2937  0.1497
 1053loPI   C6A15836  10.541  10.006   8.651  0.0868  0.2070  0.0078
 1053loPI   C1B15837  11.572   9.986   6.512  0.4191 -0.3454  0.1436
 1053loPI   C2B15838  11.457  10.159   6.956 -0.0806  0.2889 -0.0715
 1053loPI   C3B15839  11.301  10.336   7.362 -0.5327  0.4182  0.0203
 1053loPI   C4B15840  11.242  10.250   7.821  0.2363 -0.4457  0.0450
 1054loPI    C115841   6.863   8.394   5.458 -0.0407 -0.1144 -0.0698
 1054loPI    C215842   6.884   8.416   5.059  0.0881 -0.3114 -0.0749
 1054loPI    C315843   7.219   8.427   5.278  0.0250 -0.3093  0.0219
 1054loPI   PO415844   6.616   8.276   5.494 -0.2439 -0.2719  0.1007
 1054loPI   GL115845   6.225   8.361   5.663 -0.0109 -0.2383  0.2458
 1054loPI   GL215846   6.197   8.138   5.868 -0.1118 -0.0592  0.0359
 1054loPI   C1A15847   5.995   8.545   6.078 -0.0857 -0.3176  0.1285
 1054loPI   C2A15848   5.872   8.446   6.540 -0.0764  0.2102 -0.0842
 1054loPI   C3A15849   5.799   8.443   6.931  0.2093  0.2472 -0.2448
 1054loPI   C4A15850   5.565   8.248   7.248  0.2214  0.3026 -0.0117
 1054loPI   C5A15851   5.263   7.916   7.386  0.2264  0.0337 -0.2923
 1054loPI   C6A15852   5.077   7.750   7.644  0.0617 -0.2488 -0.0172
 1054loPI   C1B15853   6.168   8.058   6.247  0.3438 -0.0442  0.1559
 1054loPI   C2B15854   6.054   8.011   6.752 -0.1099  0.0721  0.0100
 1054loPI   C3B15855   6.042   8.053   7.204  0.0339  0.1702  0.2077
 1054loPI   C4B15856   5.709   7.968   7.595  0.0498  0.2187  0.0363
 1055loPI    C115857   2.378  12.515   5.106  0.0149  0.2003 -0.1593
 1055loPI    C215858   2.061  12.551   4.865 -0.1511  0.5213  0.0984
 1055loPI    C315859   2.423  12.665   4.738 -0.0831 -0.0830 -0.2896
 1055loPI   PO415860   2.330  12.637   5.337 -0.1314  0.0204 -0.1888
 1055loPI   GL115861   2.271  12.564   5.823 -0.3421  0.2325  0.0982
 1055loPI   GL215862   2.548  12.313   5.804 -0.2106  0.1652 -0.1364
 1055loPI   C1A15863   2.367  12.860   6.035 -0.1761 -0.1228 -0.0130
 1055loPI   C2A15864   2.695  12.778   6.430  0.1969  0.1232 -0.1006
 1055loPI   C3A15865   2.963  12.669   6.777 -0.3138 -0.0168  0.3289
 1055loPI   C4A15866   2.975  12.689   7.227 -0.6098 -0.0126  0.1360
 1055loPI   C5A15867   3.159  12.968   7.452  0.3608  0.2713  0.0709
 1055loPI   C6A15868   3.545  12.966   7.689 -0.1906 -0.1085 -0.0338
 1055loPI   C1B15869   2.496  12.363   6.223 -0.1010 -0.3219 -0.1827
 1055loPI   C2B15870   2.764  12.203   6.632  0.0221 -0.2141 -0.0702
 1055loPI   C3B15871   2.584  12.333   7.098 -0.2154  0.0875 -0.0350
 1055loPI   C4B15872   2.379  12.610   7.341 -0.3019 -0.0065  0.0218
 1056loPI    C115873   9.115  18.151   5.087 -0.0975 -0.0382 -0.0887
 1056loPI    C215874   9.093  18.196   4.691  0.0505  0.0706 -0.0851
 1056loPI    C315875   9.450  18.184   4.871 -0.0175  0.0756  0.0509
 1056loPI   PO415876   8.960  17.953   5.175  0.1065  0.1391 -0.0550
 1056loPI   GL115877   8.739  17.852   5.446  0.5208 -0.4080 -0.1987
 1056loPI   GL215878   8.565  17.557   5.509 -0.1230  0.2211 -0.0166
 1056loPI   C1A15879   8.445  18.224   5.640  0.1570  0.0244  0.0006
 1056loPI   C2A15880   8.076  18.157   5.930 -0.0360  0.0933  0.1460
 1056loPI   C3A15881   8.086  17.711   6.175  0.0653  0.0474 -0.6169
 1056loPI   C4A15882   8.288  17.725   6.586 -0.0095 -0.0972  0.4494
 1056loPI   C5A15883   8.048  17.514   6.989 -0.1635 -0.0550  0.0185
 1056loPI   C6A15884   8.066  17.265   7.418 -0.0171  0.2703  0.1484
 1056loPI   C1B15885   8.525  17.557   5.962  0.1316  0.0627 -0.2450
 1056loPI   C2B15886   8.556  17.361   6.392  0.3673 -0.4418 -0.0670
 1056loPI   C3B15887   8.467  17.351   6.787  0.1152 -0.0532  0.1445
 1056loPI   C4B15888   8.406  17.081   7.072  0.0654  0.0824  0.0358
 1057loPI    C115889  13.799  17.465   5.107  0.0557  0.0242 -0.0778
 1057loPI    C215890  14.087  17.257   4.922  0.0697 -0.1711  0.1580
 1057loPI    C315891  13.715  17.259   4.774  0.0643 -0.3849  0.1660
 1057loPI   PO415892  13.755  17.417   5.368 -0.1805 -0.3359 -0.1239
 1057loPI   GL115893  13.498  17.330   5.716 -0.1435  0.1494 -0.0459
 1057loPI   GL215894  13.781  17.339   5.822 -0.0214 -0.0857  0.1535
 1057loPI   C1A15895  13.384  17.380   6.105 -0.1295 -0.0338  0.1628
 1057loPI   C2A15896  13.619  17.284   6.410 -0.0571  0.2167 -0.1467
 1057loPI   C3A15897  13.958  17.141   6.560 -0.0393 -0.4124  0.3866
 1057loPI   C4A15898  13.956  16.810   6.935  0.2017  0.1986 -0.1663
 1057loPI   C5A15899  13.789  16.925   7.296 -0.0469 -0.2109  0.1182
 1057loPI   C6A15900  13.819  17.209   7.570  0.1588  0.1629  0.0059
 1057loPI   C1B15901  13.920  17.469   6.123  0.4007  0.1114 -0.2826
 1057loPI   C2B15902  14.118  17.693   6.501  0.0511 -0.1663  0.0807
 1057loPI   C3B15903  14.160  17.697   6.967 -0.2447  0.1990  0.3051
 1057loPI   C4B15904  14.214  17.489   7.416  0.2981  0.0766 -0.1003
 1058loPI    C115905  14.698   0.465   4.984 -0.0443  0.0453  0.0517
 1058loPI    C215906  14.615   0.352   4.609  0.0032  0.1752  0.0016
 1058loPI    C315907  14.992   0.342   4.743 -0.0235  0.0600  0.0695
 1058loPI   PO415908  14.468   0.305   5.171  0.0504 -0.2440  0.2535
 1058loPI   GL115909  14.591   0.158   5.564 -0.1251 -0.3556  0.2296
 1058loPI   GL215910  14.774   0.338   5.566 -0.1141  0.2493 -0.0397
 1058loPI   C1A15911  14.571  -0.183   5.800  0.2084 -0.0973  0.2115
 1058loPI   C2A15912  14.518  -0.310   6.194  0.2985 -0.1017 -0.2824
 1058loPI   C3A15913  14.417  -0.529   6.716 -0.2129  0.0580  0.1055
 1058loPI   C4A15914  14.396  -0.453   7.112 -0.2338  0.1081 -0.0732
 1058loPI   C5A15915  14.136  -0.566   7.395 -0.2867  0.2441 -0.0051
 1058loPI   C6A15916  13.997  -0.851   7.626 -0.2063  0.1809 -0.0551
 1058loPI   C1B15917  14.719   0.568   6.015 -0.5213 -0.0121 -0.1945
 1058loPI   C2B15918  14.732   0.555   6.455 -0.2807  0.2116  0.1348
 1058loPI   C3B15919  14.822   0.712   6.843  0.3753  0.4033  0.0840
 1058loPI   C4B15920  14.984   0.837   7.163 -0.1795  0.2114  0.1953
 1059loPI    C115921  17.685   5.499   5.505  0.1101  0.0723 -0.1761
 1059loPI    C215922  17.736   5.444   5.112  0.1040 -0.0100 -0.1655
 1059loPI    C315923  17.377   5.385   5.278  0.1065  0.0255 -0.1474
 1059loPI   PO415924  17.900   5.381   5.628  0.0935  0.1966 -0.0425
 1059loPI   GL115925  17.872   5.253   6.061  0.0702 -0.1701  0.0887
 1059loPI   GL215926  17.659   5.396   6.150 -0.1022  0.0388 -0.0815
 1059loPI   C1A15927  17.992   5.273   6.541 -0.0741  0.1710  0.0616
 1059loPI   C2A15928  18.025   5.352   6.985 -0.3344  0.0067  0.2251
 1059loPI   C3A15929  17.967   5.324   7.322 -0.3296  0.1336 -0.1246
 1059loPI   C4A15930  18.151   5.629   7.657 -0.1978 -0.2267  0.0705
 1059loPI   C5A15931  18.374   5.398   8.045 -0.0832 -0.0248  0.2286
 1059loPI   C6A15932  18.334   5.137   8.276  0.0225 -0.1126 -0.1468
 1059loPI   C1B15933  17.297   5.462   6.361  0.1013  0.1713 -0.1909
 1059loPI   C2B15934  17.234   5.560   6.749  0.2612  0.2100 -0.0006
 1059loPI   C3B15935  17.316   5.512   7.199  0.0012 -0.0665 -0.0473
 1059loPI   C4B15936  17.554   5.476   7.558 -0.0651  0.3738 -0.0603
 1060loPI    C115937   2.312   8.593   4.492  0.0164  0.1952 -0.4414
 1060loPI    C215938   2.712   8.570   4.499  0.0022 -0.0287 -0.1082
 1060loPI    C315939   2.532   8.872   4.309  0.3307  0.1240 -0.1833
 1060loPI   PO415940   2.308   8.491   4.811 -0.2213 -0.0088 -0.0851
 1060loPI   GL115941   2.333   8.455   5.268 -0.0012 -0.0153 -0.0657
 1060loPI   GL215942   2.304   8.240   5.498 -0.0728 -0.2839  0.2550
 1060loPI   C1A15943   2.712   8.563   5.547 -0.2655 -0.3075  0.0767
 1060loPI   C2A15944   2.828   8.849   5.946  0.0860  0.0087  0.3051
 1060loPI   C3A15945   2.878   9.043   6.309 -0.1501 -0.3290  0.1793
 1060loPI   C4A15946   2.882   8.976   6.769  0.1275  0.1260  0.0773
 1060loPI   C5A15947   2.926   9.203   7.136  0.1189  0.2023 -0.3596
 1060loPI   C6A15948   2.884   9.238   7.621 -0.3106  0.1908 -0.0744
 1060loPI   C1B15949   2.610   8.132   5.702  0.1147  0.1162 -0.0396
 1060loPI   C2B15950   2.751   8.225   6.057 -0.4183  0.1968  0.3040
 1060loPI   C3B15951   2.821   8.302   6.565 -0.1004 -0.0584  0.1247
 1060loPI   C4B15952   2.876   8.165   7.076  0.1937  0.0097 -0.0183
 1061loPI    C115953  14.356   8.235   5.353 -0.0101 -0.3266 -0.0048
 1061loPI    C215954  14.024   8.407   5.211  0.1122 -0.0407  0.0477
 1061loPI    C315955  14.301   8.268   4.959  0.1664  0.1458  0.0032
 1061loPI   PO415956  14.322   8.357   5.594  0.0444  0.4426 -0.2142
 1061loPI   GL115957  14.122   8.579   5.889  0.1264  0.1297  0.0705
 1061loPI   GL215958  14.262   8.407   6.183  0.0493 -0.0745  0.1736
 1061loPI   C1A15959  13.814   8.606   6.172  0.3839  0.1809 -0.2118
 1061loPI   C2A15960  13.654   8.571   6.587 -0.0756 -0.0751 -0.0841
 1061loPI   C3A15961  13.537   8.542   7.007  0.2520  0.0593  0.2187
 1061loPI   C4A15962  13.529   8.257   7.328 -0.1630 -0.2639 -0.3230
 1061loPI   C5A15963  13.425   8.383   7.734 -0.3097 -0.0759  0.2312
 1061loPI   C6A15964  13.574   8.112   8.148  0.1745  0.1366  0.0019
 1061loPI   C1B15965  14.183   8.471   6.577 -0.1490 -0.1146 -0.0918
 1061loPI   C2B15966  14.034   8.416   6.939 -0.0456  0.0175 -0.1444
 1061loPI   C3B15967  13.969   8.515   7.353  0.1155  0.1121 -0.0232
 1061loPI   C4B15968  14.291   8.457   7.652 -0.0363 -0.1489 -0.0171
 1062loPI    C115969   8.857  16.155   4.980  0.0969 -0.1838  0.2095
 1062loPI    C215970   8.544  16.214   4.738  0.0217  0.1661  0.3845
 1062loPI    C315971   8.863  16.011   4.607 -0.0767  0.2257  0.0427
 1062loPI   PO415972   8.704  16.163   5.245 -0.0746 -0.1161  0.3742
 1062loPI   GL115973   8.462  16.411   5.559  0.2473 -0.0311  0.1102
 1062loPI   GL215974   8.217  16.560   5.502 -0.0301  0.0758  0.2759
 1062loPI   C1A15975   8.547  16.377   5.952 -0.1788  0.0196  0.1673
 1062loPI   C2A15976   8.564  16.352   6.447 -0.1656  0.1038 -0.0295
 1062loPI   C3A15977   8.692  16.055   6.672  0.1018 -0.2825  0.1260
 1062loPI   C4A15978   8.726  15.894   7.078  0.0602 -0.1367  0.1204
 1062loPI   C5A15979   8.958  15.800   7.540  0.4326  0.2057  0.3929
 1062loPI   C6A15980   9.008  15.741   7.934 -0.2565 -0.1347  0.2109
 1062loPI   C1B15981   8.130  16.693   5.922  0.1060  0.1644  0.3412
 1062loPI   C2B15982   8.100  16.651   6.357 -0.0178 -0.1382  0.1827
 1062loPI   C3B15983   8.211  16.521   6.794 -0.0816 -0.3956  0.0857
 1062loPI   C4B15984   7.998  16.247   7.100 -0.1288  0.0051  0.2297
 1063loPI    C115985   7.972  11.401   4.928 -0.1549  0.0371 -0.0980
 1063loPI    C215986   8.320  11.427   4.732 -0.0664  0.1325  0.0681
 1063loPI    C315987   7.980  11.544   4.555  0.0161  0.2440 -0.0176
 1063loPI   PO415988   8.030  11.524   5.159 -0.1846 -0.2378  0.0335
 1063loPI   GL115989   7.869  11.630   5.610  0.0142  0.0345  0.1682
 1063loPI   GL215990   8.190  11.621   5.711  0.1049  0.1431  0.0817
 1063loPI   C1A15991   7.790  11.686   6.020 -0.0586  0.1228  0.0719
 1063loPI   C2A15992   7.673  11.582   6.376  0.2999  0.0235  0.2757
 1063loPI   C3A15993   7.468  11.524   6.740  0.3459 -0.3365 -0.1612
 1063loPI   C4A15994   7.485  11.763   7.167  0.1443 -0.0025 -0.0975
 1063loPI   C5A15995   7.386  11.868   7.568 -0.2088 -0.1301  0.0215
 1063loPI   C6A15996   7.356  12.268   7.586 -0.1326  0.2150 -0.0298
 1063loPI   C1B15997   8.274  11.664   6.080 -0.1568 -0.2681  0.1991
 1063loPI   C2B15998   8.140  11.619   6.476 -0.2564  0.1823  0.0494
 1063loPI   C3B15999   8.360  11.325   6.860 -0.0636 -0.0507  0.0054
 1063loPI   C4B16000   8.267  11.049   7.165  0.2414  0.2756  0.4404
 1064loPI    C116001  15.567   8.334   5.743  0.1687 -0.2137 -0.0018
 1064loPI    C216002  15.199   8.467   5.662  0.1215 -0.1072  0.3688
 1064loPI    C316003  15.313   8.104   5.537 -0.1234 -0.1584  0.2880
 1064loPI   PO416004  15.618   8.361   5.987  0.1790 -0.2003 -0.1145
 1064loPI   GL116005  15.710   8.341   6.456 -0.2892 -0.1565 -0.0664
 1064loPI   GL216006  16.046   8.455   6.282  0.4279 -0.0278 -0.0876
 1064loPI   C1A16007  15.972   8.338   6.829 -0.1365  0.1743  0.0829
 1064loPI   C2A16008  16.113   8.307   7.264  0.1746  0.2458  0.3849
 1064loPI   C3A16009  16.075   8.307   7.671  0.0232 -0.3283 -0.1561
 1064loPI   C4A16010  16.196   8.304   8.113  0.0617  0.0107  0.2338
 1064loPI   C5A16011  16.425   8.437   8.441  0.0494 -0.0302  0.4351
 1064loPI   C6A16012  16.494   8.899   8.376 -0.3751 -0.0315  0.0313
 1064loPI   C1B16013  16.084   8.792   6.643 -0.2711  0.0080  0.0776
 1064loPI   C2B16014  16.107   8.841   7.052  0.1140 -0.0515  0.2750
 1064loPI   C3B16015  16.066   8.810   7.489 -0.0476  0.0328  0.0189
 1064loPI   C4B16016  16.303   8.967   7.888 -0.0509 -0.2671  0.2103
 1065loPI    C116017   1.700   0.605   5.423  0.1152  0.0400 -0.0082
 1065loPI    C216018   1.856   0.874   5.171  0.1080  0.1467  0.1004
 1065loPI    C316019   1.806   0.495   5.053  0.0984  0.1974 -0.0606
 1065loPI   PO416020   1.533   0.743   5.505  0.0431  0.0752  0.0341
 1065loPI   GL116021   1.170   0.535   5.742 -0.3574  0.1326 -0.0228
 1065loPI   GL216022   1.140   0.274   5.907 -0.1472 -0.1181  0.2745
 1065loPI   C1A16023   1.085   0.742   6.166  0.3313 -0.1784 -0.0469
 1065loPI   C2A16024   0.978   1.012   6.645 -0.1679  0.0612  0.0125
 1065loPI   C3A16025   1.005   1.093   7.069 -0.0379 -0.1608  0.0530
 1065loPI   C4A16026   1.075   0.996   7.510  0.0343  0.0442  0.3087
 1065loPI   C5A16027   1.197   0.700   7.792 -0.2123 -0.2660  0.0812
 1065loPI   C6A16028   1.393   0.524   8.113  0.0684  0.0341  0.2464
 1065loPI   C1B16029   1.213   0.331   6.347  0.0022 -0.1527 -0.2262
 1065loPI   C2B16030   1.229   0.654   6.754 -0.1823  0.0268 -0.1910
 1065loPI   C3B16031   1.195   0.509   7.192 -0.0205 -0.1138  0.0629
 1065loPI   C4B16032   1.348   0.296   7.460  0.0078  0.5334 -0.5384
 1066loPI    C116033   5.889   1.432   5.040 -0.1429 -0.0779 -0.0145
 1066loPI    C216034   5.665   1.758   4.977 -0.1106 -0.0875 -0.1843
 1066loPI    C316035   5.652   1.453   4.718  0.1419 -0.0638 -0.2271
 1066loPI   PO416036   5.885   1.356   5.310 -0.0695  0.3179  0.3295
 1066loPI   GL116037   6.278   1.210   5.642 -0.1358 -0.1807 -0.1104
 1066loPI   GL216038   6.447   1.035   5.480 -0.3516  0.1306  0.1660
 1066loPI   C1A16039   6.400   1.242   6.112  0.0579  0.0220  0.5544
 1066loPI   C2A16040   6.405   1.368   6.572 -0.1085  0.2755 -0.1570
 1066loPI   C3A16041   6.634   1.564   7.010 -0.0073 -0.0555  0.1345
 1066loPI   C4A16042   6.635   1.642   7.479 -0.4440 -0.0647 -0.2019
 1066loPI   C5A16043   7.077   1.648   7.720  0.2044 -0.2141  0.1578
 1066loPI   C6A16044   7.207   1.374   8.044 -0.2706  0.3254  0.0833
 1066loPI   C1B16045   6.353   0.747   5.859 -0.2482  0.1839 -0.0008
 1066loPI   C2B16046   6.499   0.424   6.090 -0.2133 -0.0191  0.5700
 1066loPI   C3B16047   6.560   0.298   6.541 -0.1485 -0.0175  0.1097
 1066loPI   C4B16048   6.729   0.230   6.901  0.1032  0.0637  0.0140
 1067loPI    C116049  10.911   6.569   5.521 -0.0501  0.1302 -0.1161
 1067loPI    C216050  10.932   6.949   5.644 -0.0433  0.1231 -0.0952
 1067loPI    C316051  11.203   6.807   5.385 -0.2425  0.2277 -0.3664
 1067loPI   PO416052  10.757   6.479   5.793 -0.1269 -0.2007 -0.0448
 1067loPI   GL116053  10.749   6.300   6.220 -0.1173 -0.1810  0.2116
 1067loPI   GL216054  10.949   6.504   6.313  0.1063 -0.0948  0.4675
 1067loPI   C1A16055  10.448   6.348   6.564 -0.1750 -0.0912 -0.0035
 1067loPI   C2A16056  10.459   6.283   6.944  0.1888  0.0832  0.1159
 1067loPI   C3A16057  10.119   6.206   7.153 -0.0594  0.0433 -0.0041
 1067loPI   C4A16058   9.704   6.087   7.494  0.0815 -0.3154  0.1164
 1067loPI   C5A16059   9.430   5.820   7.408  0.1395 -0.1674 -0.1981
 1067loPI   C6A16060   8.961   5.769   7.502  0.1775  0.0707  0.0027
 1067loPI   C1B16061  10.912   6.234   6.697 -0.1912  0.3213  0.1881
 1067loPI   C2B16062  10.907   6.009   7.123  0.2278 -0.2934 -0.1844
 1067loPI   C3B16063  10.640   6.244   7.413 -0.5329 -0.1267  0.1348
 1067loPI   C4B16064  10.459   6.629   7.620 -0.0713  0.1380 -0.1883
 1068loPI    C116065   5.387  15.003   5.000 -0.0097 -0.0830 -0.0566
 1068loPI    C216066   5.424  15.351   5.193 -0.1812 -0.0050 -0.1613
 1068loPI    C316067   5.422  15.343   4.793 -0.2105 -0.1232 -0.1593
 1068loPI   PO416068   5.447  14.732   5.266 -0.0828 -0.2044  0.2277
 1068loPI   GL116069   5.875  14.566   5.519  0.3092 -0.1304  0.3326
 1068loPI   GL216070   5.712  14.384   5.603  0.0693 -0.0970 -0.2948
 1068loPI   C1A16071   6.085  14.383   5.962  0.2119  0.0817 -0.1431
 1068loPI   C2A16072   6.066  14.371   6.367  0.2247  0.1711 -0.2314
 1068loPI   C3A16073   5.831  14.337   6.848 -0.0525  0.3461 -0.1081
 1068loPI   C4A16074   5.525  14.197   7.116 -0.0293 -0.0458  0.0010
 1068loPI   C5A16075   5.215  13.993   7.314  0.2094 -0.0608  0.0080
 1068loPI   C6A16076   4.893  14.317   7.494 -0.2287 -0.1549 -0.1758
 1068loPI   C1B16077   5.624  14.286   6.052 -0.2427 -0.0376 -0.2483
 1068loPI   C2B16078   5.533  14.306   6.481  0.1016 -0.0869 -0.1867
 1068loPI   C3B16079   5.208  14.120   6.776  0.2307 -0.0473  0.1517
 1068loPI   C4B16080   4.941  14.155   6.980 -0.0902  0.0867  0.0703
 1069loPI    C116081  18.598   3.148   5.419  0.2891 -0.1092  0.0057
 1069loPI    C216082  18.736   3.448   5.194 -0.0734 -0.0362 -0.1259
 1069loPI    C316083  18.450   3.208   5.053  0.0765 -0.3265  0.0538
 1069loPI   PO416084  18.682   3.272   5.665 -0.0375 -0.1978 -0.1908
 1069loPI   GL116085  18.639   3.187   6.096  0.0963 -0.0027  0.2263
 1069loPI   GL216086  18.719   3.571   6.052 -0.1223 -0.1829 -0.0631
 1069loPI   C1A16087  18.578   3.231   6.452 -0.0836 -0.0101 -0.0079
 1069loPI   C2A16088  18.484   3.431   6.733  0.1707  0.2275 -0.1071
 1069loPI   C3A16089  18.674   3.544   7.155  0.0793 -0.0558 -0.1286
 1069loPI   C4A16090  18.710   3.594   7.645 -0.0565 -0.2103  0.4767
 1069loPI   C5A16091  18.711   3.734   8.126  0.2069  0.0084  0.1284
 1069loPI   C6A16092  18.402   3.955   8.463  0.1106  0.0023  0.1158
 1069loPI   C1B16093  18.964   3.688   6.389  0.4107  0.3279 -0.0975
 1069loPI   C2B16094  19.016   3.596   6.812 -0.2225  0.0133  0.1341
 1069loPI   C3B16095  19.179   3.447   7.179 -0.1917  0.1131  0.1714
 1069loPI   C4B16096  19.400   3.510   7.517 -0.1131  0.2891 -0.3750
 1070loPI    C116097   5.129   5.645   5.045  0.2605 -0.0771  0.1353
 1070loPI    C216098   5.420   5.707   4.779 -0.0154  0.1394 -0.1240
 1070loPI    C316099   5.128   5.447   4.697 -0.0909  0.1925 -0.0240
 1070loPI   PO416100   5.079   5.880   5.177 -0.0857 -0.0554  0.1248
 1070loPI   GL116101   5.201   5.977   5.561  0.1317  0.1758 -0.1003
 1070loPI   GL216102   5.118   5.650   5.764  0.0400  0.1223 -0.1371
 1070loPI   C1A16103   5.001   6.162   5.977  0.1213  0.0082 -0.1173
 1070loPI   C2A16104   4.791   6.187   6.351 -0.2162 -0.2485  0.1645
 1070loPI   C3A16105   4.676   6.193   6.696  0.0822 -0.0428 -0.5028
 1070loPI   C4A16106   4.437   6.171   7.006  0.1605  0.0223  0.1445
 1070loPI   C5A16107   4.327   6.158   7.365 -0.3200  0.0374  0.1857
 1070loPI   C6A16108   4.483   6.360   7.805 -0.0653 -0.3532 -0.0844
 1070loPI   C1B16109   5.030   5.646   6.174 -0.1125 -0.0323  0.0923
 1070loPI   C2B16110   5.051   5.717   6.638  0.0017  0.0011 -0.1575
 1070loPI   C3B16111   5.029   5.841   7.032  0.1138  0.1128 -0.2530
 1070loPI   C4B16112   4.820   6.013   7.310  0.0639 -0.2011  0.0071
 1071loPI    C116113   3.763  11.734   5.436  0.0159 -0.0938  0.0673
 1071loPI    C216114   3.379  11.624   5.406  0.0082 -0.0183 -0.1268
 1071loPI    C316115   3.576  11.752   5.082  0.0906  0.2970  0.0435
 1071loPI   PO416116   3.777  11.905   5.538 -0.2480 -0.0534 -0.2642
 1071loPI   GL116117   4.037  11.894   5.807  0.3856  0.0136 -0.4746
 1071loPI   GL216118   4.138  12.177   5.850  0.0282  0.0712 -0.1365
 1071loPI   C1A16119   3.924  11.629   6.199 -0.1098 -0.3684 -0.0670
 1071loPI   C2A16120   4.000  11.777   6.633  0.0413 -0.1420 -0.0700
 1071loPI   C3A16121   4.067  11.802   7.067  0.1744  0.1063  0.0578
 1071loPI   C4A16122   4.358  11.616   7.290  0.1822 -0.1313  0.0772
 1071loPI   C5A16123   4.510  11.355   7.654 -0.0942  0.0047 -0.1243
 1071loPI   C6A16124   4.838  11.189   7.869  0.2680  0.1909  0.4536
 1071loPI   C1B16125   4.267  12.044   6.285  0.0929 -0.3283  0.1495
 1071loPI   C2B16126   4.253  12.168   6.705 -0.0312 -0.1213 -0.0255
 1071loPI   C3B16127   4.237  12.457   7.065  0.1325  0.2759 -0.1650
 1071loPI   C4B16128   4.379  12.448   7.520  0.3463  0.1136 -0.2534
 1072loPI    C116129   0.451  10.441   5.051  0.2634  0.0610  0.0490
 1072loPI    C216130   0.368  10.111   4.840 -0.1453  0.0669  0.1906
 1072loPI    C316131   0.451  10.453   4.651 -0.1780 -0.0069  0.0414
 1072loPI   PO416132   0.302  10.419   5.199  0.1580  0.0326 -0.0561
 1072loPI   GL116133   0.399  10.609   5.605  0.4623 -0.0085  0.0460
 1072loPI   GL216134   0.317  10.321   5.733 -0.0359 -0.0028 -0.0128
 1072loPI   C1A16135   0.341  10.626   6.173 -0.1877  0.2644 -0.0318
 1072loPI   C2A16136   0.333  10.805   6.592  0.4284  0.2885 -0.0413
 1072loPI   C3A16137   0.414  10.699   7.023  0.0147 -0.0830  0.2120
 1072loPI   C4A16138   0.070  10.726   7.434 -0.0150 -0.0926 -0.1127
 1072loPI   C5A16139   0.003  11.096   7.609  0.1346 -0.1969 -0.2223
 1072loPI   C6A16140  -0.377  11.324   7.820  0.1722 -0.0709  0.0320
 1072loPI   C1B16141   0.505  10.123   6.074  0.0593  0.1280  0.1641
 1072loPI   C2B16142   0.224  10.013   6.364 -0.0628  0.0591 -0.0800
 1072loPI   C3B16143   0.085  10.055   6.715 -0.0049 -0.3912 -0.0738
 1072loPI   C4B16144   0.146  10.233   7.133  0.0860  0.1603  0.0507
 1073loPI    C116145   2.984  17.710   4.950 -0.0118  0.3273  0.1380
 1073loPI    C216146   2.636  17.699   4.752 -0.0129  0.2475  0.1437
 1073loPI    C316147   2.916  17.967   4.652  0.0131  0.1640 -0.0104
 1073loPI   PO416148   2.987  17.709   5.170 -0.1064 -0.0296 -0.0118
 1073loPI   GL116149   2.923  17.740   5.540  0.0241  0.2568 -0.1266
 1073loPI   GL216150   3.173  17.623   5.741 -0.0084 -0.0831 -0.3589
 1073loPI   C1A16151   2.747  17.832   5.857 -0.4977 -0.0278 -0.0043
 1073loPI   C2A16152   2.683  17.948   6.215  0.4282  0.0540  0.1710
 1073loPI   C3A16153   2.684  18.108   6.613 -0.0822 -0.1348  0.0620
 1073loPI   C4A16154   2.636  18.030   7.041  0.2405  0.1709  0.0960
 1073loPI   C5A16155   2.815  17.732   7.372  0.0589 -0.0872 -0.0032
 1073loPI   C6A16156   2.922  17.349   7.507  0.2177 -0.1580  0.2834
 1073loPI   C1B16157   3.208  17.368   6.097 -0.2296  0.0678 -0.2060
 1073loPI   C2B16158   3.367  17.434   6.534  0.6095  0.0008  0.1882
 1073loPI   C3B16159   3.706  17.125   6.500  0.2019  0.1908  0.0487
 1073loPI   C4B16160   3.810  16.720   6.691  0.0404  0.0304 -0.2767
 1074loPI    C116161   8.114   9.322   5.531  0.0172  0.0162  0.1556
 1074loPI    C216162   8.469   9.473   5.636  0.0760 -0.0586  0.0661
 1074loPI    C316163   8.291   9.597   5.300  0.0791 -0.1169  0.0427
 1074loPI   PO416164   7.989   9.332   5.849  0.4211 -0.3251  0.2051
 1074loPI   GL116165   8.063   9.616   6.129 -0.2639 -0.1059 -0.1380
 1074loPI   GL216166   8.195   9.359   6.379  0.1038  0.1198  0.1722
 1074loPI   C1A16167   7.818   9.970   6.396  0.3366  0.1536 -0.0071
 1074loPI   C2A16168   7.998  10.194   6.703  0.0632 -0.0265  0.1183
 1074loPI   C3A16169   8.021  10.143   7.082 -0.3004 -0.1206 -0.2667
 1074loPI   C4A16170   7.991   9.951   7.468  0.2352 -0.2554 -0.0494
 1074loPI   C5A16171   7.864   9.884   7.882 -0.0035  0.0295  0.0532
 1074loPI   C6A16172   7.513   9.735   8.230 -0.1510 -0.0338  0.0693
 1074loPI   C1B16173   8.072   9.603   6.654  0.2742  0.1444 -0.0122
 1074loPI   C2B16174   7.996   9.681   7.031 -0.0478  0.1836 -0.1811
 1074loPI   C3B16175   7.885   9.443   7.423 -0.0914  0.1146  0.1701
 1074loPI   C4B16176   7.792   9.407   7.813  0.0431  0.0766  0.1008
 1075loPI    C116177   9.260  16.858   4.850 -0.0317  0.1028 -0.0395
 1075loPI    C216178   8.904  17.035   4.805 -0.0899 -0.0352 -0.1324
 1075loPI    C316179   8.959  16.661   4.675 -0.0131 -0.1417  0.1966
 1075loPI   PO416180   9.327  16.985   5.123  0.0280 -0.0686 -0.2080
 1075loPI   GL116181   9.347  16.970   5.524 -0.1957  0.1623  0.0573
 1075loPI   GL216182   9.545  16.819   5.659 -0.3524 -0.0364 -0.0551
 1075loPI   C1A16183   9.013  17.005   5.809 -0.0164  0.1766  0.0598
 1075loPI   C2A16184   8.947  17.079   6.321  0.1158  0.2694 -0.0847
 1075loPI   C3A16185   8.855  17.087   6.693 -0.1768 -0.0950 -0.0350
 1075loPI   C4A16186   8.960  17.300   7.056 -0.0242  0.1315  0.2019
 1075loPI   C5A16187   8.961  17.510   7.514  0.0128  0.0782 -0.1545
 1075loPI   C6A16188   8.779  17.838   7.910  0.1623 -0.0528  0.0178
 1075loPI   C1B16189   9.476  16.757   5.993  0.0735 -0.1202 -0.0517
 1075loPI   C2B16190   9.416  16.908   6.403 -0.0643  0.1228  0.0331
 1075loPI   C3B16191   9.235  16.807   6.803 -0.2316  0.3777  0.0362
 1075loPI   C4B16192   9.483  16.560   7.131 -0.1740  0.1228 -0.0225
 1076loPI    C116193  11.844   7.702   5.464  0.1035 -0.1492 -0.0329
 1076loPI    C216194  11.751   7.357   5.285 -0.1806 -0.0843 -0.0153
 1076loPI    C316195  11.546   7.689   5.197  0.0817  0.0785 -0.0215
 1076loPI   PO416196  11.820   7.641   5.777  0.2067 -0.1118 -0.0928
 1076loPI   GL116197  11.940   7.861   6.181  0.4070 -0.3965 -0.0588
 1076loPI   GL216198  12.212   7.805   6.025  0.1813 -0.0977  0.1841
 1076loPI   C1A16199  11.828   7.947   6.541 -0.1488  0.2297  0.1138
 1076loPI   C2A16200  11.971   7.566   6.822 -0.0278  0.2676  0.0344
 1076loPI   C3A16201  11.944   7.241   6.945 -0.1282 -0.2402  0.0237
 1076loPI   C4A16202  11.984   7.016   7.322 -0.0164 -0.3907  0.0993
 1076loPI   C5A16203  12.259   7.228   7.526 -0.1492 -0.1065  0.1298
 1076loPI   C6A16204  12.494   7.321   7.853  0.0304  0.0124  0.4437
 1076loPI   C1B16205  12.329   7.774   6.459 -0.0225 -0.0621  0.1634
 1076loPI   C2B16206  12.297   7.887   6.852 -0.1997 -0.0476  0.0362
 1076loPI   C3B16207  12.280   7.907   7.281  0.1476 -0.3356 -0.1817
 1076loPI   C4B16208  12.394   7.912   7.723 -0.4200 -0.0332 -0.1205
 1077loPI    C116209   7.476   1.214   4.878  0.1014  0.0667 -0.1384
 1077loPI    C216210   7.123   1.337   4.734  0.0558  0.2892  0.1536
 1077loPI    C316211   7.455   1.546   4.656  0.1161  0.1152 -0.0674
 1077loPI   PO416212   7.444   1.068   5.102  0.1915 -0.0700 -0.3006
 1077loPI   GL116213   7.541   1.050   5.543  0.1031 -0.2230 -0.1584
 1077loPI   GL216214   7.406   1.295   5.545 -0.0470 -0.0446 -0.0997
 1077loPI   C1A16215   7.510   0.842   5.961 -0.0730  0.5369  0.0511
 1077loPI   C2A16216   7.483   0.915   6.383 -0.2957 -0.0833 -0.2184
 1077loPI   C3A16217   7.294   0.902   6.777 -0.3628 -0.1789  0.1163
 1077loPI   C4A16218   7.301   1.069   7.147  0.1831 -0.1077 -0.1297
 1077loPI   C5A16219   7.279   1.115   7.601  0.1445 -0.0137 -0.1091
 1077loPI   C6A16220   7.200   0.845   7.971  0.2705 -0.2823  0.1486
 1077loPI   C1B16221   7.313   1.314   5.952 -0.2158  0.0497 -0.2338
 1077loPI   C2B16222   7.514   1.410   6.334 -0.1131 -0.0311  0.0273
 1077loPI   C3B16223   7.845   1.594   6.604 -0.1375 -0.1081 -0.0657
 1077loPI   C4B16224   7.830   1.617   7.035  0.1137 -0.0900  0.0685
 1078loPI    C116225   3.375  14.467   4.959  0.0262  0.0607  0.1378
 1078loPI    C216226   3.348  14.795   4.731  0.1232 -0.0538 -0.0418
 1078loPI    C316227   3.654  14.543   4.682  0.0773 -0.1448  0.1314
 1078loPI   PO416228   2.986  14.464   5.057  0.1867  0.0133 -0.3840
 1078loPI   GL116229   3.073  14.432   5.488  0.4079 -0.1020  0.0692
 1078loPI   GL216230   3.167  14.162   5.777  0.1443  0.1754  0.0066
 1078loPI   C1A16231   3.183  14.726   5.879  0.0584  0.3023  0.1612
 1078loPI   C2A16232   3.311  15.023   6.291 -0.0791 -0.0066 -0.3678
 1078loPI   C3A16233   3.401  15.392   6.433  0.1624  0.1279  0.0300
 1078loPI   C4A16234   3.078  15.520   6.752 -0.0854  0.0958  0.1635
 1078loPI   C5A16235   3.006  15.234   7.179 -0.0593 -0.0102 -0.2867
 1078loPI   C6A16236   2.661  15.195   7.462 -0.0831  0.2108 -0.0036
 1078loPI   C1B16237   2.871  14.150   6.105  0.1785  0.1949 -0.0133
 1078loPI   C2B16238   2.598  14.341   6.335 -0.2855 -0.0173  0.2627
 1078loPI   C3B16239   2.561  14.425   6.815 -0.1125  0.0205 -0.1160
 1078loPI   C4B16240   2.693  14.823   7.080 -0.0135 -0.0130  0.0961
 1079loPI    C116241   9.636  13.826   5.107  0.0156 -0.2451 -0.1910
 1079loPI    C216242   9.540  13.704   4.738  0.1402 -0.0710 -0.2823
 1079loPI    C316243   9.736  14.049   4.790  0.1676 -0.1191 -0.0561
 1079loPI   PO416244   9.529  13.627   5.258 -0.1708 -0.1266 -0.0718
 1079loPI   GL116245   9.681  13.550   5.742 -0.0232  0.0446  0.0182
 1079loPI   GL216246   9.461  13.613   5.994 -0.0230 -0.0433  0.1129
 1079loPI   C1A16247  10.068  13.614   5.945  0.0352  0.0787  0.2328
 1079loPI   C2A16248  10.082  13.594   6.421 -0.0538 -0.1627  0.0691
 1079loPI   C3A16249  10.173  13.759   6.787  0.1182 -0.1401 -0.1208
 1079loPI   C4A16250  10.124  13.925   7.099  0.0451 -0.1680 -0.0459
 1079loPI   C5A16251   9.978  13.773   7.428  0.2978 -0.4113 -0.1632
 1079loPI   C6A16252   9.963  13.458   7.773 -0.0002  0.0742 -0.0508
 1079loPI   C1B16253   9.499  13.548   6.362  0.3070  0.2915  0.0333
 1079loPI   C2B16254   9.713  13.465   6.799 -0.0810 -0.1338  0.3314
 1079loPI   C3B16255   9.579  13.268   7.222 -0.0713 -0.2406 -0.1700
 1079loPI   C4B16256   9.161  13.183   7.145 -0.0333 -0.0555 -0.0581
 1080loPI    C116257   3.558   1.901   5.214 -0.0189  0.1119 -0.2197
 1080loPI    C216258   3.194   1.756   5.297 -0.0225  0.2692  0.0497
 1080loPI    C316259   3.383   1.644   4.962 -0.0716 -0.2681  0.1936
 1080loPI   PO416260   3.730   1.783   5.429  0.2394  0.2638  0.0339
 1080loPI   GL116261   4.056   1.895   5.814  0.0906  0.0849 -0.1447
 1080loPI   GL216262   3.762   1.658   5.934 -0.2496 -0.2018 -0.0289
 1080loPI   C1A16263   3.951   2.090   6.154  0.3021  0.1414 -0.1282
 1080loPI   C2A16264   4.113   2.240   6.570 -0.4007  0.2714  0.1840
 1080loPI   C3A16265   4.260   2.533   6.866  0.1796 -0.0773  0.1094
 1080loPI   C4A16266   4.274   2.511   7.332 -0.1325 -0.1405  0.0398
 1080loPI   C5A16267   3.913   2.404   7.589 -0.1188  0.3704 -0.1140
 1080loPI   C6A16268   3.869   2.225   8.036 -0.0247 -0.1554 -0.0796
 1080loPI   C1B16269   3.950   1.574   6.234  0.2187 -0.0902  0.1993
 1080loPI   C2B16270   3.959   1.493   6.634 -0.1699 -0.1286  0.2826
 1080loPI   C3B16271   4.068   1.569   6.996  0.0363  0.0286 -0.2127
 1080loPI   C4B16272   3.892   1.695   7.383  0.0033  0.2591  0.0764
 1081loPI    C116273  11.930   4.842   5.071 -0.0306  0.0299  0.0692
 1081loPI    C216274  12.105   4.863   4.712  0.1433 -0.2845  0.1321
 1081loPI    C316275  11.899   5.175   4.853  0.0777 -0.1566 -0.2373
 1081loPI   PO416276  12.123   4.748   5.338  0.2329  0.0946 -0.1270
 1081loPI   GL116277  12.200   4.785   5.748 -0.4261 -0.0457  0.1626
 1081loPI   GL216278  11.829   4.567   5.751 -0.0088  0.0465 -0.0565
 1081loPI   C1A16279  12.117   4.654   6.139 -0.3235  0.1207 -0.1866
 1081loPI   C2A16280  12.097   4.720   6.573  0.4046 -0.1224  0.0410
 1081loPI   C3A16281  12.006   4.652   6.973 -0.1408  0.1258  0.0280
 1081loPI   C4A16282  12.296   4.528   7.305 -0.3253 -0.3339  0.0639
 1081loPI   C5A16283  12.511   4.318   7.598  0.2636  0.1023  0.2634
 1081loPI   C6A16284  12.563   3.881   7.680  0.1725  0.1235 -0.2596
 1081loPI   C1B16285  11.549   4.430   6.077 -0.0933 -0.3049  0.0066
 1081loPI   C2B16286  11.487   4.271   6.434  0.1558  0.1939 -0.0042
 1081loPI   C3B16287  11.504   4.218   6.931  0.2381  0.0597  0.0652
 1081loPI   C4B16288  11.761   4.340   7.321  0.0825  0.0752  0.2226
 1082loPI    C116289   0.611  12.420   4.905 -0.2582 -0.1339 -0.0839
 1082loPI    C216290   0.279  12.535   4.713 -0.1834  0.1515 -0.0477
 1082loPI    C316291   0.639  12.621   4.560 -0.1246  0.0020  0.0046
 1082loPI   PO416292   0.501  12.519   5.135 -0.1315 -0.0809  0.3474
 1082loPI   GL116293   0.418  12.799   5.427 -0.1007 -0.1687 -0.0965
 1082loPI   GL216294   0.192  12.579   5.602 -0.2197 -0.1701  0.0461
 1082loPI   C1A16295   0.774  12.814   5.761  0.3952 -0.2819  0.0216
 1082loPI   C2A16296   0.782  12.592   6.097 -0.1276  0.1615 -0.3885
 1082loPI   C3A16297   0.993  12.295   6.431  0.0692 -0.0812  0.0463
 1082loPI   C4A16298   1.126  12.401   6.898 -0.3001  0.0383  0.0237
 1082loPI   C5A16299   0.958  12.638   7.332 -0.1487 -0.2094  0.1694
 1082loPI   C6A16300   1.057  12.696   7.798 -0.1552  0.0466  0.0868
 1082loPI   C1B16301   0.271  12.497   5.946  0.1565  0.0104 -0.1786
 1082loPI   C2B16302   0.307  12.316   6.269  0.0855  0.1009 -0.1544
 1082loPI   C3B16303   0.558  11.979   6.500  0.2611  0.0399 -0.1253
 1082loPI   C4B16304   0.677  11.663   6.434 -0.0331  0.1888 -0.1309
 1083loPI    C116305   0.739   4.854   5.056  0.2370 -0.1109 -0.1950
 1083loPI    C216306   0.437   5.047   4.879  0.2593  0.0052 -0.1084
 1083loPI    C316307   0.540   4.680   4.756 -0.1482 -0.1840  0.0949
 1083loPI   PO416308   0.664   4.754   5.307  0.1065 -0.2326  0.2367
 1083loPI   GL116309   0.836   4.555   5.664 -0.1419  0.0621  0.2435
 1083loPI   GL216310   0.981   4.205   5.706  0.2412  0.0198  0.1245
 1083loPI   C1A16311   0.917   4.516   6.078 -0.1410 -0.0155 -0.0269
 1083loPI   C2A16312   0.991   4.243   6.478  0.0190 -0.4711 -0.0880
 1083loPI   C3A16313   1.063   4.094   6.894  0.2575  0.2844  0.1051
 1083loPI   C4A16314   1.190   3.957   7.396 -0.3125  0.1672 -0.1648
 1083loPI   C5A16315   1.289   3.555   7.577  0.2515  0.0160  0.0657
 1083loPI   C6A16316   1.116   3.198   7.503 -0.0446  0.1227 -0.1022
 1083loPI   C1B16317   1.174   4.115   5.962  0.1792 -0.1205  0.2098
 1083loPI   C2B16318   1.167   3.817   6.296  0.1813 -0.2219 -0.2993
 1083loPI   C3B16319   1.198   3.648   6.604  0.0643 -0.1545 -0.3226
 1083loPI   C4B16320   1.239   3.539   7.074  0.0382  0.0735  0.0703
 1084loPI    C116321  18.690  10.828   5.040  0.2582  0.2295 -0.0676
 1084loPI    C216322  18.310  10.944   4.997  0.1493  0.0109  0.2666
 1084loPI    C316323  18.601  11.138   4.804 -0.1691 -0.0852 -0.3359
 1084loPI   PO416324  18.700  10.794   5.354  0.2480 -0.2525  0.3375
 1084loPI   GL116325  18.672  10.772   5.787  0.1141 -0.3646  0.1154
 1084loPI   GL216326  18.447  10.613   5.832 -0.1334  0.0034 -0.1453
 1084loPI   C1A16327  18.785  11.059   6.198 -0.3299 -0.1791 -0.1299
 1084loPI   C2A16328  18.741  11.393   6.434  0.0530 -0.1955 -0.0827
 1084loPI   C3A16329  18.613  11.435   6.897  0.1044  0.0646  0.2040
 1084loPI   C4A16330  18.326  11.242   7.232  0.3016  0.1448  0.0360
 1084loPI   C5A16331  17.969  11.047   7.453  0.0668  0.0876  0.2190
 1084loPI   C6A16332  17.611  10.785   7.565 -0.2146 -0.2796  0.2037
 1084loPI   C1B16333  18.316  10.875   6.191 -0.4238 -0.1728 -0.0891
 1084loPI   C2B16334  18.439  11.039   6.529 -0.2528 -0.2655 -0.0177
 1084loPI   C3B16335  18.215  10.956   6.822  0.1297  0.1979 -0.2434
 1084loPI   C4B16336  17.858  10.809   7.021 -0.0853  0.0518  0.0520
 1085loPI    C116337  15.851  11.102   5.163  0.2526 -0.3820 -0.0554
 1085loPI    C216338  15.955  11.339   4.858 -0.0996 -0.0461  0.0770
 1085loPI    C316339  15.661  11.072   4.812 -0.2568  0.1105  0.1636
 1085loPI   PO416340  15.901  11.309   5.384 -0.0966  0.1369 -0.0294
 1085loPI   GL116341  15.867  11.572   5.806 -0.0622 -0.0677  0.1030
 1085loPI   GL216342  15.906  11.289   5.939 -0.0948 -0.0270  0.2076
 1085loPI   C1A16343  16.145  11.605   6.216  0.0325 -0.1314  0.0470
 1085loPI   C2A16344  16.410  11.440   6.507 -0.0856  0.1366  0.1862
 1085loPI   C3A16345  16.479  11.517   6.976 -0.2198  0.4264 -0.0458
 1085loPI   C4A16346  16.523  11.549   7.350 -0.1826  0.0595 -0.1721
 1085loPI   C5A16347  16.460  11.703   7.691 -0.3797  0.2471 -0.2394
 1085loPI   C6A16348  16.226  11.823   8.149 -0.3558  0.1147  0.1098
 1085loPI   C1B16349  16.007  11.113   6.373 -0.1325  0.1636  0.2158
 1085loPI   C2B16350  15.926  11.053   6.847 -0.1140 -0.2003  0.1491
 1085loPI   C3B16351  15.844  10.945   7.296 -0.2129  0.0957 -0.3050
 1085loPI   C4B16352  15.896  10.685   7.742  0.2354  0.2014  0.1527
 1086loPI    C116353   2.286  15.300   4.902 -0.2540 -0.2666  0.1242
 1086loPI    C216354   2.418  15.396   5.267 -0.1762  0.1616 -0.0102
 1086loPI    C316355   2.346  15.684   4.999  0.2455 -0.1693 -0.4997
 1086loPI   PO416356   2.127  15.033   4.990 -0.1015  0.1011 -0.1162
 1086loPI   GL116357   2.126  14.948   5.457 -0.0569 -0.2065  0.3542
 1086loPI   GL216358   2.140  15.302   5.636  0.2403  0.0500 -0.2602
 1086loPI   C1A16359   2.531  14.982   5.656 -0.0623  0.1407  0.1500
 1086loPI   C2A16360   2.788  14.981   5.949  0.2809  0.0769 -0.3031
 1086loPI   C3A16361   2.903  14.750   6.306  0.3200 -0.1953 -0.2957
 1086loPI   C4A16362   3.115  14.962   6.745  0.2344  0.2739  0.1774
 1086loPI   C5A16363   3.488  15.143   7.083 -0.1237 -0.0679  0.3694
 1086loPI   C6A16364   3.492  15.314   7.405  0.3651  0.0162 -0.0151
 1086loPI   C1B16365   1.963  14.864   5.922 -0.0206 -0.0875  0.2258
 1086loPI   C2B16366   1.882  14.790   6.355 -0.1838  0.0639  0.0564
 1086loPI   C3B16367   1.729  14.675   6.787 -0.1658 -0.0631  0.4319
 1086loPI   C4B16368   1.682  14.935   7.042 -0.0010  0.1531 -0.3646
 1087loPI    C116369  12.657   2.777   4.677  0.0786 -0.1008  0.1204
 1087loPI    C216370  12.730   2.401   4.792 -0.0592 -0.1639  0.0050
 1087loPI    C316371  12.413   2.481   4.562 -0.2322  0.0737  0.3172
 1087loPI   PO416372  12.729   2.917   4.934 -0.1935 -0.0225  0.2270
 1087loPI   GL116373  12.919   2.728   5.354 -0.1984  0.4314  0.1088
 1087loPI   GL216374  12.637   2.889   5.400 -0.2198 -0.0630  0.0521
 1087loPI   C1A16375  12.951   2.730   5.762 -0.1796  0.0011 -0.2632
 1087loPI   C2A16376  12.963   2.513   6.178 -0.3113  0.0567 -0.1161
 1087loPI   C3A16377  13.160   2.317   6.478 -0.2152 -0.0862 -0.2707
 1087loPI   C4A16378  13.348   2.376   6.812  0.0596 -0.5410  0.1938
 1087loPI   C5A16379  13.214   2.135   7.181  0.1758  0.0641 -0.0205
 1087loPI   C6A16380  12.758   1.983   7.242  0.3437  0.0969  0.1389
 1087loPI   C1B16381  12.504   2.612   5.779  0.1575 -0.1511  0.1992
 1087loPI   C2B16382  12.431   2.671   6.276  0.2130 -0.2366 -0.3477
 1087loPI   C3B16383  12.319   2.613   6.648 -0.0670 -0.1461  0.3588
 1087loPI   C4B16384  12.451   2.886   7.045  0.0085  0.0621 -0.3621
 1088loPI    C116385  11.196  14.216   5.042 -0.0581  0.1656  0.1623
 1088loPI    C216386  11.064  14.065   4.696  0.0712  0.2650  0.0682
 1088loPI    C316387  10.966  14.438   4.802  0.1277  0.2755  0.0834
 1088loPI   PO416388  11.063  14.061   5.237 -0.0685  0.1296 -0.2850
 1088loPI   GL116389  11.224  13.938   5.704  0.3509  0.1364  0.0738
 1088loPI   GL216390  10.816  14.136   5.677 -0.0456 -0.1710  0.1354
 1088loPI   C1A16391  11.261  13.917   6.117  0.0042 -0.4481 -0.3394
 1088loPI   C2A16392  11.268  13.819   6.508  0.0598  0.2886  0.0936
 1088loPI   C3A16393  11.377  13.816   6.865 -0.1464 -0.0758  0.3168
 1088loPI   C4A16394  11.411  13.732   7.392 -0.0022 -0.0758  0.2829
 1088loPI   C5A16395  11.230  13.806   7.808 -0.3994 -0.1043  0.0955
 1088loPI   C6A16396  10.826  13.677   8.126  0.1130  0.1842  0.2997
 1088loPI   C1B16397  10.798  14.205   6.204  0.1396 -0.0107  0.2397
 1088loPI   C2B16398  10.901  14.041   6.665 -0.0916 -0.0854 -0.0225
 1088loPI   C3B16399  10.938  13.927   7.112 -0.0843  0.1145  0.1446
 1088loPI   C4B16400  11.007  14.221   7.527 -0.3230 -0.2500  0.0096
 1089loPI    C116401   6.870   7.902   5.226 -0.1131 -0.0776  0.1437
 1089loPI    C216402   7.230   7.968   5.065 -0.1483  0.0196  0.1044
 1089loPI    C316403   6.938   7.807   4.844 -0.1096 -0.1227  0.1554
 1089loPI   PO416404   6.984   7.873   5.521  0.1872  0.1978 -0.1110
 1089loPI   GL116405   6.918   8.115   5.880 -0.1136  0.3496 -0.1696
 1089loPI   GL216406   7.176   7.914   6.004 -0.0341  0.2407  0.3355
 1089loPI   C1A16407   6.680   8.030   6.282  0.3994  0.2155  0.0968
 1089loPI   C2A16408   6.709   8.006   6.736  0.2926  0.2183 -0.1373
 1089loPI   C3A16409   6.511   8.111   7.164 -0.0164  0.1405 -0.0206
 1089loPI   C4A16410   6.447   8.138   7.620 -0.1046  0.1936  0.1441
 1089loPI   C5A16411   6.239   8.229   7.998  0.1942  0.1993 -0.2885
 1089loPI   C6A16412   6.084   8.073   8.402 -0.1038  0.2434 -0.0149
 1089loPI   C1B16413   7.194   7.866   6.370  0.0177  0.2883 -0.0207
 1089loPI   C2B16414   7.290   7.727   6.755  0.1994  0.1265 -0.0613
 1089loPI   C3B16415   7.031   7.821   7.109  0.0385  0.1167 -0.0164
 1089loPI   C4B16416   6.953   7.897   7.515 -0.1852 -0.0969  0.3435
 1090loPI    C116417  14.973  16.225   5.371  0.0325 -0.1657 -0.0109
 1090loPI    C216418  14.713  15.958   5.516  0.0694 -0.2688 -0.1322
 1090loPI    C316419  14.711  16.048   5.126  0.0505 -0.0832 -0.0905
 1090loPI   PO416420  15.035  16.385   5.454 -0.0807 -0.1342 -0.0376
 1090loPI   GL116421  15.038  16.640   5.856 -0.0519  0.0081 -0.0216
 1090loPI   GL216422  15.049  16.954   5.917 -0.1873  0.3564  0.0067
 1090loPI   C1A16423  14.928  16.386   6.149  0.3398 -0.1383 -0.2333
 1090loPI   C2A16424  15.058  16.506   6.593  0.3173 -0.0484  0.0642
 1090loPI   C3A16425  15.319  16.444   6.879  0.4840 -0.0223  0.2441
 1090loPI   C4A16426  15.394  16.530   7.280  0.1504  0.1223 -0.2896
 1090loPI   C5A16427  15.278  16.817   7.650 -0.0536 -0.1071  0.1627
 1090loPI   C6A16428  15.125  17.178   7.744  0.0268  0.3089 -0.2470
 1090loPI   C1B16429  14.905  16.856   6.268  0.2010 -0.0071 -0.1600
 1090loPI   C2B16430  14.808  17.105   6.604 -0.1739 -0.1547 -0.2010
 1090loPI   C3B16431  14.750  16.785   6.904 -0.0800 -0.1288 -0.1752
 1090loPI   C4B16432  14.841  16.696   7.340 -0.1065  0.2634 -0.0606
 1091loPI    C116433  14.459  13.513   5.117  0.0036  0.0628  0.1017
 1091loPI    C216434  14.149  13.386   4.899  0.0824  0.4300 -0.2372
 1091loPI    C316435  14.521  13.290   4.790  0.1046  0.2375  0.0001
 1091loPI   PO416436  14.277  13.529   5.369  0.2223 -0.1544  0.0988
 1091loPI   GL116437  14.020  13.402   5.720  0.0272  0.1282  0.2573
 1091loPI   GL216438  14.367  13.277   5.873 -0.0308 -0.0535  0.0635
 1091loPI   C1A16439  14.001  13.279   6.185  0.1845 -0.2517  0.2680
 1091loPI   C2A16440  14.049  13.173   6.609  0.2333  0.0894  0.0262
 1091loPI   C3A16441  13.943  13.143   7.036 -0.2413 -0.3571  0.2192
 1091loPI   C4A16442  14.113  13.289   7.373  0.3575  0.2560 -0.2671
 1091loPI   C5A16443  14.220  13.308   7.871  0.0642  0.2233 -0.1939
 1091loPI   C6A16444  14.307  13.681   7.918  0.2975 -0.1469 -0.0595
 1091loPI   C1B16445  14.477  13.151   6.212 -0.1441  0.0480 -0.2335
 1091loPI   C2B16446  14.501  13.261   6.539 -0.1107  0.1499  0.3262
 1091loPI   C3B16447  14.392  13.343   6.955 -0.3689 -0.1873  0.4140
 1091loPI   C4B16448  14.461  12.994   7.116 -0.0332 -0.1892  0.0331
 1092loPI    C116449   2.311  10.255   5.184  0.1876 -0.1053  0.2736
 1092loPI    C216450   2.489   9.900   5.130 -0.0648 -0.2184  0.1695
 1092loPI    C316451   2.138   9.922   5.321 -0.0877 -0.0328  0.1088
 1092loPI   PO416452   2.573  10.421   5.289  0.0054 -0.0450  0.1703
 1092loPI   GL116453   2.723  10.725   5.354 -0.0387 -0.0686  0.0408
 1092loPI   GL216454   3.017  10.700   5.564  0.2583  0.1187 -0.0542
 1092loPI   C1A16455   2.596  10.829   5.855  0.2016 -0.0517  0.0944
 1092loPI   C2A16456   2.736  10.930   6.307 -0.0963 -0.0763 -0.0574
 1092loPI   C3A16457   2.802  10.911   6.776 -0.1004 -0.1578 -0.2093
 1092loPI   C4A16458   2.855  10.995   7.151  0.2894  0.1610  0.0680
 1092loPI   C5A16459   3.117  10.900   7.536 -0.3681  0.1333  0.0389
 1092loPI   C6A16460   3.405  10.639   7.728  0.0441 -0.1778 -0.1189
 1092loPI   C1B16461   3.083  10.628   6.042 -0.0306 -0.0068  0.0251
 1092loPI   C2B16462   3.134  10.685   6.463  0.3016 -0.1678  0.0139
 1092loPI   C3B16463   3.093  10.483   6.790 -0.2550 -0.2161  0.0359
 1092loPI   C4B16464   3.209  10.422   7.216  0.0805  0.0994 -0.0392
 1093loPI    C116465  17.964   5.942   5.416  0.1836 -0.0237 -0.0408
 1093loPI    C216466  18.242   6.099   5.175  0.1611  0.0213 -0.0376
 1093loPI    C316467  17.942   5.885   5.020  0.0868  0.1407 -0.0603
 1093loPI   PO416468  18.133   5.904   5.619  0.0930 -0.2807 -0.0415
 1093loPI   GL116469  18.129   5.684   5.953  0.0262  0.0295 -0.2852
 1093loPI   GL216470  17.883   5.854   6.086  0.1383 -0.0611  0.0825
 1093loPI   C1A16471  18.258   5.653   6.335 -0.0290  0.0793 -0.2059
 1093loPI   C2A16472  18.357   5.800   6.839  0.1267  0.2252  0.2783
 1093loPI   C3A16473  18.463   5.930   7.202  0.1708 -0.2422  0.0266
 1093loPI   C4A16474  18.684   5.923   7.605 -0.0224  0.2031 -0.3916
 1093loPI   C5A16475  18.879   5.988   8.074 -0.0307 -0.3322 -0.0586
 1093loPI   C6A16476  19.145   5.920   8.410 -0.2099 -0.1634 -0.1313
 1093loPI   C1B16477  17.788   5.775   6.529 -0.0276  0.2271 -0.1333
 1093loPI   C2B16478  17.702   5.726   7.035  0.3007  0.2182  0.0310
 1093loPI   C3B16479  17.867   5.820   7.325 -0.0127 -0.0850 -0.1002
 1093loPI   C4B16480  17.724   5.939   7.717  0.0073 -0.1418 -0.0453
 1094loPI    C116481  15.000  18.310   4.929  0.2430 -0.0570 -0.0363
 1094loPI    C216482  15.159  18.583   4.684  0.1830  0.0148  0.0040
 1094loPI    C316483  14.763  18.571   4.739  0.2022  0.0453  0.1524
 1094loPI   PO416484  15.145  18.299   5.257  0.1900  0.3059  0.0375
 1094loPI   GL116485  15.113  18.345   5.701  0.0978  0.3188 -0.1800
 1094loPI   GL216486  15.154  18.627   5.732  0.0625  0.0611 -0.1981
 1094loPI   C1A16487  15.053  18.402   6.205  0.3210 -0.0590  0.0695
 1094loPI   C2A16488  14.928  18.336   6.716 -0.3917  0.0436 -0.2865
 1094loPI   C3A16489  14.950  18.147   7.075 -0.0684 -0.2134  0.0615
 1094loPI   C4A16490  15.288  18.062   7.341  0.0551  0.3068 -0.0451
 1094loPI   C5A16491  15.602  18.238   7.534  0.1659 -0.0324  0.0521
 1094loPI   C6A16492  15.686  18.576   7.823 -0.0269  0.2480 -0.1559
 1094loPI   C1B16493  14.914  18.818   6.061 -0.0620  0.3752 -0.2588
 1094loPI   C2B16494  15.094  18.930   6.498 -0.1878  0.0051  0.0485
 1094loPI   C3B16495  15.184  19.145   6.824 -0.1227  0.1185 -0.0745
 1094loPI   C4B16496  15.068  19.005   7.225  0.4124 -0.0969  0.5459
 1095loPI    C116497   9.325   6.282   5.295 -0.1970  0.0492 -0.0990
 1095loPI    C216498   9.648   6.077   5.181 -0.3409 -0.1516 -0.1512
 1095loPI    C316499   9.600   6.456   5.063 -0.0691 -0.0822 -0.0472
 1095loPI   PO416500   9.258   6.121   5.499  0.1547 -0.0708  0.0133
 1095loPI   GL116501   9.303   5.927   5.902 -0.1054 -0.1695 -0.0879
 1095loPI   GL216502   9.418   6.217   6.085 -0.0692 -0.1405 -0.1242
 1095loPI   C1A16503   9.108   5.922   6.375 -0.0812  0.1460  0.0892
 1095loPI   C2A16504   8.816   5.764   6.630 -0.2059  0.0839 -0.2315
 1095loPI   C3A16505   8.705   5.589   7.046  0.0108 -0.2777 -0.2014
 1095loPI   C4A16506   8.372   5.385   7.350 -0.0976 -0.1663  0.3230
 1095loPI   C5A16507   7.942   5.326   7.290 -0.0361  0.0076 -0.2308
 1095loPI   C6A16508   7.478   5.247   7.148  0.0666 -0.1774  0.0528
 1095loPI   C1B16509   9.333   6.472   6.488  0.0015  0.0583  0.0001
 1095loPI   C2B16510   9.366   6.593   6.828  0.3448  0.1040 -0.0347
 1095loPI   C3B16511   9.479   6.792   7.159  0.4149  0.2925 -0.0437
 1095loPI   C4B16512   9.603   6.806   7.555  0.1344  0.1947  0.0138
 1096loPI    C116513  18.310  14.157   5.233  0.1471  0.0349 -0.0939
 1096loPI    C216514  18.153  14.416   4.972 -0.3031 -0.1725 -0.0375
 1096loPI    C316515  17.992  14.375   5.336  0.0872 -0.1596  0.1418
 1096loPI   PO416516  18.313  13.931   5.104 -0.1512 -0.0373  0.2461
 1096loPI   GL116517  18.288  13.633   5.363 -0.1555  0.1901 -0.1846
 1096loPI   GL216518  18.101  13.438   5.469 -0.2797  0.1155  0.1581
 1096loPI   C1A16519  18.510  13.893   5.831  0.0151 -0.0038 -0.2178
 1096loPI   C2A16520  18.621  13.856   6.235  0.2474 -0.2168  0.5656
 1096loPI   C3A16521  18.633  13.784   6.580 -0.1133  0.0130 -0.1107
 1096loPI   C4A16522  18.639  13.504   6.882  0.0983 -0.2697 -0.0349
 1096loPI   C5A16523  18.505  13.489   7.234 -0.1003  0.3731  0.0629
 1096loPI   C6A16524  18.152  13.264   7.488 -0.2151  0.0976  0.4008
 1096loPI   C1B16525  18.046  13.591   5.876  0.0478  0.3602 -0.0697
 1096loPI   C2B16526  18.119  13.792   6.135 -0.0344  0.0467  0.0921
 1096loPI   C3B16527  18.153  13.985   6.537  0.0949 -0.0101  0.2307
 1096loPI   C4B16528  18.289  13.856   6.965  0.2886  0.1198  0.0280
 1097loPI    C116529   3.572   7.999   5.048  0.0598 -0.1666 -0.1048
 1097loPI    C216530   3.443   7.671   4.859  0.0663 -0.1658 -0.1104
 1097loPI    C316531   3.320   8.032   4.739 -0.0953 -0.1767  0.0196
 1097loPI   PO416532   3.728   7.870   5.217  0.1792 -0.3976 -0.3877
 1097loPI   GL116533   3.563   7.737   5.649 -0.1085  0.1502  0.4145
 1097loPI   GL216534   3.460   8.035   5.588 -0.0038  0.3050 -0.0793
 1097loPI   C1A16535   3.360   7.841   6.084  0.1387 -0.2289  0.0345
 1097loPI   C2A16536   3.287   7.985   6.414  0.4212  0.1693  0.0099
 1097loPI   C3A16537   3.235   7.930   6.786 -0.0911 -0.0569 -0.4898
 1097loPI   C4A16538   3.355   7.940   7.151 -0.1536  0.1941 -0.2212
 1097loPI   C5A16539   3.217   8.164   7.575 -0.0579  0.0369 -0.2644
 1097loPI   C6A16540   3.312   8.468   7.901  0.0044 -0.0494  0.0150
 1097loPI   C1B16541   3.615   8.306   5.963 -0.1872  0.4458  0.2353
 1097loPI   C2B16542   3.887   8.421   6.164  0.1394  0.5105 -0.3237
 1097loPI   C3B16543   3.947   8.443   6.583  0.0901 -0.3354 -0.3513
 1097loPI   C4B16544   3.708   8.736   6.873 -0.1595  0.0355  0.2685
 1098loPI    C116545  13.179   4.038   4.936 -0.4117  0.1529 -0.1294
 1098loPI    C216546  13.085   3.654   4.875  0.2597 -0.0295 -0.0973
 1098loPI    C316547  13.113   3.905   4.565 -0.0687 -0.0274 -0.1294
 1098loPI   PO416548  13.409   3.994   5.176 -0.2325  0.0653  0.0022
 1098loPI   GL116549  13.322   3.635   5.523 -0.0870  0.1261 -0.1932
 1098loPI   GL216550  13.401   3.346   5.592  0.3536 -0.0550 -0.2638
 1098loPI   C1A16551  13.034   3.678   5.800 -0.0407  0.2163  0.1685
 1098loPI   C2A16552  13.068   3.612   6.258 -0.1223  0.1125  0.1720
 1098loPI   C3A16553  13.017   3.687   6.657  0.2466 -0.1432  0.0077
 1098loPI   C4A16554  12.758   3.671   7.081 -0.2689  0.0450  0.2129
 1098loPI   C5A16555  12.529   3.409   7.376  0.1118 -0.1785 -0.2611
 1098loPI   C6A16556  12.518   3.003   7.523  0.1084 -0.3101 -0.0147
 1098loPI   C1B16557  13.458   3.380   5.977  0.0150 -0.0243  0.0848
 1098loPI   C2B16558  13.464   3.250   6.298  0.2237 -0.1606  0.1464
 1098loPI   C3B16559  13.315   3.290   6.736  0.2733  0.0872 -0.2252
 1098loPI   C4B16560  12.988   3.229   7.143  0.1818 -0.2229  0.2907
 1099loPI    C116561  11.328  17.748   5.293 -0.0615 -0.1124  0.0124
 1099loPI    C216562  11.195  17.556   4.968 -0.2407  0.0761 -0.0273
 1099loPI    C316563  11.479  17.836   4.933  0.1259 -0.2774  0.0489
 1099loPI   PO416564  11.116  17.821   5.387  0.2718  0.1174 -0.0609
 1099loPI   GL116565  11.015  17.689   5.839  0.2194  0.4847 -0.2840
 1099loPI   GL216566  11.311  17.519   6.004 -0.1438 -0.1904 -0.1251
 1099loPI   C1A16567  10.817  17.651   6.179  0.0907 -0.4460  0.2525
 1099loPI   C2A16568  10.795  17.427   6.622  0.0229  0.0243  0.0005
 1099loPI   C3A16569  10.664  17.168   6.895 -0.3176  0.0582 -0.2060
 1099loPI   C4A16570  10.772  17.025   7.292  0.0785 -0.2569  0.1016
 1099loPI   C5A16571  10.797  16.774   7.577  0.1421 -0.1256 -0.2562
 1099loPI   C6A16572  10.817  16.380   7.658  0.1573 -0.1351  0.1989
 1099loPI   C1B16573  11.316  17.595   6.392 -0.0299 -0.0966  0.2045
 1099loPI   C2B16574  11.165  17.758   6.813 -0.1634  0.0976  0.2429
 1099loPI   C3B16575  11.293  17.763   7.300 -0.1609 -0.0570  0.2620
 1099loPI   C4B16576  11.354  17.534   7.664 -0.0616 -0.0899 -0.0378
 1100loPI    C116577  12.087   6.668   5.659 -0.0622 -0.0454 -0.2120
 1100loPI    C216578  12.120   6.929   5.358 -0.1097  0.0239 -0.1572
 1100loPI    C316579  12.387   6.633   5.396  0.1649  0.2842 -0.0048
 1100loPI   PO416580  12.137   6.897   5.885 -0.2711 -0.3240  0.1238
 1100loPI   GL116581  11.856   7.050   6.197  0.0403 -0.0065 -0.0544
 1100loPI   GL216582  11.957   7.372   6.213 -0.3427  0.0586  0.0100
 1100loPI   C1A16583  11.857   6.758   6.534 -0.1479  0.0306  0.0206
 1100loPI   C2A16584  11.767   6.717   6.944 -0.3612 -0.2887 -0.0961
 1100loPI   C3A16585  11.711   6.338   7.298  0.1390  0.1793  0.1344
 1100loPI   C4A16586  11.393   6.226   7.525  0.1614  0.2210 -0.1777
 1100loPI   C5A16587  11.016   6.311   7.839 -0.0138  0.1910  0.2737
 1100loPI   C6A16588  10.681   6.133   8.045  0.0202 -0.0567 -0.2667
 1100loPI   C1B16589  11.620   7.388   6.443 -0.1061 -0.4463 -0.0503
 1100loPI   C2B16590  11.475   7.362   6.759 -0.1155 -0.1279 -0.1972
 1100loPI   C3B16591  11.495   7.343   7.213 -0.1227 -0.2898  0.2190
 1100loPI   C4B16592  11.416   7.421   7.690 -0.5948  0.0474  0.1044
 1101loPI    C116593  10.830   1.688   4.891 -0.0957  0.2079  0.0581
 1101loPI    C216594  11.097   1.859   4.646 -0.0377  0.0914  0.0391
 1101loPI    C316595  10.899   1.531   4.529 -0.0663  0.0800  0.1185
 1101loPI   PO416596  10.796   1.853   5.076 -0.4351 -0.0106  0.1374
 1101loPI   GL116597  10.623   1.689   5.472 -0.0733  0.0021  0.3809
 1101loPI   GL216598  10.423   1.393   5.603  0.0034 -0.2640 -0.1248
 1101loPI   C1A16599  10.721   1.809   5.848  0.1145  0.3719  0.3020
 1101loPI   C2A16600  10.657   1.994   6.217 -0.2022  0.0278 -0.0637
 1101loPI   C3A16601  10.567   2.077   6.593  0.1843  0.0047 -0.1472
 1101loPI   C4A16602  10.530   2.245   6.982 -0.1190 -0.1066 -0.0186
 1101loPI   C5A16603  10.786   2.149   7.292 -0.0942  0.1976 -0.3820
 1101loPI   C6A16604  10.795   2.105   7.706  0.0163  0.0798 -0.0180
 1101loPI   C1B16605  10.405   1.224   5.991 -0.1643 -0.0259  0.1860
 1101loPI   C2B16606  10.321   1.209   6.446  0.1059 -0.2157  0.0365
 1101loPI   C3B16607  10.103   1.293   6.799 -0.0992  0.1697  0.0730
 1101loPI   C4B16608  10.080   1.272   7.289  0.0764 -0.0172  0.1534
 1102loPI    C116609  16.044   8.387   5.672 -0.0292  0.0019  0.0223
 1102loPI    C216610  15.884   8.657   5.424 -0.1777  0.0431  0.1612
 1102loPI    C316611  15.923   8.741   5.813 -0.2505 -0.1461  0.2102
 1102loPI   PO416612  16.307   8.321   5.716  0.1260  0.0959 -0.1023
 1102loPI   GL116613  16.562   8.615   5.966 -0.1958 -0.2269  0.0043
 1102loPI   GL216614  16.870   8.519   6.234  0.0829 -0.0815  0.0978
 1102loPI   C1A16615  16.408   8.757   6.289 -0.0990  0.0484  0.0166
 1102loPI   C2A16616  16.660   8.943   6.626  0.1625 -0.0982  0.0730
 1102loPI   C3A16617  16.839   8.959   6.960 -0.0989 -0.1607  0.4167
 1102loPI   C4A16618  16.988   8.812   7.421 -0.1738 -0.3071 -0.0170
 1102loPI   C5A16619  16.880   8.945   7.762 -0.0227  0.2134 -0.0574
 1102loPI   C6A16620  16.911   9.092   8.094 -0.0105 -0.0848  0.4065
 1102loPI   C1B16621  16.908   8.488   6.606  0.0751  0.1918  0.1509
 1102loPI   C2B16622  17.121   8.554   6.961 -0.0355  0.0473 -0.2812
 1102loPI   C3B16623  17.416   8.593   7.270  0.0696  0.2313 -0.2426
 1102loPI   C4B16624  17.587   8.570   7.675 -0.0323  0.1762 -0.2624
 1103loPI    C116625  12.299   2.586   5.043 -0.0046 -0.0674 -0.3749
 1103loPI    C216626  12.231   2.975   5.104 -0.1392 -0.1343 -0.0779
 1103loPI    C316627  12.130   2.806   4.756 -0.2974  0.0457 -0.1212
 1103loPI   PO416628  12.104   2.439   5.216  0.2201  0.0332  0.0433
 1103loPI   GL116629  11.925   2.363   5.548 -0.0277 -0.0668  0.0963
 1103loPI   GL216630  11.592   2.238   5.606 -0.0650  0.0948  0.2490
 1103loPI   C1A16631  12.137   2.328   5.984  0.1185  0.0435 -0.0014
 1103loPI   C2A16632  12.035   2.230   6.389 -0.1889  0.0713  0.1904
 1103loPI   C3A16633  12.121   2.156   6.737  0.4395 -0.0209 -0.2279
 1103loPI   C4A16634  11.944   2.007   7.071 -0.2864  0.0474  0.1221
 1103loPI   C5A16635  11.887   1.944   7.581 -0.1083  0.0116 -0.1867
 1103loPI   C6A16636  11.792   1.702   7.886 -0.2644 -0.2444 -0.0478
 1103loPI   C1B16637  11.603   2.328   6.089 -0.2130 -0.0032  0.0444
 1103loPI   C2B16638  11.576   2.265   6.586 -0.0270 -0.1701 -0.2851
 1103loPI   C3B16639  11.578   2.281   7.044  0.0337  0.0334 -0.0159
 1103loPI   C4B16640  11.214   2.442   7.270 -0.0224  0.0976  0.2024
 1104loPI    C116641   9.249  15.900   5.009 -0.1278  0.2750 -0.1940
 1104loPI    C216642   9.613  15.859   4.846 -0.1037 -0.3315 -0.0134
 1104loPI    C316643   9.286  15.785   4.627 -0.1027 -0.2713 -0.0356
 1104loPI   PO416644   9.312  16.007   5.204  0.0945 -0.1786 -0.3510
 1104loPI   GL116645   9.147  15.984   5.592  0.3896 -0.3253  0.1331
 1104loPI   GL216646   8.873  16.027   5.722  0.1232 -0.0891 -0.0571
 1104loPI   C1A16647   9.256  16.063   5.998 -0.0459 -0.1492 -0.1426
 1104loPI   C2A16648   9.133  15.897   6.502  0.1649  0.2056  0.2696
 1104loPI   C3A16649   9.231  15.825   6.902 -0.2841  0.1495 -0.3483
 1104loPI   C4A16650   9.400  15.718   7.352 -0.1804  0.1789 -0.3507
 1104loPI   C5A16651   9.480  15.506   7.662 -0.2543  0.0383  0.0256
 1104loPI   C6A16652   9.768  15.309   8.039 -0.1489 -0.1161  0.1428
 1104loPI   C1B16653   8.815  15.845   6.135 -0.0216 -0.2255  0.1118
 1104loPI   C2B16654   9.037  15.488   6.242 -0.2285  0.1045  0.0637
 1104loPI   C3B16655   9.291  15.078   6.216  0.2498  0.0214 -0.4928
 1104loPI   C4B16656   9.331  14.557   6.297  0.0199 -0.0069 -0.0031
 1105loPI    C116657  15.708   6.770   5.780 -0.0791  0.0685 -0.0785
 1105loPI    C216658  16.044   6.907   5.948 -0.2219  0.2257  0.0834
 1105loPI    C316659  15.989   6.943   5.553 -0.1135  0.3348  0.0775
 1105loPI   PO416660  15.789   6.494   5.912  0.0815  0.0220  0.0423
 1105loPI   GL116661  15.665   6.325   6.307  0.1183 -0.1037  0.3056
 1105loPI   GL216662  15.633   5.993   6.252  0.0229 -0.2133  0.2870
 1105loPI   C1A16663  15.586   6.571   6.701 -0.0203 -0.1960  0.2504
 1105loPI   C2A16664  15.640   6.513   7.090 -0.1578  0.2288  0.0466
 1105loPI   C3A16665  15.584   6.235   7.382 -0.0849 -0.2283 -0.1518
 1105loPI   C4A16666  15.399   6.289   7.760  0.3677  0.0488  0.0526
 1105loPI   C5A16667  15.449   6.252   8.247  0.2508 -0.2565 -0.1598
 1105loPI   C6A16668  15.400   6.344   8.663 -0.0414 -0.0701  0.1337
 1105loPI   C1B16669  15.721   6.025   6.748 -0.1252 -0.2862 -0.1220
 1105loPI   C2B16670  15.908   5.972   7.060 -0.0411 -0.2440 -0.2215
 1105loPI   C3B16671  16.109   6.017   7.485 -0.2240 -0.2194 -0.2093
 1105loPI   C4B16672  16.188   5.910   7.868  0.2405  0.4501 -0.0469
 1106loPI    C116673  14.459  15.098   5.007  0.2233 -0.0365  0.1367
 1106loPI    C216674  14.603  14.739   4.908 -0.0418 -0.0669 -0.1537
 1106loPI    C316675  14.349  14.927   4.663 -0.0154  0.2578  0.0620
 1106loPI   PO416676  14.548  14.993   5.367  0.1114  0.1382 -0.1865
 1106loPI   GL116677  14.346  15.038   5.701 -0.0065  0.0308  0.1985
 1106loPI   GL216678  14.315  15.401   5.692 -0.1694  0.0258 -0.1265
 1106loPI   C1A16679  14.260  14.876   6.058  0.0457  0.1611 -0.2524
 1106loPI   C2A16680  14.227  14.827   6.487 -0.2784  0.0700  0.1113
 1106loPI   C3A16681  14.439  14.968   6.852 -0.1832 -0.0347 -0.2098
 1106loPI   C4A16682  14.451  15.302   7.068 -0.1833 -0.1552 -0.1115
 1106loPI   C5A16683  14.408  15.567   7.410  0.3890 -0.0350  0.1729
 1106loPI   C6A16684  14.756  15.905   7.531 -0.0683  0.2302 -0.1445
 1106loPI   C1B16685  14.260  15.425   6.151 -0.1292  0.2514  0.3666
 1106loPI   C2B16686  14.236  15.470   6.662 -0.0252  0.0402 -0.0147
 1106loPI   C3B16687  13.994  15.540   7.021  0.2877  0.0860 -0.1018
 1106loPI   C4B16688  13.764  15.701   7.375 -0.0467 -0.2333  0.0427
 1107loPI    C116689  16.907   6.495   5.403 -0.0744 -0.2603  0.1232
 1107loPI    C216690  16.910   6.097   5.436  0.1634 -0.2802 -0.0986
 1107loPI    C316691  17.033   6.269   5.097 -0.0601 -0.0207 -0.0512
 1107loPI   PO416692  16.898   6.567   5.674 -0.3289 -0.2828 -0.0415
 1107loPI   GL116693  16.746   6.598   6.110  0.0858  0.0914  0.0373
 1107loPI   GL216694  16.731   6.283   6.332  0.1148 -0.0623  0.1460
 1107loPI   C1A16695  16.584   6.765   6.482  0.0800  0.1212  0.2344
 1107loPI   C2A16696  16.486   6.713   6.890  0.2290 -0.1133 -0.1465
 1107loPI   C3A16697  16.174   6.844   6.993  0.2025 -0.1268 -0.1065
 1107loPI   C4A16698  15.820   7.018   6.776 -0.2936  0.1950  0.2056
 1107loPI   C5A16699  15.726   7.378   6.941 -0.0355  0.0085  0.0155
 1107loPI   C6A16700  15.510   7.538   7.281  0.1117 -0.0155  0.2359
 1107loPI   C1B16701  16.540   6.119   6.749 -0.1726  0.1212  0.1707
 1107loPI   C2B16702  16.406   5.842   7.129  0.0637  0.0185 -0.0222
 1107loPI   C3B16703  16.363   5.574   7.510 -0.2484 -0.0671  0.0621
 1107loPI   C4B16704  16.243   5.198   7.648 -0.1213  0.1851  0.3601
 1108loPI    C116705  10.611   7.721   5.379 -0.0166  0.0835 -0.0387
 1108loPI    C216706  10.683   8.109   5.313 -0.1884  0.1001 -0.1325
 1108loPI    C316707  10.987   7.852   5.347 -0.0589  0.3030  0.3086
 1108loPI   PO416708  10.418   7.761   5.642 -0.3363 -0.2512 -0.0202
 1108loPI   GL116709  10.447   7.776   6.042 -0.3729 -0.4699 -0.2984
 1108loPI   GL216710  10.558   7.411   6.175  0.0290  0.0479 -0.2130
 1108loPI   C1A16711  10.089   7.672   6.383  0.1409 -0.1143 -0.2842
 1108loPI   C2A16712   9.825   7.857   6.740 -0.1463  0.3377  0.0885
 1108loPI   C3A16713   9.634   7.942   7.132 -0.0941  0.1711 -0.0551
 1108loPI   C4A16714   9.699   8.152   7.462  0.2525 -0.0302  0.1758
 1108loPI   C5A16715   9.477   8.481   7.729 -0.0199 -0.0010 -0.2352
 1108loPI   C6A16716   9.429   8.625   8.122  0.1096  0.2531 -0.0199
 1108loPI   C1B16717  10.506   7.621   6.588 -0.2309  0.0242  0.1612
 1108loPI   C2B16718  10.591   7.699   6.985 -0.2824 -0.3701 -0.1941
 1108loPI   C3B16719  10.495   7.687   7.417  0.0702  0.0529  0.0544
 1108loPI   C4B16720  10.476   7.617   7.708  0.0882 -0.1002 -0.2629
 1109loPI    C116721   7.786  15.153   4.816 -0.1011  0.0280  0.0580
 1109loPI    C216722   8.161  15.288   4.784 -0.0789 -0.0548 -0.0362
 1109loPI    C316723   8.061  14.936   4.622 -0.1441 -0.1373  0.1797
 1109loPI   PO416724   7.733  15.178   5.037  0.0094 -0.0019 -0.0006
 1109loPI   GL116725   7.460  15.079   5.369  0.2039  0.1347 -0.0067
 1109loPI   GL216726   7.703  15.130   5.551  0.4457 -0.3014 -0.0331
 1109loPI   C1A16727   7.229  15.055   5.759  0.0261 -0.0878  0.0133
 1109loPI   C2A16728   7.213  15.086   6.216  0.0573 -0.0831  0.1959
 1109loPI   C3A16729   7.058  15.132   6.650 -0.0741  0.1337 -0.0622
 1109loPI   C4A16730   6.951  15.187   7.190  0.0082  0.0180  0.2117
 1109loPI   C5A16731   7.194  15.339   7.608 -0.2367 -0.0504 -0.0946
 1109loPI   C6A16732   6.909  15.181   7.953 -0.2060  0.0098  0.2205
 1109loPI   C1B16733   7.667  15.105   6.004 -0.1362 -0.2266  0.0770
 1109loPI   C2B16734   7.593  15.035   6.462  0.0041  0.0376  0.0456
 1109loPI   C3B16735   7.429  14.892   6.858  0.0072 -0.0113  0.0036
 1109loPI   C4B16736   7.367  14.848   7.322  0.2918  0.1614 -0.0010
 1110loPI    C116737   5.236   0.902   4.665  0.1237 -0.1143  0.0621
 1110loPI    C216738   5.333   0.581   4.447  0.0167 -0.2525  0.2156
 1110loPI    C316739   5.493   0.937   4.361  0.1520 -0.3504  0.0568
 1110loPI   PO416740   5.261   0.875   4.919  0.1025  0.1568 -0.0730
 1110loPI   GL116741   5.375   1.076   5.308  0.3387 -0.0511  0.0896
 1110loPI   GL216742   5.400   0.754   5.546  0.0046 -0.0014 -0.0870
 1110loPI   C1A16743   5.445   1.145   5.738  0.2143 -0.1910 -0.1833
 1110loPI   C2A16744   5.235   0.989   6.110 -0.3097  0.0416  0.1510
 1110loPI   C3A16745   5.309   1.092   6.579 -0.5244 -0.3217  0.0332
 1110loPI   C4A16746   5.452   0.955   7.075 -0.1674  0.2769  0.0352
 1110loPI   C5A16747   5.234   1.116   7.465  0.2442  0.0859  0.1442
 1110loPI   C6A16748   4.841   1.162   7.500 -0.1464 -0.0136  0.1027
 1110loPI   C1B16749   5.580   0.669   5.805 -0.0869  0.0334 -0.0705
 1110loPI   C2B16750   5.651   0.714   6.279  0.2432 -0.1410  0.1377
 1110loPI   C3B16751   5.703   0.695   6.784 -0.3699  0.1936  0.0217
 1110loPI   C4B16752   5.967   0.825   7.126  0.0740 -0.2345 -0.0546
 1111loPI    C116753  14.665  12.084   5.727 -0.0718  0.0765 -0.0568
 1111loPI    C216754  14.648  11.900   5.373  0.0210  0.3095 -0.1850
 1111loPI    C316755  14.349  12.138   5.489 -0.0790  0.1160 -0.0385
 1111loPI   PO416756  14.914  12.191   5.705  0.0698  0.1874  0.0170
 1111loPI   GL116757  15.056  12.021   6.161 -0.4553  0.0706 -0.1952
 1111loPI   GL216758  15.353  12.035   6.315 -0.2347  0.0015  0.0989
 1111loPI   C1A16759  14.678  12.267   6.414 -0.3346  0.1299 -0.1074
 1111loPI   C2A16760  14.597  12.371   6.891 -0.1909  0.0643  0.0551
 1111loPI   C3A16761  14.625  12.508   7.256 -0.2930  0.0096 -0.1393
 1111loPI   C4A16762  14.684  12.536   7.685 -0.1737  0.2951 -0.0629
 1111loPI   C5A16763  14.694  12.767   8.042  0.1456 -0.0896 -0.3322
 1111loPI   C6A16764  15.042  12.945   8.241  0.2301  0.0129 -0.1160
 1111loPI   C1B16765  15.624  11.841   6.604 -0.1019  0.0019  0.2057
 1111loPI   C2B16766  16.044  11.717   6.740  0.1738  0.3578 -0.1365
 1111loPI   C3B16767  16.086  11.732   7.225  0.2166 -0.0002  0.2104
 1111loPI   C4B16768  15.716  11.629   7.487  0.1563 -0.2036 -0.1776
 1112loPI    C116769  15.594   4.978   4.965 -0.0143  0.0851 -0.2098
 1112loPI    C216770  15.252   4.861   4.794 -0.1693  0.2460 -0.0154
 1112loPI    C316771  15.402   5.223   4.714 -0.0347  0.1702 -0.1119
 1112loPI   PO416772  15.569   4.871   5.218  0.0483 -0.3269  0.1401
 1112loPI   GL116773  15.357   4.896   5.742  0.2999  0.1401  0.0347
 1112loPI   GL216774  15.576   5.146   5.871  0.0102  0.1123 -0.2445
 1112loPI   C1A16775  15.232   4.646   5.984  0.0726  0.2898  0.0527
 1112loPI   C2A16776  15.280   4.586   6.378  0.2215 -0.0239  0.1797
 1112loPI   C3A16777  15.103   4.676   6.858  0.2053  0.2612  0.1743
 1112loPI   C4A16778  14.990   4.665   7.256  0.2166 -0.2182  0.1975
 1112loPI   C5A16779  14.664   4.873   7.572 -0.1236  0.0983  0.3302
 1112loPI   C6A16780  14.721   5.187   7.791 -0.0327 -0.1417 -0.2586
 1112loPI   C1B16781  15.573   4.993   6.326  0.1968  0.0199 -0.0241
 1112loPI   C2B16782  15.550   4.824   6.777 -0.0797  0.1085  0.0113
 1112loPI   C3B16783  15.433   4.760   7.197  0.1012 -0.1288 -0.1205
 1112loPI   C4B16784  15.539   4.643   7.603  0.4345 -0.0559  0.1280
 1113loPI    C116785   3.198   9.160   4.591  0.1050 -0.0176  0.0168
 1113loPI    C216786   3.566   9.166   4.749  0.0442 -0.1486  0.1650
 1113loPI    C316787   3.492   8.946   4.424  0.2697  0.4417 -0.3049
 1113loPI   PO416788   3.045   9.037   4.805  0.0281 -0.0267 -0.3738
 1113loPI   GL116789   3.094   9.001   5.272  0.4006  0.0170  0.1243
 1113loPI   GL216790   3.108   8.794   5.434 -0.1349  0.0405 -0.1277
 1113loPI   C1A16791   2.887   9.250   5.507 -0.0911 -0.2240 -0.1790
 1113loPI   C2A16792   2.668   9.307   5.920  0.1356  0.1822 -0.1847
 1113loPI   C3A16793   2.647   9.448   6.317  0.0531 -0.2044  0.0282
 1113loPI   C4A16794   2.532   9.538   6.766  0.0422  0.1891  0.2196
 1113loPI   C5A16795   2.731   9.632   7.251 -0.1208 -0.2531  0.0487
 1113loPI   C6A16796   2.687   9.725   7.695 -0.2483 -0.4045 -0.0775
 1113loPI   C1B16797   3.154   8.493   5.836 -0.1200  0.1455 -0.0373
 1113loPI   C2B16798   3.158   8.521   6.195  0.0702 -0.0531  0.0055
 1113loPI   C3B16799   3.338   8.431   6.567 -0.2098 -0.0872 -0.3380
 1113loPI   C4B16800   3.184   8.571   6.975  0.0283  0.1196 -0.1456
 1114loPI    C116801   7.177  11.838   5.055 -0.0670 -0.0219 -0.4850
 1114loPI    C216802   7.288  12.149   5.280 -0.2378 -0.3255  0.0389
 1114loPI    C316803   7.068  12.208   4.950  0.0417  0.1313 -0.0750
 1114loPI   PO416804   7.125  11.657   5.232  0.2955 -0.0578 -0.0998
 1114loPI   GL116805   6.813  11.751   5.576 -0.1828  0.0729 -0.1123
 1114loPI   GL216806   6.514  11.770   5.477  0.0853 -0.0886 -0.1490
 1114loPI   C1A16807   6.833  11.962   5.944 -0.0570  0.2572  0.0724
 1114loPI   C2A16808   6.588  12.181   6.320 -0.0502 -0.0237  0.1676
 1114loPI   C3A16809   6.458  12.239   6.729 -0.2995  0.0849  0.1163
 1114loPI   C4A16810   6.520  12.266   7.146  0.2458 -0.1511  0.0382
 1114loPI   C5A16811   6.603  12.577   7.513 -0.0016  0.0668 -0.0890
 1114loPI   C6A16812   7.010  12.711   7.622  0.1613  0.1498 -0.1869
 1114loPI   C1B16813   6.352  11.836   5.850 -0.3438  0.3119  0.1400
 1114loPI   C2B16814   6.530  11.656   6.229  0.1849 -0.1684 -0.0513
 1114loPI   C3B16815   6.710  11.814   6.594 -0.0236  0.0343 -0.1424
 1114loPI   C4B16816   6.660  11.665   7.030  0.0959  0.3007  0.2164
 1115loPI    C116817  10.806   3.921   5.424 -0.2941  0.0242  0.1049
 1115loPI    C216818  11.038   3.909   5.098 -0.0206  0.1913  0.2891
 1115loPI    C316819  10.779   4.209   5.147 -0.0180  0.1991  0.2545
 1115loPI   PO416820  10.950   3.878   5.609  0.1732 -0.0081  0.0773
 1115loPI   GL116821  11.065   3.546   5.747  0.2376  0.2045 -0.1543
 1115loPI   GL216822  11.305   3.594   5.852  0.0612 -0.2117  0.0587
 1115loPI   C1A16823  10.815   3.192   5.932 -0.2073 -0.0398  0.0014
 1115loPI   C2A16824  10.927   2.861   6.248  0.0525 -0.2384  0.1038
 1115loPI   C3A16825  10.844   2.825   6.698  0.0465  0.0418 -0.1484
 1115loPI   C4A16826  10.871   2.691   7.028 -0.0516  0.0293  0.0236
 1115loPI   C5A16827  10.896   2.923   7.436 -0.3692  0.0781  0.1784
 1115loPI   C6A16828  10.741   3.287   7.727 -0.1092  0.0335 -0.0860
 1115loPI   C1B16829  11.196   3.353   6.204  0.2644  0.0300  0.0555
 1115loPI   C2B16830  11.182   3.204   6.644 -0.2622  0.0804 -0.0392
 1115loPI   C3B16831  11.084   3.142   7.055 -0.1247  0.0003 -0.3274
 1115loPI   C4B16832  11.133   3.382   7.390  0.2016  0.2124 -0.3209
 1116loPI    C116833   9.540   4.172   4.946  0.0304  0.0758 -0.1292
 1116loPI    C216834   9.308   4.416   5.161  0.3456  0.0595  0.2403
 1116loPI    C316835   9.429   4.526   4.796  0.0333  0.2094  0.1777
 1116loPI   PO416836   9.467   3.954   5.163  0.2224 -0.0287  0.1675
 1116loPI   GL116837   9.264   4.165   5.639  0.1128 -0.2560  0.3069
 1116loPI   GL216838   9.114   4.417   5.719 -0.1150 -0.4031 -0.1205
 1116loPI   C1A16839   9.147   3.928   5.995  0.0254  0.3268 -0.4274
 1116loPI   C2A16840   9.107   3.962   6.390  0.0263  0.2791 -0.1469
 1116loPI   C3A16841   9.149   3.950   6.846  0.2079  0.2579 -0.0254
 1116loPI   C4A16842   9.040   3.949   7.315  0.0967  0.1093 -0.2930
 1116loPI   C5A16843   8.852   3.988   7.762  0.0799 -0.0180  0.0951
 1116loPI   C6A16844   8.396   3.983   7.899  0.2769  0.1864 -0.2829
 1116loPI   C1B16845   9.213   4.422   6.162  0.3135  0.2119  0.3587
 1116loPI   C2B16846   9.346   4.478   6.513 -0.0728 -0.1565  0.1243
 1116loPI   C3B16847   9.477   4.456   6.909  0.4881  0.0517  0.3650
 1116loPI   C4B16848   9.503   4.015   7.179  0.6076  0.0597  0.2295
 1117loPI    C116849   1.715   2.044   5.128 -0.0124 -0.0493  0.0560
 1117loPI    C216850   1.750   1.661   5.017  0.0445 -0.0135 -0.0511
 1117loPI    C316851   1.509   1.908   4.814  0.1523  0.0533 -0.0990
 1117loPI   PO416852   1.798   2.024   5.413  0.1705 -0.2845  0.1171
 1117loPI   GL116853   1.703   1.934   5.793  0.0750 -0.1659 -0.1341
 1117loPI   GL216854   1.838   2.256   5.837 -0.1161  0.3388 -0.0266
 1117loPI   C1A16855   1.768   1.892   6.332  0.1769  0.2270 -0.0420
 1117loPI   C2A16856   1.846   1.945   6.734 -0.0303  0.3046 -0.0583
 1117loPI   C3A16857   2.191   2.026   6.959  0.3817  0.1749 -0.1110
 1117loPI   C4A16858   2.260   2.005   7.456  0.2804 -0.1205  0.0492
 1117loPI   C5A16859   2.682   2.121   7.674  0.0633 -0.1647  0.1863
 1117loPI   C6A16860   2.856   2.315   8.033  0.1153  0.0057  0.2658
 1117loPI   C1B16861   1.791   2.383   6.240 -0.1149 -0.2712  0.0589
 1117loPI   C2B16862   1.936   2.432   6.666 -0.2652 -0.0350 -0.2094
 1117loPI   C3B16863   2.020   2.483   7.101  0.0933  0.2405  0.0297
 1117loPI   C4B16864   2.042   2.507   7.525  0.0150 -0.1231 -0.2432
 1118loPI    C116865   8.213   0.188   4.718  0.1333  0.1138 -0.1795
 1118loPI    C216866   7.997   0.045   4.413  0.1707  0.0965 -0.1980
 1118loPI    C316867   8.224  -0.202   4.630  0.0226  0.0825 -0.0572
 1118loPI   PO416868   8.037   0.307   4.946 -0.0566  0.1714 -0.0163
 1118loPI   GL116869   7.772   0.244   5.346 -0.3761  0.2689  0.0010
 1118loPI   GL216870   7.854   0.467   5.517 -0.0336 -0.0122  0.1870
 1118loPI   C1A16871   7.626   0.006   5.654  0.0701  0.2155 -0.3072
 1118loPI   C2A16872   7.613  -0.081   6.032  0.0110 -0.0425  0.2104
 1118loPI   C3A16873   7.401  -0.033   6.525  0.1203  0.2071  0.0861
 1118loPI   C4A16874   7.436   0.103   6.910 -0.1551 -0.2564 -0.2902
 1118loPI   C5A16875   7.597  -0.108   7.284 -0.1331  0.0806 -0.2118
 1118loPI   C6A16876   7.551  -0.083   7.750 -0.2241 -0.1135 -0.3429
 1118loPI   C1B16877   7.856   0.345   5.930 -0.1200 -0.1061 -0.0666
 1118loPI   C2B16878   7.705   0.433   6.274 -0.1917  0.1954 -0.0108
 1118loPI   C3B16879   7.573   0.544   6.735  0.1188  0.3628  0.1905
 1118loPI   C4B16880   7.641   0.773   7.110  0.1282  0.0710 -0.1244
 1119loPI    C116881   1.871  16.777   5.190  0.0061 -0.0306  0.0880
 1119loPI    C216882   2.218  16.662   5.029  0.0404  0.2248 -0.0259
 1119loPI    C316883   1.999  16.945   4.851 -0.4464 -0.2428 -0.1972
 1119loPI   PO416884   1.821  16.508   5.328  0.1302 -0.2778  0.0937
 1119loPI   GL116885   1.722  16.210   5.679  0.2601  0.1829  0.0415
 1119loPI   GL216886   1.875  16.020   5.789 -0.0274 -0.0471 -0.0158
 1119loPI   C1A16887   1.661  16.424   6.005 -0.0802  0.1543  0.0377
 1119loPI   C2A16888   1.868  16.761   6.254  0.0322  0.1750 -0.0327
 1119loPI   C3A16889   1.898  16.850   6.507  0.4544 -0.3898 -0.3080
 1119loPI   C4A16890   1.855  16.799   6.941 -0.0745  0.0691  0.0396
 1119loPI   C5A16891   1.843  16.759   7.368 -0.0118 -0.1517 -0.2716
 1119loPI   C6A16892   2.082  16.511   7.685 -0.1952  0.0523 -0.1447
 1119loPI   C1B16893   1.864  16.012   6.228 -0.0831 -0.0980 -0.2281
 1119loPI   C2B16894   1.862  16.344   6.563  0.2633 -0.2253 -0.0937
 1119loPI   C3B16895   1.770  16.275   6.940  0.1689 -0.3205 -0.1746
 1119loPI   C4B16896   1.807  16.224   7.369  0.0129  0.0235  0.1805
 1120loPI    C116897  18.658  11.756   5.214 -0.1497  0.0648 -0.0007
 1120loPI    C216898  18.383  11.963   5.009 -0.0844  0.0971 -0.0559
 1120loPI    C316899  18.506  11.607   4.875 -0.0221  0.1305 -0.0878
 1120loPI   PO416900  18.561  11.860   5.491  0.1391 -0.2049 -0.0409
 1120loPI   GL116901  18.661  11.991   5.910 -0.1327  0.4138  0.1627
 1120loPI   GL216902  18.798  11.782   6.011  0.0989 -0.1099  0.0507
 1120loPI   C1A16903  18.531  12.311   6.137 -0.2317  0.0366 -0.0681
 1120loPI   C2A16904  18.621  12.382   6.579 -0.2719  0.0709  0.0535
 1120loPI   C3A16905  18.846  12.375   6.892  0.0594  0.1171  0.1610
 1120loPI   C4A16906  18.714  12.515   7.278 -0.1845  0.0028 -0.0045
 1120loPI   C5A16907  18.664  12.575   7.689 -0.1499  0.1306 -0.1298
 1120loPI   C6A16908  18.495  12.299   7.999 -0.0836 -0.0892  0.1546
 1120loPI   C1B16909  18.653  11.877   6.394 -0.0217  0.1424  0.3932
 1120loPI   C2B16910  18.854  11.840   6.800 -0.3836 -0.4466  0.1589
 1120loPI   C3B16911  18.757  12.000   7.234  0.0916 -0.3597  0.0521
 1120loPI   C4B16912  18.802  12.085   7.681 -0.3226  0.0083  0.0767
 1121loPI    C116913   2.980  15.980   5.482 -0.1151 -0.0641  0.2378
 1121loPI    C216914   2.607  15.856   5.408 -0.0756  0.0538 -0.1844
 1121loPI    C316915   2.857  15.932   5.104  0.2159  0.2124  0.0889
 1121loPI   PO416916   3.032  15.773   5.739 -0.3084 -0.0055  0.2704
 1121loPI   GL116917   3.069  15.843   6.171 -0.0748  0.2126 -0.0559
 1121loPI   GL216918   2.752  15.965   6.070  0.0964  0.0261  0.1488
 1121loPI   C1A16919   2.904  15.398   6.187 -0.1570 -0.2204 -0.0880
 1121loPI   C2A16920   2.647  15.153   6.488  0.1334 -0.1887 -0.0636
 1121loPI   C3A16921   2.633  15.252   6.823 -0.1828  0.2322  0.1643
 1121loPI   C4A16922   2.630  15.544   7.044  0.3771 -0.2281  0.2791
 1121loPI   C5A16923   2.524  15.915   7.311 -0.1854 -0.1411 -0.1457
 1121loPI   C6A16924   2.206  16.020   7.587  0.1359 -0.2748 -0.0762
 1121loPI   C1B16925   2.860  16.101   6.519 -0.0856  0.2001  0.2047
 1121loPI   C2B16926   2.779  16.071   6.884  0.1586 -0.1366  0.1167
 1121loPI   C3B16927   2.864  16.306   7.254  0.2290 -0.0221  0.0753
 1121loPI   C4B16928   2.968  16.056   7.630  0.0175 -0.0592  0.1540
 1122loPI    C116929   1.845  13.260   4.907  0.1944  0.3259 -0.0529
 1122loPI    C216930   2.146  13.110   4.690  0.0273  0.0381 -0.0912
 1122loPI    C316931   1.795  12.919   4.704  0.0782 -0.0307  0.5506
 1122loPI   PO416932   1.953  13.328   5.179  0.5034  0.2416  0.1384
 1122loPI   GL116933   1.935  13.623   5.526  0.0350  0.0734 -0.1084
 1122loPI   GL216934   2.124  13.717   5.750 -0.0219 -0.1920  0.1080
 1122loPI   C1A16935   1.632  13.619   5.863  0.2282  0.0945 -0.2456
 1122loPI   C2A16936   1.394  13.633   6.286 -0.2554 -0.0924 -0.1369
 1122loPI   C3A16937   1.234  13.769   6.771 -0.1177  0.0093 -0.1393
 1122loPI   C4A16938   1.284  13.955   7.153  0.2616  0.1934 -0.2300
 1122loPI   C5A16939   1.233  13.673   7.526 -0.0694 -0.0408  0.1105
 1122loPI   C6A16940   0.842  13.591   7.699  0.1407  0.1560  0.1813
 1122loPI   C1B16941   2.335  13.767   6.161 -0.3407  0.0476  0.3331
 1122loPI   C2B16942   2.431  13.910   6.580  0.0357  0.1522 -0.1911
 1122loPI   C3B16943   2.370  13.999   7.056 -0.1593  0.1776 -0.0362
 1122loPI   C4B16944   2.579  13.985   7.475  0.1836  0.1750  0.0956
 1123loPI    C116945   0.829  16.446   5.117  0.2164  0.4694 -0.1575
 1123loPI    C216946   1.144  16.256   4.959  0.1379  0.2817 -0.0914
 1123loPI    C316947   0.856  16.399   4.721  0.0432  0.0413 -0.1243
 1123loPI   PO416948   0.919  16.506   5.318  0.1210 -0.2512  0.2145
 1123loPI   GL116949   1.067  16.275   5.725 -0.2339  0.0258  0.1562
 1123loPI   GL216950   1.234  15.981   5.779  0.2597  0.2064  0.0885
 1123loPI   C1A16951   0.869  16.272   6.121 -0.1407  0.1633  0.0537
 1123loPI   C2A16952   0.895  16.218   6.580  0.1609  0.0831 -0.1520
 1123loPI   C3A16953   0.979  16.174   7.004  0.1548 -0.0590 -0.0531
 1123loPI   C4A16954   1.214  16.155   7.445 -0.0957  0.2925 -0.2654
 1123loPI   C5A16955   1.244  16.531   7.750 -0.1809  0.0594  0.0212
 1123loPI   C6A16956   1.016  16.805   7.514 -0.3354  0.1349  0.1977
 1123loPI   C1B16957   1.385  16.094   6.267 -0.0244  0.0239 -0.2354
 1123loPI   C2B16958   1.372  16.101   6.618 -0.0280 -0.0198 -0.4012
 1123loPI   C3B16959   1.404  15.916   7.066 -0.2523 -0.1725 -0.0319
 1123loPI   C4B16960   1.654  15.711   7.476  0.1380 -0.0775  0.0176
 1124loPI    C116961  11.644   6.090   5.692  0.3317  0.0232 -0.2042
 1124loPI    C216962  11.700   6.429   5.487 -0.1915  0.0792 -0.2674
 1124loPI    C316963  11.428   6.163   5.364 -0.2250 -0.0764  0.1277
 1124loPI   PO416964  11.703   6.258   5.991 -0.1318 -0.0722 -0.0031
 1124loPI   GL116965  11.517   6.484   6.326  0.3405  0.0044 -0.0109
 1124loPI   GL216966  11.346   6.148   6.367  0.2119 -0.1253  0.0043
 1124loPI   C1A16967  11.393   6.547   6.744  0.2058 -0.1641  0.1700
 1124loPI   C2A16968  11.277   6.381   7.076 -0.0060  0.1424  0.1002
 1124loPI   C3A16969  11.021   6.585   7.316 -0.1906 -0.2618  0.0124
 1124loPI   C4A16970  10.910   6.842   7.689  0.0135  0.0589 -0.0233
 1124loPI   C5A16971  11.020   7.191   7.910 -0.0362 -0.2637 -0.0086
 1124loPI   C6A16972  11.351   7.245   8.129 -0.1156  0.0784 -0.0417
 1124loPI   C1B16973  11.653   6.114   6.666  0.0047 -0.1362 -0.0378
 1124loPI   C2B16974  11.987   6.279   6.656 -0.1948  0.0987 -0.0914
 1124loPI   C3B16975  12.154   6.421   7.086 -0.1195  0.1731 -0.1310
 1124loPI   C4B16976  12.262   6.319   7.483  0.3205  0.1620  0.0168
 1125loPI    C116977   2.313   1.016   5.368 -0.4495 -0.2054 -0.0605
 1125loPI    C216978   2.408   1.190   5.020 -0.1117  0.0240  0.1401
 1125loPI    C316979   2.073   1.295   5.211  0.0559  0.4201  0.2276
 1125loPI   PO416980   2.478   0.966   5.504  0.1134 -0.1873 -0.1467
 1125loPI   GL116981   2.587   1.149   5.874 -0.0032 -0.0295  0.4062
 1125loPI   GL216982   2.305   1.133   6.020 -0.3476 -0.0060 -0.1518
 1125loPI   C1A16983   2.840   1.255   6.283 -0.0827  0.1084 -0.3204
 1125loPI   C2A16984   2.989   1.208   6.744 -0.0984  0.1904 -0.0420
 1125loPI   C3A16985   3.137   1.277   7.174 -0.0207  0.1949 -0.3460
 1125loPI   C4A16986   3.561   1.266   7.513 -0.2207 -0.1263 -0.2900
 1125loPI   C5A16987   3.655   0.950   7.913  0.2038  0.0764 -0.0394
 1125loPI   C6A16988   3.615   1.051   8.340  0.2798 -0.1324 -0.3931
 1125loPI   C1B16989   2.401   1.255   6.510 -0.1063 -0.0395 -0.1147
 1125loPI   C2B16990   2.359   1.176   6.940 -0.2909  0.1456  0.1184
 1125loPI   C3B16991   2.363   0.804   7.070 -0.2817  0.1501  0.1753
 1125loPI   C4B16992   2.185   0.541   7.481  0.1384  0.1575  0.1842
 1126loPI    C116993   7.822   9.751   5.210  0.0955  0.0377  0.0749
 1126loPI    C216994   7.558   9.616   4.941 -0.2873 -0.1388  0.5252
 1126loPI    C316995   7.947   9.536   4.897 -0.2619  0.3222 -0.2743
 1126loPI   PO416996   7.739   9.664   5.436  0.0069  0.0732  0.2005
 1126loPI   GL116997   7.641   9.703   5.845  0.2438  0.1804  0.0641
 1126loPI   GL216998   7.580   9.978   5.985 -0.1244  0.0024  0.1121
 1126loPI   C1A16999   7.553   9.497   6.257 -0.0384  0.1097 -0.0438
 1126loPI   C2A17000   7.567   9.459   6.745 -0.1231 -0.2645  0.0658
 1126loPI   C3A17001   7.541   9.555   7.086  0.0611 -0.3137 -0.0344
 1126loPI   C4A17002   7.413   9.583   7.480 -0.0166 -0.1603 -0.0605
 1126loPI   C5A17003   7.250   9.424   7.808 -0.0562  0.1439  0.1584
 1126loPI   C6A17004   7.348   9.184   8.152  0.1872 -0.0215  0.0019
 1126loPI   C1B17005   7.273   9.966   6.399  0.2363 -0.1183 -0.1204
 1126loPI   C2B17006   7.217   9.849   6.801 -0.3408  0.1457  0.1954
 1126loPI   C3B17007   6.995   9.775   7.109  0.0120 -0.0925 -0.1762
 1126loPI   C4B17008   6.912   9.506   7.476 -0.2848  0.1693 -0.0673
 1127loPI    C117009   0.566   8.553   5.257 -0.0877  0.0286  0.1860
 1127loPI    C217010   0.404   8.813   5.000 -0.1795 -0.0233  0.1908
 1127loPI    C317011   0.276   8.434   5.009 -0.3262  0.0308  0.4586
 1127loPI   PO417012   0.801   8.636   5.298 -0.2626 -0.1986 -0.1507
 1127loPI   GL117013   1.118   8.493   5.659  0.3533 -0.1169 -0.3469
 1127loPI   GL217014   0.848   8.691   5.762  0.0330  0.0347  0.0209
 1127loPI   C1A17015   1.372   8.227   5.962  0.1721  0.1124 -0.2522
 1127loPI   C2A17016   1.676   8.181   6.340 -0.1727  0.1134 -0.2575
 1127loPI   C3A17017   1.864   8.136   6.820 -0.1251  0.0848 -0.4551
 1127loPI   C4A17018   2.013   8.133   7.277 -0.0347 -0.0609 -0.0456
 1127loPI   C5A17019   2.079   8.257   7.741  0.0377 -0.0879 -0.4922
 1127loPI   C6A17020   2.352   8.258   7.989 -0.0422 -0.0970 -0.1753
 1127loPI   C1B17021   0.949   8.801   6.206  0.2525  0.0287 -0.0456
 1127loPI   C2B17022   0.986   8.861   6.576 -0.0578 -0.0557 -0.0539
 1127loPI   C3B17023   0.782   8.649   6.898 -0.1295 -0.0522  0.2260
 1127loPI   C4B17024   0.495   8.762   7.199 -0.0561  0.0313  0.2706
 1128loPI    C117025   8.430   1.097   4.853  0.0374 -0.1263  0.0517
 1128loPI    C217026   8.648   1.096   4.518  0.0929 -0.2143  0.0880
 1128loPI    C317027   8.516   1.442   4.669  0.1442 -0.1670  0.0251
 1128loPI   PO417028   8.538   0.949   5.061 -0.2619 -0.2333  0.2362
 1128loPI   GL117029   8.677   1.063   5.413 -0.0175 -0.0833 -0.1748
 1128loPI   GL217030   8.500   1.121   5.539 -0.1374  0.0835  0.3096
 1128loPI   C1A17031   8.847   0.808   5.727 -0.3053  0.0616 -0.1526
 1128loPI   C2A17032   8.884   0.564   6.147  0.4706  0.0937 -0.0544
 1128loPI   C3A17033   8.726   0.402   6.558 -0.2427  0.1506 -0.0453
 1128loPI   C4A17034   8.857   0.302   6.923 -0.0307 -0.0754  0.2751
 1128loPI   C5A17035   8.635   0.010   7.283 -0.2245 -0.0583  0.2942
 1128loPI   C6A17036   8.497  -0.196   7.615  0.1382 -0.2611  0.5700
 1128loPI   C1B17037   8.425   1.061   5.989  0.4217 -0.1794  0.2693
 1128loPI   C2B17038   8.495   0.834   6.349 -0.1279  0.0006  0.2977
 1128loPI   C3B17039   8.616   0.929   6.742  0.3202  0.2187 -0.1290
 1128loPI   C4B17040   8.875   0.810   7.033  0.0028  0.4578 -0.0846
 1129loPI    C117041   4.763  18.551   4.747 -0.0133 -0.0418  0.0773
 1129loPI    C217042   4.621  18.733   4.421  0.1390  0.1561  0.1193
 1129loPI    C317043   4.715  18.344   4.408  0.1739  0.1696 -0.0815
 1129loPI   PO417044   4.727  18.828   4.922  0.3022 -0.3980 -0.0230
 1129loPI   GL117045   4.865  19.085   5.306  0.0219  0.4372  0.0055
 1129loPI   GL217046   4.895  19.326   5.547 -0.0416  0.0450 -0.0433
 1129loPI   C1A17047   5.159  18.897   5.576 -0.0255 -0.1728 -0.5084
 1129loPI   C2A17048   5.394  18.930   5.953 -0.0054  0.3582 -0.0312
 1129loPI   C3A17049   5.595  18.866   6.383  0.0760 -0.1923 -0.3029
 1129loPI   C4A17050   5.650  18.873   6.827 -0.2035  0.0852 -0.1236
 1129loPI   C5A17051   5.769  19.052   7.173 -0.0298 -0.0250  0.0204
 1129loPI   C6A17052   6.181  18.987   7.344 -0.0824  0.0732  0.1209
 1129loPI   C1B17053   5.056  19.269   5.999 -0.2298 -0.0843  0.1801
 1129loPI   C2B17054   5.182  19.237   6.413 -0.3148  0.0033  0.1642
 1129loPI   C3B17055   5.179  19.281   6.825 -0.0299 -0.1386  0.1067
 1129loPI   C4B17056   5.108  19.341   7.279  0.0427  0.2465 -0.1344
 1130loPI    C117057   2.975   9.747   4.779  0.1204  0.1848 -0.1293
 1130loPI    C217058   3.308   9.659   4.576  0.1049 -0.1340 -0.0217
 1130loPI    C317059   2.993   9.815   4.385  0.2650  0.0379 -0.1488
 1130loPI   PO417060   2.981   9.845   4.958 -0.1165 -0.3958 -0.0761
 1130loPI   GL117061   2.923   9.790   5.306  0.1388 -0.1670 -0.2259
 1130loPI   GL217062   3.233   9.925   5.449  0.1185 -0.5160  0.3395
 1130loPI   C1A17063   2.942   9.702   5.758 -0.4807 -0.2086 -0.0822
 1130loPI   C2A17064   2.921   9.881   6.137 -0.0454 -0.0055  0.0672
 1130loPI   C3A17065   2.872   9.896   6.536 -0.0636  0.3936 -0.4643
 1130loPI   C4A17066   2.902  10.064   6.986  0.0340  0.3271  0.0182
 1130loPI   C5A17067   2.810  10.159   7.391 -0.0208 -0.0532 -0.2565
 1130loPI   C6A17068   2.825  10.511   7.641 -0.2132  0.1351  0.4441
 1130loPI   C1B17069   3.222  10.141   5.847  0.0866 -0.0407 -0.1060
 1130loPI   C2B17070   3.409  10.333   6.240  0.0967  0.0173  0.0968
 1130loPI   C3B17071   3.634  10.376   6.604  0.1129  0.1285  0.1076
 1130loPI   C4B17072   3.950  10.003   6.704 -0.0908 -0.1002 -0.0775
 1131loPI    C117073  10.545  15.086   5.011  0.0683  0.1978  0.0201
 1131loPI    C217074  10.403  14.786   5.234  0.1032  0.2643  0.1325
 1131loPI    C317075  10.536  14.714   4.864  0.1967  0.1255  0.1923
 1131loPI   PO417076  10.641  15.213   5.237  0.1596  0.0463  0.0741
 1131loPI   GL117077  10.689  15.360   5.608 -0.3527  0.0648  0.0043
 1131loPI   GL217078  10.424  15.339   5.747 -0.0750  0.0611 -0.2032
 1131loPI   C1A17079  10.745  15.644   5.966 -0.0126 -0.0212 -0.1539
 1131loPI   C2A17080  10.704  15.742   6.416 -0.1053  0.0531  0.0393
 1131loPI   C3A17081  10.442  15.852   6.746  0.1582 -0.3525 -0.0903
 1131loPI   C4A17082  10.476  15.794   7.211  0.1042  0.0094 -0.2441
 1131loPI   C5A17083  10.290  15.613   7.524  0.3131  0.0138  0.1541
 1131loPI   C6A17084   9.942  15.331   7.581  0.0710  0.1759  0.1283
 1131loPI   C1B17085  10.489  15.323   6.194  0.1857  0.0873  0.0131
 1131loPI   C2B17086  10.614  15.253   6.564 -0.0098  0.2349  0.0832
 1131loPI   C3B17087  10.460  15.379   6.973  0.1100  0.3474 -0.1575
 1131loPI   C4B17088  10.706  15.155   7.077 -0.0221 -0.0260 -0.1101
 1132loPI    C117089   6.925  13.919   5.059 -0.0453 -0.0504  0.0509
 1132loPI    C217090   6.622  13.660   5.089 -0.0284 -0.0647  0.0988
 1132loPI    C317091   6.547  14.051   5.056 -0.0529 -0.0717  0.0708
 1132loPI   PO417092   7.095  13.921   5.220  0.1589 -0.0216  0.1323
 1132loPI   GL117093   7.149  14.104   5.542  0.2667 -0.3956 -0.1057
 1132loPI   GL217094   7.225  14.568   5.602  0.3921 -0.0119 -0.1777
 1132loPI   C1A17095   7.002  14.115   5.857 -0.0774 -0.4530  0.0865
 1132loPI   C2A17096   6.882  14.258   6.310 -0.0539 -0.0786  0.2607
 1132loPI   C3A17097   6.881  14.065   6.708 -0.2701 -0.0974  0.1264
 1132loPI   C4A17098   6.770  14.199   7.063  0.0309 -0.0973  0.0109
 1132loPI   C5A17099   7.013  14.173   7.369  0.0377 -0.1372 -0.0010
 1132loPI   C6A17100   7.158  14.308   7.803 -0.2687  0.0236 -0.2155
 1132loPI   C1B17101   7.060  14.611   6.002 -0.0606 -0.2499  0.0733
 1132loPI   C2B17102   7.038  14.679   6.517 -0.1799  0.2343  0.1739
 1132loPI   C3B17103   6.923  14.686   6.973 -0.0349  0.0976  0.3455
 1132loPI   C4B17104   6.852  14.629   7.364  0.5296 -0.2016 -0.0888
 1133loPI    C117105  12.289   8.478   5.166 -0.1339 -0.0020  0.1156
 1133loPI    C217106  12.631   8.352   5.002 -0.1140  0.0400  0.1248
 1133loPI    C317107  12.301   8.378   4.779 -0.0871  0.0956  0.0915
 1133loPI   PO417108  12.352   8.429   5.442 -0.4651 -0.3236  0.2046
 1133loPI   GL117109  12.344   8.406   5.844  0.1229 -0.3615  0.1559
 1133loPI   GL217110  12.706   8.560   5.780 -0.1728 -0.1504 -0.0568
 1133loPI   C1A17111  12.211   8.487   6.151 -0.1953 -0.0991  0.0478
 1133loPI   C2A17112  12.041   8.378   6.532  0.0137  0.0376  0.2025
 1133loPI   C3A17113  12.059   8.304   6.921  0.1600 -0.0180 -0.0204
 1133loPI   C4A17114  11.956   8.490   7.192  0.0125  0.0102  0.2106
 1133loPI   C5A17115  12.076   8.309   7.635  0.0748 -0.2475  0.0481
 1133loPI   C6A17116  11.917   7.995   7.926  0.1342 -0.2591  0.0047
 1133loPI   C1B17117  12.799   8.648   6.193 -0.0083 -0.1441  0.0158
 1133loPI   C2B17118  12.403   8.812   6.515  0.0005  0.0545  0.1449
 1133loPI   C3B17119  12.346   8.965   6.898 -0.2630 -0.1477 -0.1992
 1133loPI   C4B17120  12.173   8.962   7.294 -0.3142  0.1243 -0.0595
 1134loPI    C117121  10.419   9.424   5.302 -0.1287  0.1301 -0.0979
 1134loPI    C217122  10.576   9.710   5.070 -0.0494  0.0885 -0.0960
 1134loPI    C317123  10.632   9.324   4.978  0.2614  0.0657  0.1722
 1134loPI   PO417124  10.458   9.638   5.557 -0.0827  0.1797  0.1454
 1134loPI   GL117125  10.165   9.552   5.914 -0.2263  0.3338  0.0624
 1134loPI   GL217126   9.913   9.700   5.871 -0.1477 -0.1093  0.0415
 1134loPI   C1A17127  10.079   9.519   6.383 -0.0870  0.2270  0.2387
 1134loPI   C2A17128  10.029   9.378   6.742  0.2573  0.0369 -0.2012
 1134loPI   C3A17129   9.755   9.206   7.104 -0.0035  0.0080  0.0637
 1134loPI   C4A17130   9.738   9.067   7.456  0.0090 -0.2005 -0.3201
 1134loPI   C5A17131   9.717   8.929   7.786  0.1536  0.1332 -0.2840
 1134loPI   C6A17132   9.400   9.124   8.022 -0.1327 -0.1956  0.0683
 1134loPI   C1B17133   9.769   9.911   6.175  0.1115  0.2325 -0.0819
 1134loPI   C2B17134   9.612   9.937   6.614 -0.1068  0.2952  0.4263
 1134loPI   C3B17135   9.460   9.845   7.059  0.4436 -0.1262 -0.3203
 1134loPI   C4B17136   9.570   9.819   7.537  0.1362  0.0115 -0.0345
 1135loPI    C117137  13.960   5.729   5.182 -0.2293 -0.1716  0.0138
 1135loPI    C217138  14.324   5.820   5.043 -0.2220 -0.0874  0.0873
 1135loPI    C317139  14.003   5.879   4.813 -0.2159  0.1147  0.1293
 1135loPI   PO417140  14.072   5.699   5.471 -0.0353 -0.0738 -0.0437
 1135loPI   GL117141  13.904   5.809   5.863  0.1740  0.1933  0.0614
 1135loPI   GL217142  13.983   6.196   5.968 -0.4613  0.3304  0.2684
 1135loPI   C1A17143  13.905   5.523   6.178  0.0107 -0.0259  0.2683
 1135loPI   C2A17144  13.704   5.431   6.595 -0.0808  0.0987 -0.0631
 1135loPI   C3A17145  13.350   5.304   6.934  0.0814 -0.0358 -0.1067
 1135loPI   C4A17146  13.300   5.383   7.404  0.2067 -0.0282 -0.1521
 1135loPI   C5A17147  13.267   5.351   7.785  0.1860 -0.0102  0.0782
 1135loPI   C6A17148  13.425   5.439   8.123  0.0285  0.0165 -0.0773
 1135loPI   C1B17149  13.817   6.062   6.351  0.2361 -0.0993 -0.3584
 1135loPI   C2B17150  13.659   6.265   6.720  0.2868 -0.1777 -0.0012
 1135loPI   C3B17151  13.415   6.262   7.086  0.1392 -0.2576  0.0747
 1135loPI   C4B17152  13.297   6.081   7.433 -0.1499  0.1958  0.1286
 1136loPI    C117153  10.920   9.483   5.393  0.1065  0.0350  0.0640
 1136loPI    C217154  11.300   9.597   5.443  0.1781 -0.2084  0.0880
 1136loPI    C317155  11.086   9.741   5.137  0.2391  0.0507  0.1650
 1136loPI   PO417156  10.876   9.406   5.645  0.2629  0.0578  0.1097
 1136loPI   GL117157  10.821   9.418   5.993 -0.2277  0.3348  0.3284
 1136loPI   GL217158  10.631   9.727   5.989 -0.2436  0.1589 -0.0947
 1136loPI   C1A17159  11.101   9.703   6.336  0.1668  0.1310  0.0712
 1136loPI   C2A17160  11.110   9.790   6.751 -0.0509 -0.0636  0.3409
 1136loPI   C3A17161  11.072   9.784   7.245  0.3391  0.0894  0.1687
 1136loPI   C4A17162  10.920   9.685   7.616  0.2837 -0.0296 -0.0451
 1136loPI   C5A17163  11.056   9.353   7.958  0.1028 -0.2458  0.3279
 1136loPI   C6A17164  11.400   9.068   8.098  0.0368  0.1409  0.0210
 1136loPI   C1B17165  10.585   9.617   6.408 -0.1792 -0.3144 -0.0348
 1136loPI   C2B17166  10.546   9.678   6.889 -0.0602 -0.1278 -0.0484
 1136loPI   C3B17167  10.520   9.777   7.357  0.2433 -0.0509  0.0172
 1136loPI   C4B17168  10.289  10.050   7.650  0.2645  0.0340 -0.1708
 1137loPI    C117169  17.443   8.671   5.406  0.1350  0.1154 -0.1194
 1137loPI    C217170  17.085   8.729   5.238  0.0744  0.1593  0.0234
 1137loPI    C317171  17.382   8.565   5.025 -0.1126 -0.1429 -0.0110
 1137loPI   PO417172  17.461   8.578   5.635  0.1364  0.1441  0.5886
 1137loPI   GL117173  17.376   8.738   6.020 -0.0869  0.1729  0.0092
 1137loPI   GL217174  17.324   8.470   6.147  0.1549 -0.2267  0.2863
 1137loPI   C1A17175  17.669   8.780   6.377 -0.0727  0.2235  0.2869
 1137loPI   C2A17176  17.697   8.816   6.739  0.1580 -0.2235 -0.2564
 1137loPI   C3A17177  17.856   8.938   7.034 -0.0507  0.0955 -0.2669
 1137loPI   C4A17178  18.049   8.850   7.361  0.2243 -0.0066 -0.0147
 1137loPI   C5A17179  18.255   8.539   7.641  0.0710 -0.1135  0.0515
 1137loPI   C6A17180  18.429   8.684   8.001 -0.0347  0.2034  0.5058
 1137loPI   C1B17181  17.443   8.410   6.532 -0.0368  0.1690  0.1571
 1137loPI   C2B17182  17.601   8.303   6.876  0.1808  0.0174 -0.1914
 1137loPI   C3B17183  17.422   8.086   7.245 -0.0096 -0.0819  0.3555
 1137loPI   C4B17184  17.448   7.997   7.703 -0.2677  0.1605 -0.2790
 1138loPI    C117185  12.309   7.922   5.406 -0.0590  0.0656 -0.1680
 1138loPI    C217186  12.586   7.866   5.122 -0.0166 -0.0759 -0.0999
 1138loPI    C317187  12.204   7.928   5.021 -0.0125 -0.1897 -0.1864
 1138loPI   PO417188  12.569   7.702   5.637  0.2624  0.1617 -0.0570
 1138loPI   GL117189  12.578   7.404   5.957  0.1682  0.0236  0.0249
 1138loPI   GL217190  12.421   7.230   6.221  0.1851 -0.3474  0.0886
 1138loPI   C1A17191  12.853   7.561   6.349 -0.1844  0.1444  0.1223
 1138loPI   C2A17192  12.766   7.689   6.812  0.2000 -0.0962 -0.0774
 1138loPI   C3A17193  12.765   7.940   7.186 -0.0315  0.1343 -0.2391
 1138loPI   C4A17194  12.852   8.034   7.518 -0.3021  0.0657 -0.1467
 1138loPI   C5A17195  12.674   8.310   7.835 -0.0983 -0.0818  0.4299
 1138loPI   C6A17196  12.422   8.732   7.731 -0.4275 -0.6684 -0.1605
 1138loPI   C1B17197  12.345   7.274   6.635  0.1959 -0.1730 -0.3500
 1138loPI   C2B17198  12.367   7.406   7.045  0.0032 -0.1546  0.4667
 1138loPI   C3B17199  12.599   7.474   7.315  0.2119 -0.1864 -0.2663
 1138loPI   C4B17200  12.887   7.592   7.670  0.1473 -0.1176  0.2260
 1139loPI    C117201   9.512   7.045   5.585 -0.0222 -0.1117  0.1214
 1139loPI    C217202   9.118   7.016   5.526 -0.0172 -0.2426  0.1495
 1139loPI    C317203   9.372   6.858   5.261  0.0234  0.1124 -0.0303
 1139loPI   PO417204   9.459   7.281   5.746 -0.1334 -0.1102 -0.0928
 1139loPI   GL117205   9.410   7.300   6.087 -0.2246 -0.0164  0.1282
 1139loPI   GL217206   9.281   6.991   6.105  0.4481 -0.0650 -0.3438
 1139loPI   C1A17207   9.188   7.237   6.475  0.0293  0.0048 -0.1240
 1139loPI   C2A17208   9.210   7.165   6.827  0.2354 -0.1262 -0.1368
 1139loPI   C3A17209   9.163   7.207   7.201 -0.1257  0.2322 -0.2238
 1139loPI   C4A17210   8.869   7.012   7.493 -0.1008  0.0654  0.1898
 1139loPI   C5A17211   8.820   6.892   7.886  0.0680  0.1178  0.1795
 1139loPI   C6A17212   8.503   6.653   7.929 -0.1986  0.0600 -0.0935
 1139loPI   C1B17213   9.639   6.947   6.525  0.0081 -0.0290 -0.3047
 1139loPI   C2B17214   9.905   7.018   6.747 -0.1893  0.0838  0.1721
 1139loPI   C3B17215  10.236   6.733   6.866 -0.2391 -0.3307 -0.0851
 1139loPI   C4B17216  10.702   6.684   6.887  0.1478  0.3012  0.0654
 1140loPI    C117217  17.912  10.453   5.460  0.0255  0.6217  0.3592
 1140loPI    C217218  18.199  10.486   5.183 -0.1740  0.0189  0.0610
 1140loPI    C317219  17.905  10.757   5.199 -0.1162  0.1054 -0.2655
 1140loPI   PO417220  18.001  10.358   5.652 -0.2372  0.0626  0.0436
 1140loPI   GL117221  18.053  10.519   6.080 -0.0105 -0.0137 -0.2385
 1140loPI   GL217222  17.904  10.212   6.192  0.0667  0.0592  0.0326
 1140loPI   C1A17223  17.862  10.623   6.507  0.0285 -0.0588 -0.0768
 1140loPI   C2A17224  17.771  10.300   6.881  0.1802 -0.0847 -0.0964
 1140loPI   C3A17225  17.826  10.413   7.249 -0.1760  0.0773 -0.1962
 1140loPI   C4A17226  18.000  10.395   7.611 -0.1550 -0.1939  0.0701
 1140loPI   C5A17227  18.242  10.332   7.993 -0.0247  0.1352  0.0684
 1140loPI   C6A17228  18.281  10.256   8.394  0.3830  0.2360 -0.4087
 1140loPI   C1B17229  18.197  10.251   6.516 -0.0008 -0.0533 -0.0760
 1140loPI   C2B17230  18.288  10.246   7.017  0.2515 -0.2372  0.0076
 1140loPI   C3B17231  18.529  10.297   7.493 -0.0617  0.0617  0.1337
 1140loPI   C4B17232  18.853  10.079   7.681  0.1841 -0.1024 -0.0871
 1141loPI    C117233   9.888  18.648   4.913  0.0793  0.0603  0.1186
 1141loPI    C217234  10.214  18.879   4.932  0.1010  0.0629 -0.2240
 1141loPI    C317235  10.173  18.615   4.635 -0.1150 -0.0850 -0.0663
 1141loPI   PO417236   9.950  18.508   5.235 -0.0652 -0.0916 -0.2295
 1141loPI   GL117237   9.732  18.556   5.627  0.0370 -0.4325 -0.0460
 1141loPI   GL217238   9.632  18.290   5.667 -0.1683  0.1339  0.2067
 1141loPI   C1A17239   9.712  18.650   6.053 -0.0737 -0.1099  0.2218
 1141loPI   C2A17240   9.687  18.699   6.475  0.2419  0.2316 -0.0673
 1141loPI   C3A17241   9.795  18.904   6.809  0.0182 -0.1387  0.2745
 1141loPI   C4A17242   9.590  19.225   7.111 -0.1378 -0.0110 -0.0778
 1141loPI   C5A17243   9.756  19.567   7.291  0.1935 -0.2709 -0.2606
 1141loPI   C6A17244   9.820  19.459   7.730 -0.0885 -0.2665  0.0523
 1141loPI   C1B17245   9.694  18.079   5.980  0.2418  0.3455  0.2604
 1141loPI   C2B17246   9.416  17.730   6.004  0.0760  0.2845 -0.2528
 1141loPI   C3B17247   9.340  17.376   6.253 -0.0876 -0.1589 -0.2480
 1141loPI   C4B17248   9.267  17.350   6.644  0.0805  0.0886  0.0072
 1142loPI    C117249   5.350  10.296   5.043  0.2027  0.0378  0.1038
 1142loPI    C217250   5.290  10.071   4.717 -0.0075  0.1960  0.0308
 1142loPI    C317251   5.508  10.406   4.692  0.0824  0.1418  0.0815
 1142loPI   PO417252   5.472  10.128   5.224 -0.1925  0.0072 -0.1593
 1142loPI   GL117253   5.308  10.063   5.784  0.1564  0.1243 -0.2044
 1142loPI   GL217254   5.367  10.384   5.724  0.0165  0.0166  0.0423
 1142loPI   C1A17255   5.154   9.937   6.173 -0.0901 -0.1850  0.1041
 1142loPI   C2A17256   5.091   9.896   6.558 -0.1221 -0.0477 -0.0341
 1142loPI   C3A17257   5.234   9.642   7.014 -0.1653 -0.2408 -0.0594
 1142loPI   C4A17258   5.298   9.753   7.414 -0.0697 -0.0782  0.1291
 1142loPI   C5A17259   5.282   9.796   7.866 -0.1546 -0.2616  0.0756
 1142loPI   C6A17260   5.324  10.013   8.149 -0.1676 -0.0755 -0.4493
 1142loPI   C1B17261   5.355  10.380   6.215  0.0494 -0.1896  0.1451
 1142loPI   C2B17262   5.522  10.409   6.609  0.0094 -0.0865 -0.2340
 1142loPI   C3B17263   5.566  10.528   7.073 -0.0057  0.1373 -0.1430
 1142loPI   C4B17264   5.555  10.872   7.368  0.2210  0.1015  0.1436
 1143loPI    C117265   3.422  13.685   4.975  0.2361  0.1632  0.0687
 1143loPI    C217266   3.597  14.028   4.867  0.1744  0.1428 -0.0981
 1143loPI    C317267   3.198  14.001   4.874  0.1788  0.1014  0.0012
 1143loPI   PO417268   3.443  13.646   5.190 -0.1333  0.1218 -0.2306
 1143loPI   GL117269   3.698  13.394   5.442  0.1265  0.2328 -0.0157
 1143loPI   GL217270   4.034  13.431   5.478  0.2392 -0.2353 -0.0350
 1143loPI   C1A17271   3.727  13.796   5.757 -0.3374 -0.3948 -0.0704
 1143loPI   C2A17272   3.597  13.819   6.217 -0.0613 -0.1117  0.3544
 1143loPI   C3A17273   3.437  13.873   6.607  0.2605  0.2327 -0.2343
 1143loPI   C4A17274   3.378  14.088   6.977 -0.1840 -0.2150 -0.1929
 1143loPI   C5A17275   3.154  14.189   7.317 -0.0381  0.1179 -0.1188
 1143loPI   C6A17276   2.876  14.441   7.481  0.2987 -0.1795 -0.0418
 1143loPI   C1B17277   4.112  13.237   5.824 -0.2073 -0.0540  0.1021
 1143loPI   C2B17278   4.273  13.155   6.179 -0.3090  0.0220  0.1667
 1143loPI   C3B17279   3.918  13.069   6.512 -0.0691  0.0340  0.0058
 1143loPI   C4B17280   3.907  12.842   6.842 -0.2093 -0.0693 -0.2343
 1144loPI    C117281   9.085   5.445   5.054 -0.0949  0.1134  0.0022
 1144loPI    C217282   9.188   5.826   5.118  0.0960  0.1105 -0.2711
 1144loPI    C317283   8.956   5.732   4.806  0.0359  0.0049 -0.1947
 1144loPI   PO417284   9.046   5.389   5.317  0.2659 -0.1221  0.0744
 1144loPI   GL117285   9.122   5.237   5.702  0.1857  0.2062 -0.0690
 1144loPI   GL217286   8.906   4.957   5.762  0.0690  0.2093  0.1750
 1144loPI   C1A17287   9.169   5.291   6.067  0.1783 -0.2128 -0.0232
 1144loPI   C2A17288   9.066   5.369   6.580  0.1327  0.1133 -0.0943
 1144loPI   C3A17289   9.100   5.284   6.979 -0.0468  0.2261 -0.2967
 1144loPI   C4A17290   8.919   5.235   7.419  0.0433 -0.1832  0.1014
 1144loPI   C5A17291   9.086   5.424   7.845 -0.1474  0.1110 -0.1783
 1144loPI   C6A17292   9.194   5.545   8.291 -0.0205  0.0921 -0.0072
 1144loPI   C1B17293   8.996   4.892   6.278  0.0408 -0.0371  0.2790
 1144loPI   C2B17294   8.948   4.846   6.719 -0.0080  0.2685 -0.0896
 1144loPI   C3B17295   9.128   4.808   7.122  0.0997 -0.1456  0.0683
 1144loPI   C4B17296   9.319   4.641   7.438  0.0218  0.0781 -0.0290
 1145loPI    C117297  11.303  14.695   5.080  0.1207  0.0180  0.1091
 1145loPI    C217298  11.405  15.080   5.034  0.2134 -0.0230 -0.0357
 1145loPI    C317299  11.082  14.935   4.848  0.1315  0.0039  0.0843
 1145loPI   PO417300  11.398  14.653   5.280  0.1195  0.0503  0.0396
 1145loPI   GL117301  11.216  14.525   5.596  0.1325 -0.0800  0.0031
 1145loPI   GL217302  11.381  14.876   5.777  0.2291 -0.0658  0.0447
 1145loPI   C1A17303  11.158  14.417   5.943 -0.3381  0.0103 -0.0258
 1145loPI   C2A17304  11.325  14.324   6.362 -0.1581  0.1973  0.1506
 1145loPI   C3A17305  11.362  14.300   6.787  0.1417  0.1508  0.0889
 1145loPI   C4A17306  11.375  14.219   7.187 -0.2275  0.1559 -0.0558
 1145loPI   C5A17307  11.703  14.071   7.645 -0.1104  0.2805  0.0303
 1145loPI   C6A17308  11.677  13.855   8.061  0.0219 -0.0420  0.1912
 1145loPI   C1B17309  11.374  14.904   6.205 -0.0800  0.0434  0.0530
 1145loPI   C2B17310  11.316  14.873   6.565  0.2787 -0.2071 -0.1874
 1145loPI   C3B17311  11.294  14.938   7.056  0.3513 -0.0355  0.0936
 1145loPI   C4B17312  11.185  14.771   7.529  0.2907 -0.1840  0.1773
 1146loPI    C117313   5.250  16.253   4.796 -0.0080 -0.2944  0.1049
 1146loPI    C217314   4.888  16.116   4.695 -0.1090  0.0550 -0.0195
 1146loPI    C317315   5.216  15.937   4.554 -0.2316 -0.2418  0.0653
 1146loPI   PO417316   5.259  16.295   5.093  0.0964  0.2817 -0.1159
 1146loPI   GL117317   5.125  16.344   5.506  0.1337  0.1931  0.1161
 1146loPI   GL217318   4.889  16.148   5.726 -0.0570 -0.2080 -0.1075
 1146loPI   C1A17319   5.414  16.231   5.839  0.2402  0.2883 -0.0087
 1146loPI   C2A17320   5.442  16.163   6.315 -0.1291 -0.1457  0.2145
 1146loPI   C3A17321   5.173  16.024   6.544 -0.2269 -0.0973  0.1690
 1146loPI   C4A17322   4.771  16.221   6.885  0.0549 -0.0103 -0.2819
 1146loPI   C5A17323   4.556  16.365   7.208  0.1159  0.0359  0.1812
 1146loPI   C6A17324   4.556  16.212   7.565  0.2648  0.2863 -0.0217
 1146loPI   C1B17325   4.958  16.134   6.100  0.2067  0.3177  0.0192
 1146loPI   C2B17326   4.588  16.244   6.440 -0.1156 -0.1532 -0.2672
 1146loPI   C3B17327   4.380  16.513   6.667 -0.0051 -0.0205  0.2969
 1146loPI   C4B17328   4.206  16.701   7.085  0.1239  0.2184 -0.0732
 1147loPI    C117329   8.911   4.839   5.235  0.0419 -0.1788  0.0373
 1147loPI    C217330   8.595   5.084   5.212  0.1342 -0.0617  0.0074
 1147loPI    C317331   8.802   4.992   4.882  0.1558 -0.1060  0.0332
 1147loPI   PO417332   8.746   4.577   5.420  0.1124  0.1416 -0.0992
 1147loPI   GL117333   8.611   4.383   5.746  0.0103 -0.3372  0.1743
 1147loPI   GL217334   8.704   4.054   5.807  0.1495  0.3288  0.3981
 1147loPI   C1A17335   8.519   4.698   6.098  0.1519  0.0635  0.0426
 1147loPI   C2A17336   8.501   4.648   6.612  0.3011  0.0378 -0.0808
 1147loPI   C3A17337   8.540   4.682   7.079  0.0815 -0.1231  0.1761
 1147loPI   C4A17338   8.342   4.893   7.411  0.2313  0.3406 -0.0549
 1147loPI   C5A17339   8.156   5.117   7.723 -0.1368  0.0902 -0.1947
 1147loPI   C6A17340   7.695   5.294   7.754 -0.1272  0.2569 -0.3196
 1147loPI   C1B17341   8.708   4.258   6.283  0.2159 -0.0831  0.2552
 1147loPI   C2B17342   8.892   4.358   6.570  0.2711  0.2647 -0.0673
 1147loPI   C3B17343   8.942   4.413   6.922  0.1195  0.1484 -0.0257
 1147loPI   C4B17344   8.867   4.379   7.338 -0.1327  0.1608  0.1600
 1148POPI    C117345  14.150  10.748   5.684  0.1555 -0.1632 -0.0140
 1148POPI    C217346  13.838  10.655   5.452  0.0038 -0.0177  0.1287
 1148POPI    C317347  14.138  10.875   5.305  0.0562 -0.1844 -0.0183
 1148POPI   PO417348  14.150  10.511   5.868  0.1200  0.1518 -0.2183
 1148POPI   GL117349  14.337  10.455   6.262 -0.0735  0.4327 -0.0498
 1148POPI   GL217350  14.373  10.170   6.288  0.0732  0.3029  0.0172
 1148POPI   C1A17351  14.157  10.484   6.661  0.1182  0.2130 -0.1024
 1148POPI   D2A17352  13.838  10.634   6.779 -0.4567  0.0238 -0.1124
 1148POPI   C3A17353  13.709  10.774   7.107  0.2345 -0.1529  0.0601
 1148POPI   C4A17354  13.422  11.073   7.292  0.1419 -0.2738  0.0952
 1148POPI   C1B17355  14.364   9.988   6.702 -0.2494 -0.0574 -0.1747
 1148POPI   C2B17356  14.376   9.847   7.251  0.1924 -0.2457 -0.0408
 1148POPI   C3B17357  14.177   9.473   7.511  0.2029 -0.2521 -0.1719
 1148POPI   C4B17358  14.054   9.036   7.422 -0.0328 -0.4246  0.0462
 1149POPI    C117359  16.538   6.191   5.786 -0.1968 -0.1304  0.3713
 1149POPI    C217360  16.270   6.408   5.988 -0.0217  0.2368  0.2186
 1149POPI    C317361  16.236   6.369   5.592  0.0682  0.1613  0.2182
 1149POPI   PO417362  16.545   5.948   5.880 -0.0818  0.1584 -0.2686
 1149POPI   GL117363  16.571   5.648   6.298  0.0378 -0.2718  0.3001
 1149POPI   GL217364  16.876   5.790   6.483  0.1502 -0.2174  0.0912
 1149POPI   C1A17365  16.462   5.322   6.546  0.1122 -0.0260  0.1783
 1149POPI   D2A17366  16.474   5.269   6.975 -0.2194  0.0392 -0.0462
 1149POPI   C3A17367  16.624   5.108   7.329 -0.3135  0.1559 -0.0124
 1149POPI   C4A17368  16.577   4.848   7.772  0.0535 -0.2734 -0.0353
 1149POPI   C1B17369  16.753   5.639   6.830  0.1584  0.3175 -0.0543
 1149POPI   C2B17370  16.857   5.584   7.309  0.2304  0.0924 -0.2975
 1149POPI   C3B17371  16.803   5.379   7.698 -0.2701  0.4453 -0.1479
 1149POPI   C4B17372  16.554   5.510   8.057 -0.1431 -0.0837  0.1607
 1150POPI    C117373  13.930   4.282   5.066  0.0030  0.1945  0.1435
 1150POPI    C217374  14.240   4.405   5.288  0.1321  0.1332 -0.0004
 1150POPI    C317375  14.257   4.431   4.889 -0.0349  0.0968 -0.0107
 1150POPI   PO417376  13.865   3.892   5.146  0.0206  0.0231 -0.0141
 1150POPI   GL117377  13.823   3.704   5.519  0.0668 -0.0985 -0.0264
 1150POPI   GL217378  13.899   3.481   5.811  0.0099  0.4055  0.2061
 1150POPI   C1A17379  13.588   3.863   5.915 -0.0568 -0.1495 -0.1272
 1150POPI   D2A17380  13.492   3.837   6.309  0.2450  0.2320  0.0794
 1150POPI   C3A17381  13.491   4.037   6.663 -0.1208 -0.3764 -0.1236
 1150POPI   C4A17382  13.290   3.806   7.053 -0.3541  0.4447 -0.0281
 1150POPI   C1B17383  13.926   3.547   6.288 -0.0412  0.0220 -0.1402
 1150POPI   C2B17384  13.862   3.680   6.762  0.0029  0.2791  0.1130
 1150POPI   C3B17385  13.764   3.983   7.137 -0.1849 -0.0853  0.2022
 1150POPI   C4B17386  13.624   4.455   7.406 -0.0583 -0.0208  0.2607
 1151POPI    C117387   9.083   1.147   4.870  0.0038  0.2728  0.3110
 1151POPI    C217388   9.198   0.919   5.178  0.0738  0.1413  0.1891
 1151POPI    C317389   9.049   0.749   4.848  0.2665  0.2613  0.0380
 1151POPI   PO417390   8.933   1.315   5.014  0.4491 -0.3819  0.1173
 1151POPI   GL117391   8.977   1.425   5.315  0.1409 -0.0398 -0.0595
 1151POPI   GL217392   9.063   1.261   5.532  0.0915 -0.2290  0.3285
 1151POPI   C1A17393   8.956   1.704   5.666  0.0663 -0.0709 -0.0368
 1151POPI   D2A17394   8.790   1.980   5.949 -0.0573 -0.1516  0.1701
 1151POPI   C3A17395   8.714   2.027   6.453  0.0955  0.2243 -0.1262
 1151POPI   C4A17396   8.715   1.964   6.931 -0.3196  0.0796  0.1603
 1151POPI   C1B17397   8.930   1.288   5.945 -0.2243 -0.0542  0.2075
 1151POPI   C2B17398   8.961   1.048   6.342  0.0136  0.0557 -0.1059
 1151POPI   C3B17399   9.168   0.661   6.575  0.0742  0.0305 -0.0193
 1151POPI   C4B17400   9.571   0.536   6.589 -0.1046 -0.4147  0.2117
 1152POPI    C117401  11.659  12.808   5.174 -0.0193  0.0202  0.0134
 1152POPI    C217402  11.444  12.923   4.857 -0.1025 -0.1899 -0.0082
 1152POPI    C317403  11.576  12.546   4.883  0.0475 -0.1292  0.1271
 1152POPI   PO417404  11.566  13.066   5.339  0.2491  0.3220  0.2241
 1152POPI   GL117405  11.444  13.365   5.676 -0.0183 -0.0753 -0.0637
 1152POPI   GL217406  11.754  13.291   5.758 -0.0145 -0.2234 -0.0332
 1152POPI   C1A17407  11.298  13.400   6.056 -0.0422 -0.1063  0.0853
 1152POPI   D2A17408  11.576  13.414   6.466 -0.1031 -0.0875  0.2411
 1152POPI   C3A17409  11.562  13.193   6.738  0.2223  0.1452  0.0143
 1152POPI   C4A17410  11.662  13.314   7.139  0.1756  0.0713 -0.1174
 1152POPI   C1B17411  11.919  13.390   6.157  0.0055 -0.1378  0.1639
 1152POPI   C2B17412  12.079  13.611   6.453 -0.1026 -0.0994 -0.2584
 1152POPI   C3B17413  11.938  13.542   6.814  0.0136 -0.0172 -0.0222
 1152POPI   C4B17414  11.958  13.780   7.193  0.2155  0.1615  0.0678
 1153POPI    C117415  15.889  17.889   5.514  0.2334  0.0973 -0.1435
 1153POPI    C217416  16.066  18.148   5.265  0.2913  0.0003 -0.2038
 1153POPI    C317417  15.692  18.025   5.193  0.0927  0.4162  0.0721
 1153POPI   PO417418  16.045  18.003   5.785  0.1203  0.3334 -0.1743
 1153POPI   GL117419  15.973  17.722   6.080  0.0692 -0.1323  0.1923
 1153POPI   GL217420  15.860  17.436   6.026  0.1582  0.1349  0.0916
 1153POPI   C1A17421  16.057  17.897   6.496  0.1957 -0.1780  0.2524
 1153POPI   D2A17422  16.243  17.956   6.764 -0.3751 -0.2644  0.1146
 1153POPI   C3A17423  16.259  18.120   7.150  0.2778 -0.0931  0.0713
 1153POPI   C4A17424  16.075  18.475   7.521 -0.4003  0.0993  0.3271
 1153POPI   C1B17425  15.641  17.469   6.445 -0.0169 -0.1529 -0.1437
 1153POPI   C2B17426  15.646  17.307   6.819  0.3455  0.1246  0.3580
 1153POPI   C3B17427  15.632  17.108   7.227  0.0140  0.1049  0.1141
 1153POPI   C4B17428  15.601  17.208   7.638 -0.1176 -0.2439  0.0965
 1154POPI    C117429  14.326   9.273   6.030 -0.0712 -0.1966  0.0419
 1154POPI    C217430  14.288   9.309   5.634 -0.1692 -0.1424  0.0560
 1154POPI    C317431  14.494   9.003   5.788  0.1936  0.0431 -0.0475
 1154POPI   PO417432  14.382   9.596   6.082 -0.0056  0.1867 -0.1833
 1154POPI   GL117433  14.432   9.541   6.441 -0.0835 -0.2591 -0.2401
 1154POPI   GL217434  14.574   9.266   6.556  0.0930 -0.1762 -0.0724
 1154POPI   C1A17435  14.273   9.459   6.976  0.1154 -0.1134  0.1758
 1154POPI   D2A17436  13.935   9.628   7.154  0.1881  0.0747  0.0996
 1154POPI   C3A17437  13.840   9.850   7.486 -0.3662  0.2842  0.2339
 1154POPI   C4A17438  13.896   9.749   7.879 -0.0003 -0.3329 -0.1197
 1154POPI   C1B17439  14.650   9.165   7.053  0.1982 -0.2283  0.2877
 1154POPI   C2B17440  14.574   9.121   7.379  0.1322  0.2067 -0.0432
 1154POPI   C3B17441  14.632   9.182   7.681  0.2490  0.0882  0.0132
 1154POPI   C4B17442  14.806   9.113   8.041  0.2972 -0.1984 -0.2803
 1155POPI    C117443   7.041   3.036   5.212 -0.0090  0.0227 -0.0629
 1155POPI    C217444   7.227   2.890   4.888 -0.1085 -0.1662 -0.0361
 1155POPI    C317445   6.883   3.090   4.849 -0.0287 -0.0329 -0.0627
 1155POPI   PO417446   6.973   2.825   5.386 -0.3376  0.0937 -0.0540
 1155POPI   GL117447   6.756   2.880   5.765 -0.1684  0.3076  0.1546
 1155POPI   GL217448   7.011   2.735   5.940 -0.1794 -0.0035 -0.2939
 1155POPI   C1A17449   6.709   3.153   6.039 -0.1865 -0.4609  0.0436
 1155POPI   D2A17450   6.756   3.331   6.448 -0.0297  0.2076  0.2590
 1155POPI   C3A17451   6.598   3.170   6.805  0.1358 -0.0165  0.1686
 1155POPI   C4A17452   6.473   3.231   7.164  0.0686  0.1821 -0.0778
 1155POPI   C1B17453   7.034   2.926   6.391 -0.1605  0.1860  0.0325
 1155POPI   C2B17454   7.037   2.907   6.789 -0.0430 -0.1883  0.1233
 1155POPI   C3B17455   6.797   2.814   7.179 -0.1221  0.2109 -0.5504
 1155POPI   C4B17456   6.808   2.642   7.598  0.2056  0.0980  0.2675
 1156POPI    C117457  12.700   5.527   5.166 -0.0624 -0.2076 -0.2714
 1156POPI    C217458  12.499   5.635   4.837 -0.1897  0.1161 -0.0918
 1156POPI    C317459  12.899   5.639   4.837 -0.1904  0.2734 -0.1927
 1156POPI   PO417460  12.666   5.582   5.402  0.2167  0.2117 -0.2184
 1156POPI   GL117461  12.854   5.361   5.779  0.3527  0.0536  0.2266
 1156POPI   GL217462  12.686   5.043   5.823 -0.1452 -0.0888  0.1093
 1156POPI   C1A17463  13.231   5.276   5.937 -0.1197 -0.2059 -0.0206
 1156POPI   D2A17464  13.641   5.085   6.056 -0.1293 -0.0616  0.0237
 1156POPI   C3A17465  13.814   4.960   6.477  0.2475  0.1018 -0.1713
 1156POPI   C4A17466  14.171   4.685   6.643  0.1593 -0.1530 -0.0135
 1156POPI   C1B17467  12.700   4.922   6.273  0.1688 -0.0105 -0.1081
 1156POPI   C2B17468  12.432   5.054   6.597  0.0766 -0.0636  0.0053
 1156POPI   C3B17469  12.351   5.016   7.070  0.0596 -0.0768 -0.0317
 1156POPI   C4B17470  12.208   5.062   7.420 -0.3267  0.0099 -0.1399
 1157POPI    C117471   6.369   4.892   5.140  0.2281  0.1150 -0.0095
 1157POPI    C217472   6.164   5.105   4.871  0.2072  0.0871 -0.0158
 1157POPI    C317473   6.153   4.706   4.859  0.0400  0.0855  0.1519
 1157POPI   PO417474   6.590   5.062   5.224 -0.0495  0.0106  0.1194
 1157POPI   GL117475   6.723   4.904   5.552  0.1205  0.2557 -0.1357
 1157POPI   GL217476   6.409   4.784   5.666  0.1582  0.1900 -0.1536
 1157POPI   C1A17477   7.181   4.879   5.706 -0.0638  0.1435 -0.0504
 1157POPI   D2A17478   7.212   5.095   6.031 -0.0908  0.0311  0.1158
 1157POPI   C3A17479   7.423   4.986   6.386 -0.0333  0.1051  0.1852
 1157POPI   C4A17480   7.629   4.885   6.729 -0.0602 -0.0911 -0.1093
 1157POPI   C1B17481   6.706   4.634   5.971  0.1658 -0.0394  0.3867
 1157POPI   C2B17482   6.872   4.728   6.312  0.0352  0.0118 -0.2156
 1157POPI   C3B17483   7.054   4.842   6.762  0.0745 -0.0695 -0.0623
 1157POPI   C4B17484   6.992   4.963   7.171  0.0190  0.0709 -0.0638
 1158POPI    C117485   5.264   7.221   4.982 -0.1883 -0.1825 -0.1080
 1158POPI    C217486   5.178   7.377   4.624  0.1644 -0.1619 -0.1878
 1158POPI    C317487   5.504   7.150   4.670  0.2180 -0.0209  0.1588
 1158POPI   PO417488   5.134   7.306   5.168  0.2249  0.1511  0.1945
 1158POPI   GL117489   5.152   7.276   5.602  0.0954  0.1505  0.2202
 1158POPI   GL217490   4.787   7.175   5.613  0.2317  0.1746 -0.2551
 1158POPI   C1A17491   4.988   7.525   5.972  0.1073 -0.0522  0.0164
 1158POPI   D2A17492   4.680   7.738   6.238 -0.1548  0.0078  0.3539
 1158POPI   C3A17493   4.519   7.602   6.705 -0.1245  0.1620  0.3348
 1158POPI   C4A17494   4.288   7.573   7.115 -0.0556 -0.1131  0.0466
 1158POPI   C1B17495   4.739   7.079   6.011 -0.0848  0.0543 -0.0082
 1158POPI   C2B17496   4.631   7.254   6.356 -0.0372 -0.2478  0.2777
 1158POPI   C3B17497   4.575   7.027   6.729  0.2761 -0.0136 -0.2368
 1158POPI   C4B17498   4.459   7.126   7.033  0.0242  0.1143 -0.0312
 1159POPI    C117499   7.310   4.758   4.872 -0.1261  0.1238 -0.0201
 1159POPI    C217500   7.629   4.890   4.669 -0.0304  0.1299  0.1330
 1159POPI    C317501   7.459   4.542   4.570  0.0875  0.0764  0.1167
 1159POPI   PO417502   7.289   4.668   5.130  0.0255 -0.1797  0.2341
 1159POPI   GL117503   7.568   4.622   5.481 -0.0887  0.1202  0.1151
 1159POPI   GL217504   7.664   4.837   5.584  0.2357  0.2073  0.0285
 1159POPI   C1A17505   7.441   4.592   6.030 -0.0492 -0.1818  0.0187
 1159POPI   D2A17506   7.283   4.516   6.440 -0.3286  0.1934 -0.0221
 1159POPI   C3A17507   7.332   4.101   6.569  0.2836 -0.0937  0.0862
 1159POPI   C4A17508   7.262   3.797   6.862  0.4459 -0.2427  0.2236
 1159POPI   C1B17509   7.752   5.042   5.970 -0.1602  0.2282  0.0119
 1159POPI   C2B17510   8.135   4.965   6.281  0.0860 -0.0025  0.0777
 1159POPI   C3B17511   8.130   4.962   6.629  0.0805 -0.3405  0.1206
 1159POPI   C4B17512   8.030   4.949   7.018 -0.2879 -0.2266 -0.0441
 1160POPI    C117513   9.791   1.032   5.115 -0.1338 -0.2463 -0.2000
 1160POPI    C217514  10.123   1.102   5.327 -0.1424 -0.1510 -0.2178
 1160POPI    C317515  10.145   1.053   4.931 -0.1716  0.0422 -0.2444
 1160POPI   PO417516   9.686   0.841   5.272  0.1891 -0.3919  0.2302
 1160POPI   GL117517   9.623   0.683   5.608 -0.1273 -0.0276  0.0167
 1160POPI   GL217518   9.304   0.688   5.563 -0.0580  0.1385 -0.2876
 1160POPI   C1A17519   9.676   0.448   6.003  0.0651  0.0163 -0.1568
 1160POPI   D2A17520   9.979   0.421   6.345  0.4123  0.1770  0.0329
 1160POPI   C3A17521  10.179   0.054   6.368  0.2330  0.1238  0.1711
 1160POPI   C4A17522  10.442  -0.344   6.652  0.0571  0.1271 -0.0341
 1160POPI   C1B17523   9.307   0.934   6.006 -0.0198  0.1483 -0.2160
 1160POPI   C2B17524   9.432   1.186   6.402 -0.0456  0.3099 -0.0576
 1160POPI   C3B17525   9.499   0.965   6.821  0.3127 -0.3309  0.2868
 1160POPI   C4B17526   9.307   0.977   7.136 -0.0642 -0.0845 -0.0210
 1161POPI    C117527  15.760  13.924   4.984  0.2160  0.1154 -0.0984
 1161POPI    C217528  16.154  13.856   4.971  0.1743 -0.1290 -0.1306
 1161POPI    C317529  15.898  13.569   4.861 -0.0180 -0.0325  0.0571
 1161POPI   PO417530  15.733  14.032   5.312  0.1482  0.0869 -0.1245
 1161POPI   GL117531  15.834  13.879   5.680  0.0170  0.2110 -0.1296
 1161POPI   GL217532  15.810  14.170   5.802  0.0068 -0.1518 -0.0666
 1161POPI   C1A17533  15.917  13.808   6.124  0.2362 -0.0420 -0.1884
 1161POPI   D2A17534  15.796  13.846   6.575  0.2620 -0.0605 -0.1957
 1161POPI   C3A17535  15.787  13.990   7.050  0.2647 -0.4646 -0.3018
 1161POPI   C4A17536  15.500  13.893   7.350  0.0548 -0.0689  0.1135
 1161POPI   C1B17537  15.551  14.145   6.145  0.1599 -0.1431 -0.2558
 1161POPI   C2B17538  15.668  14.412   6.620 -0.2146  0.3142  0.2753
 1161POPI   C3B17539  15.788  14.495   7.181 -0.1458  0.1740 -0.0309
 1161POPI   C4B17540  15.670  14.267   7.579  0.1906  0.0941 -0.0434
 1162POPI    C117541   2.883   1.285   5.329 -0.0055  0.0419 -0.0621
 1162POPI    C217542   2.837   0.946   5.122  0.0460  0.0370 -0.0656
 1162POPI    C317543   3.131   1.200   5.027  0.0149  0.0769 -0.0553
 1162POPI   PO417544   2.997   1.268   5.552  0.2445  0.1077 -0.1497
 1162POPI   GL117545   3.275   1.270   5.903 -0.1366  0.1386 -0.0650
 1162POPI   GL217546   3.312   1.589   5.821 -0.1538  0.2826 -0.0281
 1162POPI   C1A17547   3.384   1.400   6.335 -0.1153 -0.1331 -0.0746
 1162POPI   D2A17548   3.514   1.373   6.814 -0.3018  0.1159 -0.0036
 1162POPI   C3A17549   3.628   1.105   7.025 -0.1325 -0.0115 -0.1738
 1162POPI   C4A17550   3.800   0.740   7.306  0.1647  0.0257  0.2273
 1162POPI   C1B17551   3.077   1.764   6.291  0.1566  0.2006 -0.0145
 1162POPI   C2B17552   2.987   1.683   6.746 -0.3915 -0.2062 -0.0238
 1162POPI   C3B17553   2.599   1.558   7.042  0.1397  0.0898  0.0121
 1162POPI   C4B17554   2.222   1.500   7.355  0.2326  0.1461 -0.1989
 1163POPI    C117555  11.933   3.665   4.793  0.1334  0.0787  0.1974
 1163POPI    C217556  12.072   4.014   4.929  0.0546  0.1221  0.1671
 1163POPI    C317557  11.679   3.942   4.928  0.0706  0.0341  0.1711
 1163POPI   PO417558  12.150   3.482   4.909 -0.2848 -0.5508  0.2581
 1163POPI   GL117559  12.102   3.409   5.310  0.2328 -0.1511 -0.2433
 1163POPI   GL217560  11.934   3.774   5.336  0.1867  0.2386 -0.2025
 1163POPI   C1A17561  12.280   3.161   5.658 -0.0509  0.2505 -0.3354
 1163POPI   D2A17562  12.226   3.082   6.117  0.3342 -0.2173 -0.0126
 1163POPI   C3A17563  12.198   3.090   6.582 -0.0079  0.0368  0.0591
 1163POPI   C4A17564  12.097   3.226   6.973  0.0428 -0.1206  0.0174
 1163POPI   C1B17565  11.889   3.669   5.805  0.0534 -0.0019  0.0390
 1163POPI   C2B17566  12.089   3.645   6.184 -0.3772  0.2079  0.1334
 1163POPI   C3B17567  12.118   3.623   6.606  0.2300 -0.0630 -0.3633
 1163POPI   C4B17568  12.218   3.757   6.960 -0.0366 -0.2867  0.0001
 1164POPI    C117569   6.919  15.386   4.728 -0.0671 -0.1367  0.1705
 1164POPI    C217570   7.171  15.369   5.039  0.1055 -0.1370  0.0319
 1164POPI    C317571   7.309  15.325   4.666 -0.1009 -0.1394 -0.0458
 1164POPI   PO417572   6.827  15.644   4.730  0.3968 -0.3911 -0.1359
 1164POPI   GL117573   6.678  15.792   5.115  0.0866  0.0905  0.0696
 1164POPI   GL217574   6.375  15.732   5.324 -0.1955 -0.2028  0.4186
 1164POPI   C1A17575   6.834  15.822   5.496 -0.1478 -0.0122  0.0805
 1164POPI   D2A17576   7.049  16.088   5.711  0.2497  0.2066 -0.1084
 1164POPI   C3A17577   6.961  15.992   6.058  0.1350 -0.4159  0.3323
 1164POPI   C4A17578   6.706  16.214   6.281 -0.0255 -0.1381  0.0558
 1164POPI   C1B17579   6.374  15.747   5.709 -0.3693 -0.0675 -0.2995
 1164POPI   C2B17580   6.357  15.790   6.233 -0.0721 -0.4763  0.1038
 1164POPI   C3B17581   6.437  15.919   6.621 -0.0547  0.0083 -0.2370
 1164POPI   C4B17582   6.315  16.163   6.883 -0.1056  0.0868  0.1448
 1165POPI    C117583  16.784  18.026   5.357 -0.2537  0.0545 -0.0594
 1165POPI    C217584  17.062  17.935   5.084  0.0443  0.0699  0.2333
 1165POPI    C317585  16.684  17.814   5.033  0.1345 -0.0843 -0.0935
 1165POPI   PO417586  16.888  18.234   5.450  0.1522  0.1292 -0.0394
 1165POPI   GL117587  17.086  18.426   5.837  0.2467 -0.0026  0.4479
 1165POPI   GL217588  17.361  18.638   5.855 -0.3000 -0.1206  0.1523
 1165POPI   C1A17589  17.114  18.283   6.248  0.2470  0.4014  0.0551
 1165POPI   D2A17590  16.942  18.181   6.539  0.0139  0.2560  0.1020
 1165POPI   C3A17591  16.661  18.243   6.863  0.0254 -0.2947 -0.2819
 1165POPI   C4A17592  16.604  18.420   7.270  0.2412  0.3721 -0.0286
 1165POPI   C1B17593  17.486  18.701   6.240 -0.0425  0.0673 -0.0162
 1165POPI   C2B17594  17.371  18.830   6.616 -0.2830 -0.0327 -0.3731
 1165POPI   C3B17595  17.207  18.468   6.888 -0.1600  0.2647  0.2640
 1165POPI   C4B17596  17.073  18.191   7.182 -0.0379 -0.1281  0.1133
 1166POPI    C117597   3.907   9.566   4.789 -0.0192  0.0185  0.0030
 1166POPI    C217598   4.048   9.202   4.700 -0.0124 -0.0183  0.1620
 1166POPI    C317599   3.839   9.408   4.428  0.0015 -0.1323  0.0646
 1166POPI   PO417600   3.805   9.519   5.040 -0.2800 -0.1079  0.2869
 1166POPI   GL117601   3.884   9.772   5.390 -0.2260 -0.3243 -0.0256
 1166POPI   GL217602   4.113   9.668   5.558 -0.0446  0.0618  0.1592
 1166POPI   C1A17603   3.749   9.877   5.889  0.1201  0.3889  0.1826
 1166POPI   D2A17604   3.422   9.768   6.152 -0.0079  0.0740 -0.1316
 1166POPI   C3A17605   3.378   9.962   6.622 -0.2602 -0.0426  0.0874
 1166POPI   C4A17606   3.443  10.030   7.094  0.2114 -0.0128  0.0131
 1166POPI   C1B17607   4.185   9.641   6.036 -0.1594 -0.0554  0.2752
 1166POPI   C2B17608   4.140   9.576   6.464 -0.0007  0.0804  0.0787
 1166POPI   C3B17609   4.194   9.632   6.880 -0.0605 -0.0122 -0.2975
 1166POPI   C4B17610   4.196   9.437   7.316  0.1459 -0.2607 -0.0936
 1167POPI    C117611   1.298  16.718   5.065  0.1887  0.2470  0.2127
 1167POPI    C217612   1.267  16.664   4.670 -0.0067 -0.0318  0.2631
 1167POPI    C317613   1.595  16.541   4.863 -0.0593 -0.2148  0.2381
 1167POPI   PO417614   1.079  16.944   5.064 -0.1130 -0.1942 -0.1018
 1167POPI   GL117615   1.052  17.146   5.468  0.0540 -0.0544  0.1495
 1167POPI   GL217616   0.859  16.964   5.557  0.1404  0.1743 -0.3527
 1167POPI   C1A17617   1.245  17.204   5.909 -0.0133  0.1856 -0.0322
 1167POPI   D2A17618   1.464  17.070   6.271 -0.3732  0.0245 -0.3707
 1167POPI   C3A17619   1.293  17.021   6.659  0.0884 -0.1853 -0.0142
 1167POPI   C4A17620   1.137  17.186   7.081  0.2115  0.0643 -0.0156
 1167POPI   C1B17621   0.849  16.776   5.999 -0.2795  0.1110  0.1536
 1167POPI   C2B17622   1.172  16.652   6.087 -0.5048  0.0849 -0.1950
 1167POPI   C3B17623   1.411  16.591   6.426 -0.0763  0.1076  0.3119
 1167POPI   C4B17624   1.293  16.515   6.850  0.1188 -0.2102  0.0208
 1168POPI    C117625  13.393   6.212   5.361  0.2136  0.0462  0.0985
 1168POPI    C217626  13.256   5.983   5.062  0.1272  0.2071  0.0135
 1168POPI    C317627  13.635   6.113   5.058  0.2035 -0.0080  0.1081
 1168POPI   PO417628  13.173   6.297   5.506 -0.1687 -0.0290  0.1814
 1168POPI   GL117629  13.028   6.420   5.896  0.0151  0.1970  0.1860
 1168POPI   GL217630  12.911   6.112   5.983  0.1244 -0.1220  0.1915
 1168POPI   C1A17631  12.995   6.596   6.323 -0.3265  0.1949  0.0630
 1168POPI   D2A17632  13.153   6.517   6.740  0.0641 -0.0103 -0.1752
 1168POPI   C3A17633  13.090   6.676   7.094  0.0363 -0.0114  0.2089
 1168POPI   C4A17634  12.915   6.565   7.530 -0.1929 -0.3951  0.1224
 1168POPI   C1B17635  13.269   6.148   6.382  0.1368 -0.1344 -0.1801
 1168POPI   C2B17636  13.417   5.828   6.732 -0.1447  0.1317  0.0085
 1168POPI   C3B17637  13.776   5.848   7.011  0.1287 -0.0574  0.0765
 1168POPI   C4B17638  13.707   5.616   7.506 -0.0840 -0.0535  0.4267
 1169POPI    C117639  10.427  18.428   5.064 -0.2316  0.0304 -0.0834
 1169POPI    C217640  10.163  18.152   4.947 -0.0096 -0.1183 -0.2431
 1169POPI    C317641  10.475  18.241   4.714  0.0665  0.0767 -0.0701
 1169POPI   PO417642  10.527  18.361   5.251  0.0542 -0.3106  0.4464
 1169POPI   GL117643  10.492  18.358   5.575 -0.2764 -0.2258  0.1621
 1169POPI   GL217644  10.567  18.149   5.807 -0.2361  0.1384 -0.2769
 1169POPI   C1A17645  10.202  18.400   5.893  0.1071 -0.2429 -0.0138
 1169POPI   D2A17646  10.049  18.289   6.327  0.1843  0.1726 -0.0957
 1169POPI   C3A17647   9.771  18.267   6.728  0.4122  0.0642 -0.2519
 1169POPI   C4A17648   9.630  18.098   7.031 -0.1077  0.0802  0.1627
 1169POPI   C1B17649  10.593  18.139   6.211 -0.3698  0.1359  0.1149
 1169POPI   C2B17650  10.719  17.937   6.658  0.0819  0.0518  0.3958
 1169POPI   C3B17651  10.679  17.646   7.072  0.0224 -0.0167  0.2075
 1169POPI   C4B17652  10.899  17.475   7.487  0.0900  0.2250  0.2255
 1170POPI    C117653   8.120   4.981   4.656  0.1098  0.0770  0.0235
 1170POPI    C217654   8.475   5.028   4.478  0.3798 -0.1444  0.4835
 1170POPI    C317655   8.362   4.666   4.606 -0.0872 -0.1061  0.2036
 1170POPI   PO417656   8.092   5.169   4.846 -0.1130  0.2322 -0.0094
 1170POPI   GL117657   8.098   5.293   5.319 -0.1828  0.1715 -0.1526
 1170POPI   GL217658   8.097   5.002   5.332 -0.0953 -0.1229  0.0092
 1170POPI   C1A17659   7.771   5.442   5.590 -0.3625  0.1389  0.1747
 1170POPI   D2A17660   7.434   5.491   5.851  0.0241  0.1360  0.1267
 1170POPI   C3A17661   7.619   5.428   6.315 -0.0532  0.2326  0.0862
 1170POPI   C4A17662   7.769   5.373   6.743  0.0405 -0.0328 -0.0809
 1170POPI   C1B17663   8.171   4.992   5.716  0.1461 -0.0322 -0.1669
 1170POPI   C2B17664   8.235   5.378   5.914  0.2137  0.1327 -0.1544
 1170POPI   C3B17665   8.134   5.514   6.352  0.0518  0.0439 -0.2362
 1170POPI   C4B17666   8.305   5.556   6.725  0.1636 -0.2736 -0.0002
 1171POPI    C117667   4.158  13.464   4.861 -0.1376  0.0445 -0.0278
 1171POPI    C217668   3.796  13.581   4.739 -0.0649  0.1880 -0.1092
 1171POPI    C317669   4.111  13.619   4.495  0.0112  0.0970 -0.0257
 1171POPI   PO417670   4.271  13.534   5.050 -0.0213  0.4656 -0.0264
 1171POPI   GL117671   4.425  13.747   5.476  0.1369 -0.1830  0.0307
 1171POPI   GL217672   4.216  13.854   5.748  0.1160  0.1179 -0.1837
 1171POPI   C1A17673   4.565  13.593   5.917  0.0714 -0.3075 -0.0067
 1171POPI   D2A17674   4.421  13.566   6.392 -0.0720  0.2226 -0.1258
 1171POPI   C3A17675   4.300  13.462   6.809  0.3312 -0.0173  0.2975
 1171POPI   C4A17676   4.191  13.696   7.149 -0.1191  0.1524  0.2261
 1171POPI   C1B17677   4.074  13.651   6.097 -0.0276 -0.0833 -0.0033
 1171POPI   C2B17678   3.892  13.567   6.519 -0.0623  0.1853 -0.1297
 1171POPI   C3B17679   3.778  13.330   6.949 -0.2629 -0.4443  0.1667
 1171POPI   C4B17680   3.451  13.332   7.288 -0.1430  0.2007 -0.2641
 1172POPI    C117681  15.683   1.914   5.130 -0.3512  0.1398 -0.3001
 1172POPI    C217682  16.016   2.114   5.227 -0.3472 -0.0244  0.0399
 1172POPI    C317683  15.915   2.067   4.843  0.1059 -0.1082 -0.0748
 1172POPI   PO417684  15.568   1.990   5.356 -0.0551 -0.0357 -0.2514
 1172POPI   GL117685  15.602   2.160   5.697  0.3898  0.1287  0.2211
 1172POPI   GL217686  15.901   2.296   5.777 -0.2061  0.0617 -0.0540
 1172POPI   C1A17687  15.447   1.971   6.185 -0.1626  0.2609 -0.5955
 1172POPI   D2A17688  15.581   1.589   6.278  0.3805 -0.1556  0.2581
 1172POPI   C3A17689  15.379   1.274   5.977  0.1767 -0.0562  0.2309
 1172POPI   C4A17690  15.615   0.918   5.842 -0.3059  0.0843 -0.0206
 1172POPI   C1B17691  15.921   2.199   6.207 -0.1418  0.3764 -0.0397
 1172POPI   C2B17692  15.883   1.888   6.510  0.1458 -0.3321  0.1367
 1172POPI   C3B17693  15.809   1.788   7.056 -0.1465  0.2213  0.1566
 1172POPI   C4B17694  16.087   1.705   7.338  0.1094  0.2461 -0.0572
 1173POPI    C117695  16.006  18.660   5.325 -0.2009 -0.0422  0.0884
 1173POPI    C217696  15.941  18.939   5.045  0.0191 -0.0920 -0.0147
 1173POPI    C317697  16.101  18.587   4.944  0.2509 -0.0505  0.1970
 1173POPI   PO417698  16.171  18.717   5.546  0.2703  0.0651 -0.0891
 1173POPI   GL117699  16.196  18.633   5.996 -0.1728  0.1624 -0.2289
 1173POPI   GL217700  15.896  18.515   6.081  0.1572 -0.3145 -0.1464
 1173POPI   C1A17701  16.359  18.911   6.142 -0.2561 -0.1004  0.0210
 1173POPI   D2A17702  16.621  19.074   6.367 -0.2851  0.2127 -0.2508
 1173POPI   C3A17703  16.642  19.219   6.771 -0.0331  0.1028  0.1471
 1173POPI   C4A17704  16.914  19.289   7.040 -0.3806  0.0741 -0.0314
 1173POPI   C1B17705  15.951  18.828   6.418  0.0655  0.1549  0.1382
 1173POPI   C2B17706  16.058  19.238   6.496  0.0907 -0.1634 -0.0780
 1173POPI   C3B17707  16.358  19.532   6.520 -0.1841 -0.0341 -0.0915
 1173POPI   C4B17708  16.730  19.554   6.263 -0.1877 -0.0164  0.1789
 1174POPI    C117709   3.322   5.468   5.136  0.0905  0.0053 -0.3785
 1174POPI    C217710   3.188   5.649   4.806 -0.1382  0.0049 -0.2881
 1174POPI    C317711   3.188   5.249   4.829 -0.2772  0.0078 -0.2260
 1174POPI   PO417712   3.435   5.659   5.239  0.0452 -0.1597  0.0722
 1174POPI   GL117713   3.295   5.740   5.638 -0.1233  0.1342 -0.0110
 1174POPI   GL217714   2.973   5.645   5.863  0.0239 -0.0669 -0.0265
 1174POPI   C1A17715   3.358   6.010   5.992 -0.0799 -0.0871 -0.0776
 1174POPI   D2A17716   3.747   6.096   6.226  0.0788 -0.0867 -0.0734
 1174POPI   C3A17717   3.578   5.965   6.622 -0.3686 -0.1375  0.1871
 1174POPI   C4A17718   3.284   5.756   6.885  0.1534 -0.1511  0.1701
 1174POPI   C1B17719   3.111   5.558   6.216  0.1319  0.0574  0.5008
 1174POPI   C2B17720   3.017   5.410   6.634  0.2743 -0.2494  0.0243
 1174POPI   C3B17721   2.898   5.421   7.165  0.0126 -0.0470 -0.2467
 1174POPI   C4B17722   2.666   5.461   7.437  0.0393  0.0767  0.0783
 1175POPI    C117723  11.242   7.334   5.522 -0.1128 -0.0545  0.2828
 1175POPI    C217724  10.920   7.285   5.291  0.0344 -0.1254  0.0899
 1175POPI    C317725  11.284   7.208   5.145  0.1619  0.2089  0.2221
 1175POPI   PO417726  11.266   7.547   5.592 -0.4015  0.0886  0.0017
 1175POPI   GL117727  11.293   7.623   5.977  0.0541 -0.1362 -0.1041
 1175POPI   GL217728  11.442   7.780   6.233 -0.2403 -0.1918  0.1693
 1175POPI   C1A17729  10.893   7.748   6.344 -0.0759  0.3066 -0.1678
 1175POPI   D2A17730  10.908   8.065   6.733  0.1640 -0.0612 -0.0314
 1175POPI   C3A17731  11.016   7.963   7.105  0.3270 -0.4895 -0.0861
 1175POPI   C4A17732  11.305   7.819   7.386 -0.1491  0.0585 -0.1069
 1175POPI   C1B17733  11.356   7.899   6.625 -0.0805  0.1969  0.0303
 1175POPI   C2B17734  11.585   7.850   6.996 -0.0597 -0.5335  0.1743
 1175POPI   C3B17735  11.813   7.749   7.331 -0.2375  0.2488 -0.0293
 1175POPI   C4B17736  11.923   7.588   7.727 -0.0055  0.2572 -0.2512
 1176POPI    C117737   0.145   2.615   5.374 -0.2777 -0.1013  0.0300
 1176POPI    C217738  -0.225   2.673   5.232 -0.1161  0.2528 -0.2629
 1176POPI    C317739   0.091   2.811   5.029  0.1632  0.1942  0.1206
 1176POPI   PO417740   0.195   2.681   5.590  0.3848 -0.4509  0.2039
 1176POPI   GL117741   0.419   2.586   6.007 -0.0505 -0.2105  0.1105
 1176POPI   GL217742   0.566   2.748   6.274  0.2638 -0.2276 -0.3098
 1176POPI   C1A17743   0.040   2.750   6.293 -0.0043  0.0751 -0.2501
 1176POPI   D2A17744  -0.036   2.822   6.747 -0.2506  0.0196 -0.0165
 1176POPI   C3A17745  -0.400   2.606   6.792 -0.1094 -0.1916 -0.2247
 1176POPI   C4A17746  -0.633   2.678   7.182  0.4861  0.1468 -0.2720
 1176POPI   C1B17747   0.394   2.497   6.575 -0.0725 -0.0544  0.2279
 1176POPI   C2B17748   0.432   2.583   6.937 -0.3797  0.2086 -0.2071
 1176POPI   C3B17749   0.364   2.424   7.356  0.1021 -0.0333 -0.0884
 1176POPI   C4B17750   0.063   2.184   7.588 -0.0780  0.2617  0.2339
 1177POPI    C117751   8.189  10.235   5.311  0.1050  0.0330 -0.0919
 1177POPI    C217752   8.348  10.004   5.026 -0.1755 -0.4585  0.1354
 1177POPI    C317753   7.976  10.144   4.985 -0.0562 -0.1546  0.0626
 1177POPI   PO417754   8.396  10.383   5.405 -0.1385  0.2504 -0.1870
 1177POPI   GL117755   8.410  10.436   5.802  0.0100  0.0045 -0.0735
 1177POPI   GL217756   8.492  10.175   5.891  0.1609  0.1215 -0.0075
 1177POPI   C1A17757   8.421  10.720   6.073 -0.3878 -0.3302  0.0045
 1177POPI   D2A17758   8.346  10.948   6.456 -0.0233 -0.0894 -0.2412
 1177POPI   C3A17759   8.477  10.784   6.772 -0.0509  0.1268 -0.0363
 1177POPI   C4A17760   8.442  10.441   7.143 -0.1094 -0.0064 -0.0990
 1177POPI   C1B17761   8.770  10.346   6.146  0.2640 -0.2066  0.0233
 1177POPI   C2B17762   8.804  10.754   6.423 -0.0229  0.0809 -0.2408
 1177POPI   C3B17763   9.039  11.145   6.183  0.0946 -0.2368 -0.0547
 1177POPI   C4B17764   9.495  11.323   6.313 -0.0789 -0.0139 -0.0001
 1178POPI    C117765  13.969   4.869   5.122  0.0642  0.1299  0.0902
 1178POPI    C217766  13.876   4.795   4.741  0.0885 -0.0651  0.1212
 1178POPI    C317767  14.227   4.964   4.831  0.1828 -0.2324  0.0725
 1178POPI   PO417768  13.891   4.720   5.255 -0.2106 -0.0685 -0.0108
 1178POPI   GL117769  13.829   4.680   5.630  0.3170  0.0936  0.1358
 1178POPI   GL217770  13.825   4.238   5.630  0.1582 -0.1455 -0.2170
 1178POPI   C1A17771  14.027   4.739   6.014 -0.0172  0.1641  0.3393
 1178POPI   D2A17772  14.335   4.965   6.117 -0.1176 -0.1694 -0.0599
 1178POPI   C3A17773  14.269   5.225   6.455  0.0069 -0.3522 -0.0101
 1178POPI   C4A17774  14.124   5.176   6.859 -0.1209 -0.3260 -0.0051
 1178POPI   C1B17775  13.634   4.406   5.984 -0.0389  0.0989  0.0505
 1178POPI   C2B17776  13.635   4.547   6.511  0.2932  0.0346  0.0453
 1178POPI   C3B17777  13.696   4.795   6.921  0.3480  0.2305  0.0302
 1178POPI   C4B17778  13.804   5.185   7.265 -0.1626  0.3250  0.0176
 1179POPI    C117779   4.002   5.187   5.405 -0.1192 -0.0157  0.0236
 1179POPI    C217780   4.306   5.268   5.158 -0.0421 -0.2761  0.0300
 1179POPI    C317781   3.960   5.466   5.122  0.1259  0.0213  0.0215
 1179POPI   PO417782   3.995   5.082   5.628 -0.1398  0.1229 -0.1720
 1179POPI   GL117783   3.865   5.182   6.041 -0.0184 -0.1523 -0.1732
 1179POPI   GL217784   4.019   5.472   5.989  0.2193  0.0144 -0.1248
 1179POPI   C1A17785   3.775   5.038   6.329  0.3884  0.1407  0.1172
 1179POPI   D2A17786   3.739   4.851   6.687 -0.0767  0.2663  0.0542
 1179POPI   C3A17787   3.582   4.905   7.085 -0.0483  0.0566  0.2954
 1179POPI   C4A17788   3.361   5.179   7.308 -0.1978 -0.0522  0.0913
 1179POPI   C1B17789   3.954   5.652   6.355 -0.1466  0.0263  0.4357
 1179POPI   C2B17790   3.933   5.611   6.781  0.0803  0.2642  0.0583
 1179POPI   C3B17791   3.632   5.693   7.212  0.1446  0.1105 -0.1920
 1179POPI   C4B17792   3.623   5.533   7.643  0.0596 -0.0731 -0.4363
 1180POPI    C117793  12.198   1.985   4.690  0.0348  0.0145  0.1150
 1180POPI    C217794  11.944   2.293   4.723  0.0288  0.0258 -0.0321
 1180POPI    C317795  11.872   2.002   4.458  0.0241 -0.1130  0.1203
 1180POPI   PO417796  12.327   2.042   4.903  0.1584 -0.2933 -0.1290
 1180POPI   GL117797  12.512   2.165   5.254  0.2673  0.0275 -0.0717
 1180POPI   GL217798  12.313   2.021   5.417  0.0509 -0.2357 -0.0131
 1180POPI   C1A17799  12.789   2.245   5.541  0.1481 -0.0176 -0.2343
 1180POPI   D2A17800  13.053   2.071   5.971 -0.1539  0.0605  0.3710
 1180POPI   C3A17801  13.041   1.840   6.324  0.3842 -0.1179 -0.1094
 1180POPI   C4A17802  12.983   1.921   6.780  0.5183  0.1505 -0.4245
 1180POPI   C1B17803  12.169   1.820   5.707  0.2094 -0.0704  0.2449
 1180POPI   C2B17804  12.150   1.430   5.866  0.2621  0.3193 -0.1123
 1180POPI   C3B17805  11.985   1.343   6.242  0.1184 -0.0625 -0.0731
 1180POPI   C4B17806  11.806   1.228   6.607  0.0278  0.0100  0.1276
 1181POPI    C117807   5.023   9.772   5.288  0.2342 -0.1163 -0.2754
 1181POPI    C217808   4.693   9.547   5.285 -0.0716  0.3178 -0.1268
 1181POPI    C317809   4.879   9.633   4.942 -0.0285 -0.0414 -0.1981
 1181POPI   PO417810   5.079   9.678   5.543 -0.1965 -0.2670  0.1279
 1181POPI   GL117811   5.281   9.465   5.830  0.0665  0.0313  0.0692
 1181POPI   GL217812   5.445   9.573   5.988 -0.2133 -0.0146  0.2401
 1181POPI   C1A17813   5.008   9.348   6.153 -0.2576 -0.0950  0.2159
 1181POPI   D2A17814   5.048   9.293   6.646 -0.1770  0.2394  0.0725
 1181POPI   C3A17815   5.125   9.131   7.074 -0.0560  0.0742 -0.0413
 1181POPI   C4A17816   5.107   9.240   7.424 -0.3568  0.1004  0.3255
 1181POPI   C1B17817   5.436   9.409   6.373 -0.0003  0.0360 -0.1151
 1181POPI   C2B17818   5.520   9.352   6.807 -0.2351 -0.1826  0.1136
 1181POPI   C3B17819   5.774   9.644   7.043 -0.4742  0.4616 -0.0168
 1181POPI   C4B17820   6.049   9.816   7.164  0.2499  0.0055  0.0387
 1182POPI    C117821  12.025  13.736   4.966 -0.2820  0.2283 -0.0255
 1182POPI    C217822  12.089  13.834   4.583 -0.2203  0.2079 -0.0205
 1182POPI    C317823  12.195  13.473   4.717  0.1269  0.3546  0.1130
 1182POPI   PO417824  12.111  13.939   5.098  0.1140 -0.3027 -0.0493
 1182POPI   GL117825  12.380  14.154   5.472 -0.4059  0.0579 -0.3970
 1182POPI   GL217826  12.052  14.138   5.612  0.0681 -0.0392  0.1294
 1182POPI   C1A17827  12.551  14.095   5.778  0.1239 -0.3968  0.2192
 1182POPI   D2A17828  12.826  13.831   5.969 -0.0613  0.3150  0.0330
 1182POPI   C3A17829  12.798  13.802   6.516 -0.1661 -0.5378 -0.0908
 1182POPI   C4A17830  12.825  13.819   6.845 -0.0469 -0.0506 -0.0551
 1182POPI   C1B17831  11.767  13.920   5.940  0.0200 -0.4228 -0.0440
 1182POPI   C2B17832  11.733  13.978   6.336  0.1570  0.2872 -0.1655
 1182POPI   C3B17833  11.841  14.148   6.735 -0.3932 -0.0113 -0.1266
 1182POPI   C4B17834  11.969  14.312   7.188 -0.1389  0.0716  0.1863
 1183POPI    C117835   6.906  16.167   4.667  0.0887  0.1069 -0.0120
 1183POPI    C217836   7.054  16.384   4.365 -0.0843  0.1007 -0.1029
 1183POPI    C317837   6.706  16.193   4.322 -0.0586  0.0135  0.0654
 1183POPI   PO417838   6.963  16.304   4.870  0.1660  0.4818 -0.2380
 1183POPI   GL117839   6.742  16.623   5.169  0.1369  0.0676  0.0485
 1183POPI   GL217840   6.855  16.415   5.380 -0.1636 -0.2751  0.4225
 1183POPI   C1A17841   6.597  16.723   5.609 -0.0446 -0.1367  0.0872
 1183POPI   D2A17842   6.648  16.675   6.043 -0.0460 -0.2384  0.2594
 1183POPI   C3A17843   6.648  17.180   6.245 -0.0591  0.1133  0.2269
 1183POPI   C4A17844   6.965  17.601   6.126 -0.1937 -0.1815  0.1615
 1183POPI   C1B17845   6.509  16.230   5.660  0.0740 -0.0963 -0.1431
 1183POPI   C2B17846   6.282  16.248   5.964  0.0648  0.0141 -0.2028
 1183POPI   C3B17847   6.244  16.503   6.387 -0.1027 -0.1355  0.1921
 1183POPI   C4B17848   6.291  16.878   6.424 -0.5182 -0.2637 -0.0983
 1184POPI    C117849   9.226  12.863   5.188 -0.1886 -0.3011 -0.0333
 1184POPI    C217850   9.325  13.219   5.035 -0.0273 -0.1819  0.3360
 1184POPI    C317851   9.102  12.964   4.822  0.1401  0.0001 -0.0667
 1184POPI   PO417852   9.096  12.905   5.373  0.1271 -0.0459 -0.3872
 1184POPI   GL117853   8.933  13.004   5.715 -0.1862 -0.2626 -0.0775
 1184POPI   GL217854   8.652  13.133   5.598  0.0940  0.0805 -0.0541
 1184POPI   C1A17855   8.880  12.913   6.157 -0.0867  0.3526 -0.2200
 1184POPI   D2A17856   8.944  12.865   6.684 -0.0256  0.0110  0.0147
 1184POPI   C3A17857   8.692  13.029   6.847 -0.0152 -0.1424 -0.0939
 1184POPI   C4A17858   8.632  13.455   7.059 -0.1230  0.0287 -0.0245
 1184POPI   C1B17859   8.361  12.984   5.998 -0.2180  0.0460 -0.1977
 1184POPI   C2B17860   8.465  12.783   6.388  0.2322 -0.4987 -0.0347
 1184POPI   C3B17861   8.655  12.482   6.737  0.2627 -0.1321 -0.1407
 1184POPI   C4B17862   8.709  12.251   7.011 -0.0500  0.0343  0.0057
 1185POPI    C117863   3.010   4.563   5.037  0.0763  0.0502 -0.0648
 1185POPI    C217864   3.110   4.460   4.664  0.0297 -0.0096 -0.0608
 1185POPI    C317865   2.952   4.820   4.736  0.0192 -0.0058 -0.1020
 1185POPI   PO417866   3.151   4.424   5.283 -0.2763  0.1382 -0.3355
 1185POPI   GL117867   3.299   4.603   5.684  0.0609  0.0748  0.0180
 1185POPI   GL217868   3.018   4.440   5.750 -0.3008  0.0086  0.1070
 1185POPI   C1A17869   3.470   4.537   6.211  0.1586 -0.1303  0.1555
 1185POPI   D2A17870   3.402   4.309   6.607  0.3133 -0.0756  0.0125
 1185POPI   C3A17871   3.380   3.904   6.495  0.0320 -0.0947  0.3939
 1185POPI   C4A17872   3.214   3.622   6.764  0.1693 -0.3735 -0.1389
 1185POPI   C1B17873   3.053   4.226   6.165  0.0251 -0.1829  0.2270
 1185POPI   C2B17874   2.923   4.073   6.666 -0.0245 -0.0940 -0.0323
 1185POPI   C3B17875   3.120   4.035   6.991  0.0043 -0.6271 -0.1002
 1185POPI   C4B17876   3.555   3.943   6.981  0.0700  0.1112 -0.0712
 1186POPI    C117877   1.390  17.522   5.051 -0.0054  0.0727 -0.0192
 1186POPI    C217878   1.623  17.845   5.013  0.2036 -0.0419  0.2533
 1186POPI    C317879   1.747  17.492   4.872  0.1174 -0.0687  0.2441
 1186POPI   PO417880   1.233  17.598   5.343  0.1856 -0.0549 -0.3808
 1186POPI   GL117881   1.057  17.658   5.638  0.1154 -0.1744  0.2157
 1186POPI   GL217882   0.847  18.010   5.767  0.2091 -0.0701  0.3255
 1186POPI   C1A17883   1.120  17.714   6.038 -0.2857  0.2089  0.1552
 1186POPI   D2A17884   1.379  17.595   6.435 -0.0735 -0.2505  0.3956
 1186POPI   C3A17885   0.980  17.399   6.702 -0.2743  0.1780  0.0544
 1186POPI   C4A17886   0.719  17.191   6.779 -0.1733  0.2275  0.3112
 1186POPI   C1B17887   0.706  18.087   6.208  0.3873 -0.3848  0.1303
 1186POPI   C2B17888   0.662  18.226   6.630  0.0836  0.3257 -0.1417
 1186POPI   C3B17889   0.804  18.356   7.059 -0.0811  0.0610 -0.0364
 1186POPI   C4B17890   1.127  18.604   7.243  0.0392 -0.0330  0.1839
 1187POPI    C117891   9.706  10.428   5.267 -0.2322  0.1621 -0.0518
 1187POPI    C217892  10.052  10.408   5.067 -0.0398 -0.1823  0.3027
 1187POPI    C317893   9.883  10.763   5.139  0.1542 -0.0218 -0.0124
 1187POPI   PO417894   9.813  10.185   5.499 -0.0718  0.0725 -0.1729
 1187POPI   GL117895  10.107  10.157   5.802 -0.2320  0.2132 -0.0897
 1187POPI   GL217896  10.422  10.114   5.766 -0.0236 -0.3543 -0.0827
 1187POPI   C1A17897   9.938  10.394   6.148  0.3189  0.1471  0.0003
 1187POPI   D2A17898   9.788  10.511   6.532  0.1866 -0.1887 -0.1981
 1187POPI   C3A17899   9.823  10.325   6.948 -0.2717  0.1061 -0.0994
 1187POPI   C4A17900   9.810  10.152   7.256 -0.1368  0.0411  0.1838
 1187POPI   C1B17901  10.302  10.030   6.238 -0.0501 -0.0822 -0.3048
 1187POPI   C2B17902  10.112  10.036   6.616 -0.1053  0.2978 -0.2373
 1187POPI   C3B17903  10.113   9.860   7.026  0.2538  0.0139  0.3514
 1187POPI   C4B17904  10.004   9.631   7.384  0.0177 -0.0709  0.0579
 1188POPI    C117905  18.435  18.041   5.635 -0.0705 -0.1610 -0.0228
 1188POPI    C217906  18.271  17.796   5.365 -0.2231 -0.0465 -0.0351
 1188POPI    C317907  18.545  17.657   5.621 -0.1313 -0.1726 -0.2003
 1188POPI   PO417908  18.261  18.235   5.818  0.0468 -0.1756 -0.4985
 1188POPI   GL117909  18.328  18.526   6.131  0.0553 -0.0795  0.0854
 1188POPI   GL217910  18.549  18.747   6.277 -0.0653  0.3901 -0.1378
 1188POPI   C1A17911  18.327  18.245   6.444 -0.2097 -0.1015 -0.0735
 1188POPI   D2A17912  18.470  17.822   6.541  0.1383 -0.3081  0.0459
 1188POPI   C3A17913  18.491  17.815   6.996  0.1471  0.1789 -0.2863
 1188POPI   C4A17914  18.503  17.968   7.480  0.2645 -0.0631 -0.1901
 1188POPI   C1B17915  18.577  18.690   6.667 -0.0643  0.1583  0.1990
 1188POPI   C2B17916  18.596  18.399   7.060 -0.0960  0.3991  0.1325
 1188POPI   C3B17917  18.549  18.437   7.523  0.0891  0.1187  0.1379
 1188POPI   C4B17918  18.275  18.646   7.794  0.0818 -0.0882 -0.1126
 1189POPI    C117919  16.172   5.663   5.570  0.0192  0.1829 -0.0261
 1189POPI    C217920  16.225   5.515   5.202 -0.0166  0.1348 -0.0120
 1189POPI    C317921  16.485   5.781   5.350  0.2856 -0.2265  0.1206
 1189POPI   PO417922  15.974   5.519   5.789  0.2288 -0.0771 -0.0978
 1189POPI   GL117923  16.072   5.556   6.214 -0.0876 -0.0925  0.1846
 1189POPI   GL217924  16.093   5.852   6.195 -0.2607 -0.0727  0.1467
 1189POPI   C1A17925  16.086   5.664   6.710 -0.0401 -0.1047  0.0199
 1189POPI   D2A17926  16.084   5.441   7.116  0.2411 -0.3444  0.0271
 1189POPI   C3A17927  15.859   5.587   7.555  0.2895  0.0658 -0.0006
 1189POPI   C4A17928  15.668   5.888   7.793 -0.1530  0.0322 -0.0727
 1189POPI   C1B17929  16.192   6.254   6.423  0.1487  0.2429 -0.1302
 1189POPI   C2B17930  16.020   6.397   6.831  0.0400  0.0232  0.0177
 1189POPI   C3B17931  16.250   6.364   7.166 -0.1643  0.0364 -0.1309
 1189POPI   C4B17932  16.266   6.624   7.519 -0.4764  0.1677  0.1287
 1190POPI    C117933   4.805  18.022   4.847 -0.0580 -0.0612 -0.0124
 1190POPI    C217934   4.788  17.629   4.774 -0.3650 -0.0047 -0.2679
 1190POPI    C317935   4.553  17.880   4.570 -0.4012  0.2819  0.1160
 1190POPI   PO417936   4.839  18.005   5.140 -0.1467 -0.0615  0.0128
 1190POPI   GL117937   4.878  17.728   5.398  0.0568 -0.0090 -0.1480
 1190POPI   GL217938   4.590  17.505   5.343 -0.0073 -0.0175 -0.1069
 1190POPI   C1A17939   4.971  18.010   5.761  0.2301 -0.1838  0.1682
 1190POPI   D2A17940   5.168  17.964   6.126 -0.0590  0.1725 -0.1002
 1190POPI   C3A17941   5.212  18.248   6.393  0.0962 -0.0171 -0.1620
 1190POPI   C4A17942   5.473  18.460   6.564 -0.0170  0.2505 -0.0242
 1190POPI   C1B17943   4.634  17.535   5.816  0.0067  0.3413 -0.0990
 1190POPI   C2B17944   4.741  17.663   6.163  0.1052  0.0198  0.0169
 1190POPI   C3B17945   4.914  17.817   6.583 -0.1189 -0.0895 -0.4002
 1190POPI   C4B17946   4.710  17.956   6.988  0.0420 -0.2495  0.0106
 1191POPI    C117947   7.147   5.275   4.673 -0.1509 -0.0548  0.2491
 1191POPI    C217948   7.439   5.219   4.405 -0.2153 -0.0722  0.1825
 1191POPI    C317949   7.145   4.950   4.441 -0.2271 -0.0513  0.2448
 1191POPI   PO417950   7.297   5.436   4.900 -0.2937 -0.4147 -0.2432
 1191POPI   GL117951   7.318   5.503   5.390 -0.1498 -0.0081 -0.2739
 1191POPI   GL217952   7.151   5.754   5.473  0.1412 -0.2655  0.3170
 1191POPI   C1A17953   6.938   5.358   5.652  0.0562  0.0488  0.0340
 1191POPI   D2A17954   6.740   5.151   6.040 -0.1597 -0.0218  0.1261
 1191POPI   C3A17955   7.000   5.244   6.441  0.3045 -0.0658 -0.0223
 1191POPI   C4A17956   7.237   5.302   6.719  0.1780 -0.0085  0.1833
 1191POPI   C1B17957   7.334   6.094   5.662  0.0825 -0.3836  0.0050
 1191POPI   C2B17958   7.342   6.073   6.092 -0.2568  0.1019  0.0062
 1191POPI   C3B17959   7.371   5.811   6.527 -0.1302 -0.1667  0.1864
 1191POPI   C4B17960   7.446   5.715   6.986 -0.3237  0.0942  0.0956
 1192POPI    C117961  12.574  13.331   5.012  0.0732 -0.0116  0.0622
 1192POPI    C217962  12.899  13.181   5.192  0.1925  0.2323  0.0556
 1192POPI    C317963  12.907  13.266   4.801  0.0652  0.0850  0.0194
 1192POPI   PO417964  12.393  13.363   5.173 -0.0870 -0.0934 -0.0122
 1192POPI   GL117965  12.370  13.341   5.638 -0.3084 -0.0602 -0.0250
 1192POPI   GL217966  12.210  13.667   5.555  0.0760  0.0052 -0.0637
 1192POPI   C1A17967  12.265  13.019   5.920  0.0699 -0.3369 -0.1342
 1192POPI   D2A17968  11.972  12.921   6.278  0.3011  0.0610 -0.1093
 1192POPI   C3A17969  12.008  13.138   6.590  0.1994  0.0673 -0.0089
 1192POPI   C4A17970  12.117  13.067   7.029 -0.2705  0.0380 -0.0918
 1192POPI   C1B17971  12.246  13.761   5.906  0.1210  0.0347 -0.0392
 1192POPI   C2B17972  12.409  13.949   6.308 -0.0835  0.1407  0.0095
 1192POPI   C3B17973  12.308  14.003   6.828  0.2465 -0.2785 -0.0842
 1192POPI   C4B17974  12.515  13.861   7.240 -0.1797  0.2461 -0.2534
 1193POPI    C117975   8.751   2.929   4.862  0.1265  0.1445 -0.0036
 1193POPI    C217976   9.073   2.692   4.837  0.0746  0.0730  0.0025
 1193POPI    C317977   8.921   2.859   4.507  0.0809  0.0567 -0.0086
 1193POPI   PO417978   8.821   3.020   5.153  0.1552  0.0124 -0.2199
 1193POPI   GL117979   9.114   3.090   5.551 -0.2082 -0.0448  0.1396
 1193POPI   GL217980   9.460   3.036   5.567 -0.2009 -0.2361  0.2902
 1193POPI   C1A17981   8.915   3.071   5.919 -0.3434 -0.1040 -0.0575
 1193POPI   D2A17982   8.983   3.470   6.078  0.0392  0.0981 -0.0881
 1193POPI   C3A17983   8.988   3.437   6.512 -0.0637 -0.2489  0.0299
 1193POPI   C4A17984   8.970   3.284   6.971  0.1347  0.0062  0.1955
 1193POPI   C1B17985   9.391   3.122   5.991 -0.0616  0.0388  0.1918
 1193POPI   C2B17986   9.420   3.103   6.457  0.2938 -0.1471  0.1700
 1193POPI   C3B17987   9.499   3.066   6.896  0.2267 -0.0808 -0.2071
 1193POPI   C4B17988   9.487   3.000   7.305  0.0969  0.1107  0.1845
 1194POPI    C117989  16.642  13.739   5.159 -0.0611  0.0798 -0.0924
 1194POPI    C217990  16.395  13.445   5.044  0.1492 -0.1014 -0.0876
 1194POPI    C317991  16.783  13.429   4.949  0.1768  0.1387 -0.0224
 1194POPI   PO417992  16.539  13.850   5.373  0.0983 -0.1863  0.1807
 1194POPI   GL117993  16.448  13.816   5.795 -0.2539 -0.3489  0.2213
 1194POPI   GL217994  16.313  14.049   5.933  0.3458 -0.0437  0.2385
 1194POPI   C1A17995  16.474  13.455   6.070 -0.1567 -0.0842  0.1512
 1194POPI   D2A17996  16.524  13.072   6.434 -0.0455 -0.0605  0.0977
 1194POPI   C3A17997  16.308  13.103   6.833  0.2466  0.0982 -0.1675
 1194POPI   C4A17998  16.445  13.199   7.221 -0.0314  0.0555  0.0188
 1194POPI   C1B17999  16.511  14.047   6.388 -0.0666 -0.2348 -0.0275
 1194POPI   C2B18000  16.635  14.077   6.885  0.0960 -0.0344  0.2768
 1194POPI   C3B18001  16.832  14.146   7.196 -0.1838  0.0172  0.0227
 1194POPI   C4B18002  17.158  14.419   7.421  0.1524  0.1069 -0.0797
 1195POPI    C118003  12.875  10.785   5.588  0.1755 -0.0315  0.1855
 1195POPI    C218004  12.909  10.412   5.448 -0.1309 -0.0976  0.2784
 1195POPI    C318005  12.818  10.712   5.199  0.1699 -0.0727  0.1940
 1195POPI   PO418006  12.690  10.735   5.806  0.1956  0.1057 -0.3053
 1195POPI   GL118007  12.886  10.746   6.179 -0.0329 -0.1792  0.1383
 1195POPI   GL218008  13.160  10.591   6.102 -0.0312  0.3107  0.0996
 1195POPI   C1A18009  12.892  10.788   6.611  0.0924 -0.1305  0.0668
 1195POPI   D2A18010  13.168  10.676   6.916  0.0487 -0.0259 -0.2238
 1195POPI   C3A18011  12.988  10.789   7.361 -0.1721  0.1034  0.0093
 1195POPI   C4A18012  12.907  10.776   7.794 -0.0846 -0.1386  0.1152
 1195POPI   C1B18013  13.469  10.437   6.583  0.1115  0.2548 -0.0923
 1195POPI   C2B18014  13.520  10.326   7.004 -0.0217  0.1867  0.1433
 1195POPI   C3B18015  13.528  10.354   7.374 -0.1590 -0.2015  0.0640
 1195POPI   C4B18016  13.363  10.758   7.676 -0.3133 -0.0677  0.1084
 1196POPI    C118017   3.997  14.365   5.046  0.4921 -0.2025  0.0142
 1196POPI    C218018   4.172  14.707   5.157  0.0989 -0.0291  0.1136
 1196POPI    C318019   4.143  14.613   4.769  0.1737  0.0692  0.0839
 1196POPI   PO418020   3.868  14.316   5.315  0.0905 -0.1270 -0.2935
 1196POPI   GL118021   3.730  14.259   5.678 -0.1542 -0.0486 -0.0442
 1196POPI   GL218022   4.000  14.470   5.826  0.2598  0.2325 -0.0787
 1196POPI   C1A18023   3.540  14.321   6.056 -0.1519  0.2010 -0.0659
 1196POPI   D2A18024   3.280  14.498   6.368  0.2350 -0.0074  0.2080
 1196POPI   C3A18025   3.050  14.240   6.597 -0.0597 -0.3575 -0.1215
 1196POPI   C4A18026   2.873  14.035   6.942  0.2231  0.0555  0.0102
 1196POPI   C1B18027   3.986  14.162   6.173  0.1247 -0.0717 -0.1183
 1196POPI   C2B18028   3.842  14.275   6.550 -0.1609 -0.0411  0.1090
 1196POPI   C3B18029   3.877  14.212   6.978  0.1853 -0.1444  0.1072
 1196POPI   C4B18030   3.866  14.336   7.391  0.1348  0.1547  0.0692
 1197POPI    C118031  10.260  15.509   5.077 -0.2617 -0.1552  0.2259
 1197POPI    C218032  10.078  15.727   4.795  0.4141  0.1341 -0.0063
 1197POPI    C318033  10.190  15.352   4.716 -0.0174 -0.0278  0.1211
 1197POPI   PO418034  10.241  15.648   5.289  0.0363  0.1771 -0.2481
 1197POPI   GL118035  10.294  15.913   5.604  0.1121 -0.3186  0.3158
 1197POPI   GL218036  10.499  16.064   5.520  0.1218 -0.0191  0.1345
 1197POPI   C1A18037  10.301  15.923   6.081 -0.2718 -0.0110  0.2847
 1197POPI   D2A18038  10.051  15.958   6.495  0.0265  0.1495 -0.0054
 1197POPI   C3A18039   9.786  15.730   6.792 -0.1324 -0.2394 -0.1658
 1197POPI   C4A18040  10.001  15.729   7.097 -0.1086  0.1081  0.1265
 1197POPI   C1B18041  10.637  16.297   5.978  0.0805 -0.1968  0.2613
 1197POPI   C2B18042  10.499  16.258   6.397  0.1506 -0.2954 -0.1044
 1197POPI   C3B18043  10.252  16.300   6.841  0.0242  0.0623  0.3748
 1197POPI   C4B18044  10.204  16.191   7.251  0.1145  0.1486  0.2966
 1198DPPI    C118045  15.635  10.863   5.521 -0.1788 -0.0117  0.1728
 1198DPPI    C218046  15.860  10.551   5.632 -0.0702  0.0058  0.0051
 1198DPPI    C318047  16.021  10.917   5.612 -0.1658  0.0526  0.0810
 1198DPPI   PO418048  15.438  10.862   5.656  0.0337 -0.0340 -0.0333
 1198DPPI   GL118049  15.471  11.121   6.028 -0.1706 -0.1477  0.1604
 1198DPPI   GL218050  15.690  10.856   6.085  0.0736 -0.2579  0.4383
 1198DPPI   C1A18051  15.596  11.277   6.473 -0.0248 -0.2697 -0.1006
 1198DPPI   C2A18052  15.420  11.112   6.854 -0.1111  0.3806  0.0677
 1198DPPI   C3A18053  15.271  10.909   7.209 -0.0599  0.0777  0.0106
 1198DPPI   C4A18054  15.342  10.820   7.726 -0.0233  0.1640  0.2405
 1198DPPI   C1B18055  15.521  10.759   6.504  0.2241 -0.3944 -0.0731
 1198DPPI   C2B18056  15.550  10.578   6.909  0.1492  0.1243  0.3348
 1198DPPI   C3B18057  15.510  10.456   7.291 -0.0715 -0.1079 -0.1228
 1198DPPI   C4B18058  15.436  10.240   7.746  0.3055  0.1469  0.1111
 1199DPPI    C118059  10.386   3.432   5.109  0.0705 -0.2865 -0.0324
 1199DPPI    C218060  10.069   3.316   5.323 -0.0486  0.0261 -0.0333
 1199DPPI    C318061  10.129   3.167   4.956 -0.1679 -0.0701 -0.0144
 1199DPPI   PO418062  10.395   3.693   5.171  0.2631  0.2728 -0.1415
 1199DPPI   GL118063  10.253   3.726   5.497 -0.0060 -0.0707  0.0925
 1199DPPI   GL218064  10.570   3.553   5.694 -0.2507  0.2021 -0.1502
 1199DPPI   C1A18065   9.942   3.802   5.809 -0.0770 -0.0815  0.1307
 1199DPPI   C2A18066  10.052   3.870   6.155  0.0208  0.1150 -0.2613
 1199DPPI   C3A18067  10.166   3.808   6.456 -0.1056  0.2919 -0.0629
 1199DPPI   C4A18068  10.267   3.647   6.866  0.0304 -0.2097 -0.2336
 1199DPPI   C1B18069  10.309   3.369   6.009 -0.1183 -0.1080  0.0963
 1199DPPI   C2B18070   9.923   3.378   6.275  0.2354  0.0206 -0.2131
 1199DPPI   C3B18071   9.961   3.343   6.694  0.2285 -0.0334  0.0801
 1199DPPI   C4B18072   9.965   3.365   7.175  0.1690 -0.1319 -0.0458
 1200DPPI    C118073   4.601  11.010   5.364  0.0954 -0.0644  0.0683
 1200DPPI    C218074   4.420  11.155   5.037 -0.0581 -0.0688  0.1503
 1200DPPI    C318075   4.209  10.949   5.308  0.0421  0.0424  0.3147
 1200DPPI   PO418076   4.640  11.184   5.501  0.0278  0.1235  0.1519
 1200DPPI   GL118077   4.666  11.142   5.911  0.1362  0.0782  0.1293
 1200DPPI   GL218078   4.561  10.806   5.880 -0.2256 -0.0380 -0.1990
 1200DPPI   C1A18079   4.704  11.199   6.293 -0.1825  0.0676  0.1753
 1200DPPI   C2A18080   4.837  11.246   6.759 -0.0276 -0.1565 -0.1896
 1200DPPI   C3A18081   4.855  11.542   7.201  0.0226  0.0966  0.0328
 1200DPPI   C4A18082   4.974  11.637   7.716  0.0728  0.0406 -0.0362
 1200DPPI   C1B18083   4.373  10.600   6.165 -0.0230 -0.0064  0.0288
 1200DPPI   C2B18084   4.130  10.510   6.584  0.0554 -0.1439  0.1980
 1200DPPI   C3B18085   4.101  10.422   7.041  0.0786 -0.0829  0.0398
 1200DPPI   C4B18086   4.096  10.058   7.213 -0.2790  0.1876  0.2778
 1201DPPI    C118087   5.284   4.686   4.737 -0.1873 -0.1039 -0.0229
 1201DPPI    C218088   4.999   4.914   4.573 -0.0564  0.1391  0.0815
 1201DPPI    C318089   5.383   4.977   4.481 -0.0076  0.0607  0.2287
 1201DPPI   PO418090   5.173   4.488   4.816 -0.0552  0.1184  0.2709
 1201DPPI   GL118091   5.140   4.328   5.172 -0.0276  0.1191 -0.0380
 1201DPPI   GL218092   5.268   4.019   5.258 -0.1755 -0.3149 -0.2023
 1201DPPI   C1A18093   5.451   4.452   5.632  0.0055 -0.1239  0.2554
 1201DPPI   C2A18094   5.660   4.697   6.007  0.3130 -0.1725 -0.1200
 1201DPPI   C3A18095   5.701   4.979   6.346  0.0333  0.0815 -0.0780
 1201DPPI   C4A18096   5.997   5.147   6.663 -0.0019 -0.0402 -0.0646
 1201DPPI   C1B18097   5.468   3.958   5.762 -0.0472  0.0066  0.2063
 1201DPPI   C2B18098   5.475   4.144   6.141  0.3033 -0.2040  0.0218
 1201DPPI   C3B18099   5.478   4.478   6.463  0.2073  0.0456  0.1105
 1201DPPI   C4B18100   5.674   4.739   6.732 -0.0843 -0.0208 -0.2657
 1202DPPI    C118101   3.634  15.938   5.370  0.4082  0.2105 -0.1094
 1202DPPI    C218102   3.342  15.713   5.214  0.4933 -0.2129  0.3202
 1202DPPI    C318103   3.649  15.827   4.986  0.1683 -0.0485 -0.0476
 1202DPPI   PO418104   3.480  16.111   5.564 -0.3594 -0.0494  0.1679
 1202DPPI   GL118105   3.444  16.068   5.936  0.5080  0.2813 -0.0092
 1202DPPI   GL218106   3.386  16.276   6.208  0.0272 -0.1988  0.1019
 1202DPPI   C1A18107   3.610  15.858   6.372  0.3144  0.3452  0.3812
 1202DPPI   C2A18108   3.673  15.845   6.760 -0.0216 -0.0155 -0.1027
 1202DPPI   C3A18109   3.664  15.878   7.302 -0.1295 -0.0203  0.0217
 1202DPPI   C4A18110   3.406  15.763   7.649  0.1162 -0.0947 -0.1982
 1202DPPI   C1B18111   3.434  16.279   6.589 -0.3651 -0.0479  0.0520
 1202DPPI   C2B18112   3.302  16.025   6.990  0.4529 -0.2777 -0.2051
 1202DPPI   C3B18113   3.175  15.671   7.270 -0.1938 -0.2199  0.1099
 1202DPPI   C4B18114   2.975  15.565   7.644 -0.0957  0.3313  0.2372
 1203DPPI    C118115  15.476  15.039   5.057 -0.0669  0.0552 -0.3551
 1203DPPI    C218116  15.756  15.316   4.990  0.0608  0.0706  0.2017
 1203DPPI    C318117  15.380  15.427   5.071 -0.0405  0.0572 -0.2266
 1203DPPI   PO418118  15.576  14.894   5.281 -0.4920 -0.0476 -0.4637
 1203DPPI   GL118119  15.711  15.029   5.765 -0.0948  0.1634  0.0604
 1203DPPI   GL218120  15.528  14.701   5.874  0.0384  0.0937  0.1558
 1203DPPI   C1A18121  15.607  15.330   6.157 -0.2099 -0.0147  0.5344
 1203DPPI   C2A18122  15.305  15.368   6.540  0.1810  0.1210 -0.1609
 1203DPPI   C3A18123  15.392  15.427   6.929 -0.0123  0.4557 -0.0410
 1203DPPI   C4A18124  15.334  15.526   7.383 -0.0159  0.0058  0.2041
 1203DPPI   C1B18125  15.639  14.808   6.344  0.3887  0.1644  0.0033
 1203DPPI   C2B18126  15.577  14.945   6.767  0.1681  0.0472 -0.1246
 1203DPPI   C3B18127  15.441  14.890   7.202 -0.0582  0.1074  0.0624
 1203DPPI   C4B18128  15.388  15.088   7.681 -0.0691  0.0474 -0.1665
 1204DPPI    C118129  14.728   3.536   5.303 -0.1128  0.1747  0.3631
 1204DPPI    C218130  14.861   3.225   5.516  0.0218 -0.1792 -0.2164
 1204DPPI    C318131  14.567   3.174   5.250 -0.2800  0.2962  0.0125
 1204DPPI   PO418132  14.757   3.750   5.502 -0.0778  0.1015 -0.3024
 1204DPPI   GL118133  14.520   3.954   5.679 -0.1126  0.1118 -0.0428
 1204DPPI   GL218134  14.228   3.931   5.541  0.0440  0.0953  0.1820
 1204DPPI   C1A18135  14.539   3.918   6.168  0.0376  0.0267  0.0184
 1204DPPI   C2A18136  14.680   3.746   6.602  0.0437  0.1102 -0.1248
 1204DPPI   C3A18137  14.675   3.614   7.125 -0.0622 -0.1207 -0.3368
 1204DPPI   C4A18138  14.748   3.528   7.528  0.1176 -0.3665 -0.2547
 1204DPPI   C1B18139  14.060   3.950   5.958  0.1102 -0.0443  0.0488
 1204DPPI   C2B18140  13.916   4.180   6.336 -0.1143  0.1349 -0.0375
 1204DPPI   C3B18141  13.947   4.236   6.738 -0.2168 -0.1241 -0.0586
 1204DPPI   C4B18142  14.101   4.376   7.081  0.0867 -0.2324 -0.0215
 1205DPPI    C118143  17.083   0.712   5.112  0.0190 -0.2070  0.1472
 1205DPPI    C218144  17.027   0.860   4.745 -0.0518 -0.2676  0.1333
 1205DPPI    C318145  17.180   0.493   4.791 -0.0521 -0.2638  0.1642
 1205DPPI   PO418146  17.123   0.944   5.304 -0.0084  0.1711 -0.0249
 1205DPPI   GL118147  17.020   0.927   5.777 -0.1976  0.0467 -0.0825
 1205DPPI   GL218148  16.994   1.327   5.959 -0.1891 -0.4438 -0.4022
 1205DPPI   C1A18149  17.261   0.953   6.198  0.0728 -0.2263  0.0389
 1205DPPI   C2A18150  17.472   1.043   6.490 -0.0028 -0.2453  0.0028
 1205DPPI   C3A18151  17.551   0.942   6.896 -0.0494  0.1779 -0.1995
 1205DPPI   C4A18152  17.392   0.509   6.976  0.2744  0.0072 -0.0441
 1205DPPI   C1B18153  16.975   1.391   6.389 -0.3165 -0.2440  0.3573
 1205DPPI   C2B18154  16.885   1.601   6.721  0.0869 -0.1319  0.0289
 1205DPPI   C3B18155  16.820   1.727   7.149  0.0015  0.1523  0.1499
 1205DPPI   C4B18156  16.523   1.949   7.222 -0.3441  0.1035  0.0769
 1206DPPI    C118157  11.383   7.103   5.970  0.0322 -0.2007  0.0817
 1206DPPI    C218158  11.570   6.801   5.786 -0.0001 -0.0644 -0.1788
 1206DPPI    C318159  11.703   7.176   5.742  0.0928 -0.0472  0.2141
 1206DPPI   PO418160  11.219   7.010   6.120 -0.1033  0.1797 -0.0583
 1206DPPI   GL118161  11.042   7.231   6.393 -0.1560 -0.1136 -0.0469
 1206DPPI   GL218162  10.964   6.914   6.543  0.1257  0.0792 -0.0064
 1206DPPI   C1A18163  10.985   7.531   6.792  0.1197 -0.2759  0.1962
 1206DPPI   C2A18164  10.979   7.478   7.252  0.0192 -0.0594 -0.0228
 1206DPPI   C3A18165  10.943   7.604   7.648 -0.1793 -0.2623 -0.0589
 1206DPPI   C4A18166  11.101   7.888   7.989 -0.1412 -0.3392 -0.1789
 1206DPPI   C1B18167  11.192   7.024   7.000 -0.2013 -0.1675  0.2558
 1206DPPI   C2B18168  11.444   6.878   7.397  0.0324 -0.3803 -0.0168
 1206DPPI   C3B18169  11.423   6.897   7.796 -0.2146  0.0836  0.2855
 1206DPPI   C4B18170  11.162   6.683   8.136  0.1998  0.3989 -0.0971
 1207DPPI    C118171   2.377  18.411   5.162 -0.3018 -0.1101  0.0397
 1207DPPI    C218172   2.180  18.134   4.952 -0.1048 -0.0382 -0.2464
 1207DPPI    C318173   2.500  18.314   4.794  0.0164  0.0564  0.0983
 1207DPPI   PO418174   2.354  18.356   5.441 -0.0701 -0.0934 -0.2328
 1207DPPI   GL118175   2.164  18.468   5.732 -0.1032 -0.1129 -0.0789
 1207DPPI   GL218176   2.231  18.766   5.804 -0.1253  0.0940 -0.0656
 1207DPPI   C1A18177   2.130  18.322   6.202  0.3344 -0.2021 -0.0396
 1207DPPI   C2A18178   2.128  18.194   6.673 -0.1700 -0.2092  0.0920
 1207DPPI   C3A18179   2.131  18.155   7.173  0.1277 -0.0084  0.1794
 1207DPPI   C4A18180   2.452  18.031   7.528  0.0214 -0.2315 -0.1622
 1207DPPI   C1B18181   2.430  18.939   6.167 -0.2678 -0.1425 -0.3361
 1207DPPI   C2B18182   2.403  19.127   6.613  0.1421 -0.3400  0.1990
 1207DPPI   C3B18183   2.099  19.092   6.925 -0.0980 -0.0695 -0.2124
 1207DPPI   C4B18184   1.704  19.218   7.138  0.1643 -0.1727 -0.3399
 1208DPPI    C118185  16.826  17.497   5.339  0.1618 -0.1398 -0.1566
 1208DPPI    C218186  16.491  17.362   5.167  0.0230  0.0402 -0.0317
 1208DPPI    C318187  16.847  17.222   5.049 -0.0902 -0.0891 -0.2251
 1208DPPI   PO418188  16.838  17.574   5.598  0.0183  0.1337 -0.2414
 1208DPPI   GL118189  16.991  17.591   5.985 -0.0190  0.2643  0.0445
 1208DPPI   GL218190  17.208  17.814   6.142 -0.0387 -0.0201 -0.1246
 1208DPPI   C1A18191  16.665  17.748   6.271  0.0075  0.0979  0.0444
 1208DPPI   C2A18192  16.704  17.674   6.749  0.0814 -0.0858 -0.1786
 1208DPPI   C3A18193  16.692  17.830   7.179 -0.0004  0.1218  0.0121
 1208DPPI   C4A18194  16.746  18.019   7.596 -0.0403  0.0498 -0.2272
 1208DPPI   C1B18195  17.124  17.725   6.479 -0.0873  0.2286 -0.1707
 1208DPPI   C2B18196  17.162  17.792   6.907 -0.0131  0.0794 -0.0651
 1208DPPI   C3B18197  17.276  17.722   7.261  0.1138 -0.1364 -0.2145
 1208DPPI   C4B18198  17.360  17.787   7.629 -0.1777  0.0192  0.1811
 1209DPPI    C118199  18.500  12.771   5.293 -0.0683 -0.1331  0.1127
 1209DPPI    C218200  18.799  12.897   5.059 -0.2473 -0.2650 -0.1926
 1209DPPI    C318201  18.431  12.853   4.907 -0.3432 -0.4573  0.0882
 1209DPPI   PO418202  18.428  12.885   5.472 -0.0741  0.1759 -0.0568
 1209DPPI   GL118203  18.590  13.288   5.640  0.0644  0.3212  0.0981
 1209DPPI   GL218204  18.853  13.130   5.798  0.0359  0.1023 -0.0744
 1209DPPI   C1A18205  18.520  13.455   5.998 -0.2495  0.3155  0.3815
 1209DPPI   C2A18206  18.365  13.424   6.394  0.1920  0.1604 -0.2588
 1209DPPI   C3A18207  18.186  13.172   6.652  0.0553 -0.4287  0.1407
 1209DPPI   C4A18208  18.027  13.210   7.005 -0.0392 -0.0510 -0.1117
 1209DPPI   C1B18209  19.097  13.050   6.115 -0.0824  0.3320  0.1376
 1209DPPI   C2B18210  19.126  12.783   6.404  0.1445 -0.2236 -0.7709
 1209DPPI   C3B18211  19.317  12.396   6.764  0.1452 -0.0781 -0.1386
 1209DPPI   C4B18212  19.273  12.092   6.997  0.0475  0.0654  0.4922
 1210DPPI    C118213   5.248  12.584   4.714  0.0409  0.0863  0.2970
 1210DPPI    C218214   5.183  12.211   4.843  0.1302  0.0004  0.0977
 1210DPPI    C318215   5.316  12.273   4.470 -0.3784  0.2561 -0.0493
 1210DPPI   PO418216   5.437  12.654   4.824 -0.1491  0.0814 -0.1489
 1210DPPI   GL118217   5.426  12.619   5.287  0.3202  0.0119 -0.0683
 1210DPPI   GL218218   5.404  12.819   5.475  0.2767  0.0585  0.0842
 1210DPPI   C1A18219   5.588  12.443   5.679 -0.2783  0.1631 -0.2354
 1210DPPI   C2A18220   5.607  12.495   6.184 -0.2897 -0.3119  0.3270
 1210DPPI   C3A18221   5.674  12.670   6.623  0.2374 -0.0294 -0.1370
 1210DPPI   C4A18222   5.592  12.994   6.841  0.1191  0.1210  0.1654
 1210DPPI   C1B18223   5.513  12.958   5.860  0.3811  0.1159  0.1871
 1210DPPI   C2B18224   5.341  13.013   6.261 -0.0810  0.0442 -0.1551
 1210DPPI   C3B18225   5.271  13.282   6.711  0.0341 -0.1910  0.0203
 1210DPPI   C4B18226   5.117  13.606   6.915  0.1194  0.0819  0.2366
 1211DPPI    C118227  13.401  16.598   4.986  0.0709  0.2683 -0.0310
 1211DPPI    C218228  13.103  16.673   4.729 -0.0424  0.3753  0.1302
 1211DPPI    C318229  13.467  16.828   4.665  0.0226  0.1143 -0.1523
 1211DPPI   PO418230  13.384  16.404   5.082  0.1296 -0.1950 -0.0551
 1211DPPI   GL118231  13.048  16.395   5.461 -0.2451  0.5185  0.1076
 1211DPPI   GL218232  12.745  16.353   5.397 -0.0342 -0.1580  0.4255
 1211DPPI   C1A18233  13.161  16.147   5.879 -0.5198 -0.2659  0.0630
 1211DPPI   C2A18234  13.114  15.993   6.313  0.3625  0.1718  0.1162
 1211DPPI   C3A18235  13.101  15.762   6.636 -0.0130  0.2216  0.1987
 1211DPPI   C4A18236  13.120  15.684   7.163  0.0025  0.2421  0.1143
 1211DPPI   C1B18237  12.654  16.170   5.741  0.1145 -0.2796 -0.0829
 1211DPPI   C2B18238  12.655  16.098   6.149 -0.1494  0.0785  0.0439
 1211DPPI   C3B18239  12.688  15.959   6.610 -0.0361 -0.2719 -0.0195
 1211DPPI   C4B18240  12.788  16.010   7.013 -0.1584  0.0773 -0.2706
 1212DPPI    C118241   2.738  14.217   4.631 -0.1907 -0.0779 -0.1766
 1212DPPI    C218242   2.832  13.839   4.539  0.0740 -0.0298 -0.1140
 1212DPPI    C318243   2.708  14.089   4.253  0.0178 -0.1294 -0.1774
 1212DPPI   PO418244   2.619  14.222   4.884  0.0046  0.3678 -0.0091
 1212DPPI   GL118245   2.669  14.140   5.365 -0.2716  0.0838  0.1786
 1212DPPI   GL218246   2.296  14.080   5.392  0.0205 -0.3316 -0.2457
 1212DPPI   C1A18247   2.643  14.505   5.756 -0.0761  0.2004  0.2178
 1212DPPI   C2A18248   2.390  14.721   6.103  0.0254  0.2070 -0.2067
 1212DPPI   C3A18249   2.355  14.735   6.506  0.1536 -0.3720  0.1815
 1212DPPI   C4A18250   2.246  14.945   6.846 -0.1273 -0.2517 -0.2389
 1212DPPI   C1B18251   2.193  14.210   5.830  0.1275  0.2609 -0.1568
 1212DPPI   C2B18252   2.116  14.343   6.230 -0.0994 -0.2482  0.1657
 1212DPPI   C3B18253   2.003  14.306   6.741 -0.0740 -0.0374 -0.1657
 1212DPPI   C4B18254   2.154  14.489   7.029  0.3659 -0.0285 -0.1511
 1213DPPI    C118255  12.261  14.801   5.325 -0.0140  0.1905 -0.0776
 1213DPPI    C218256  12.547  14.579   5.156 -0.0894 -0.0863  0.1505
 1213DPPI    C318257  12.168  14.452   5.153 -0.1887  0.2028 -0.0102
 1213DPPI   PO418258  12.343  15.031   5.262 -0.1207 -0.0825 -0.1926
 1213DPPI   GL118259  12.210  15.413   5.414 -0.1084  0.0093 -0.0189
 1213DPPI   GL218260  12.406  15.565   5.592 -0.0198  0.3351 -0.1164
 1213DPPI   C1A18261  12.098  15.281   5.782 -0.0458  0.0379 -0.2421
 1213DPPI   C2A18262  11.944  15.546   6.157  0.2606 -0.0944 -0.1725
 1213DPPI   C3A18263  11.852  15.642   6.662 -0.3516  0.1739 -0.2334
 1213DPPI   C4A18264  11.764  15.923   7.014  0.1017  0.0977  0.0776
 1213DPPI   C1B18265  12.451  15.667   6.076  0.3618  0.1006 -0.0257
 1213DPPI   C2B18266  12.345  15.560   6.444 -0.0455  0.2243  0.2645
 1213DPPI   C3B18267  12.647  15.511   6.796  0.1472 -0.1968  0.2698
 1213DPPI   C4B18268  12.658  15.621   7.265 -0.0895 -0.0073  0.0884
 1214DPPI    C118269   9.879   4.693   5.031 -0.0556 -0.0319  0.0411
 1214DPPI    C218270   9.987   4.308   5.021  0.1785  0.0321  0.0407
 1214DPPI    C318271   9.913   4.504   4.680  0.0187 -0.0225  0.0430
 1214DPPI   PO418272   9.724   4.716   5.259  0.0079  0.0040 -0.3270
 1214DPPI   GL118273   9.778   4.453   5.560 -0.1309 -0.2831 -0.0899
 1214DPPI   GL218274   9.763   4.153   5.463 -0.0733 -0.2360 -0.1808
 1214DPPI   C1A18275  10.137   4.329   5.784  0.0941  0.2930  0.2362
 1214DPPI   C2A18276  10.314   4.238   6.259  0.0474 -0.1830  0.0011
 1214DPPI   C3A18277  10.443   4.172   6.771  0.4010 -0.0630 -0.6228
 1214DPPI   C4A18278  10.795   4.031   7.047  0.2895 -0.1212  0.2285
 1214DPPI   C1B18279   9.659   4.189   5.946 -0.0690  0.2038 -0.3077
 1214DPPI   C2B18280   9.618   4.115   6.244  0.0590  0.2460 -0.4407
 1214DPPI   C3B18281   9.644   4.000   6.665 -0.0983  0.1546 -0.0089
 1214DPPI   C4B18282   9.799   3.776   6.914  0.4069 -0.0081  0.1525
 1215DPPI    C118283   3.922  10.426   5.244 -0.0236  0.1697  0.0473
 1215DPPI    C218284   3.627  10.206   5.400  0.0367  0.0001 -0.0747
 1215DPPI    C318285   3.592  10.355   5.030 -0.0912  0.3724  0.0826
 1215DPPI   PO418286   3.985  10.594   5.532  0.1479  0.2517 -0.0316
 1215DPPI   GL118287   3.910  10.833   5.785 -0.1048 -0.1311 -0.0446
 1215DPPI   GL218288   3.576  10.595   5.792 -0.3797 -0.1333 -0.0470
 1215DPPI   C1A18289   3.759  10.902   6.145 -0.4447 -0.0803  0.1030
 1215DPPI   C2A18290   3.596  10.876   6.590 -0.2536  0.1606  0.1832
 1215DPPI   C3A18291   3.536  10.718   6.946 -0.2824  0.0061 -0.0146
 1215DPPI   C4A18292   3.613  10.891   7.390  0.0493 -0.1669  0.1878
 1215DPPI   C1B18293   3.880  10.289   6.103 -0.2089  0.2434  0.0867
 1215DPPI   C2B18294   4.268  10.104   6.201  0.1730  0.0979  0.0584
 1215DPPI   C3B18295   4.427  10.050   6.613 -0.2958  0.1461 -0.0919
 1215DPPI   C4B18296   4.576   9.963   7.052 -0.2838 -0.0629  0.2160
 1216DPPI    C118297  10.926  16.801   5.199  0.1012  0.2279  0.0734
 1216DPPI    C218298  11.032  17.092   4.947  0.2019  0.1917  0.0735
 1216DPPI    C318299  11.146  16.715   4.877 -0.2537  0.0858 -0.1371
 1216DPPI   PO418300  10.780  16.932   5.377 -0.0308 -0.0551 -0.1739
 1216DPPI   GL118301  10.766  17.149   5.798  0.1656 -0.2119 -0.1312
 1216DPPI   GL218302  10.470  17.336   5.819  0.2649 -0.0753  0.2577
 1216DPPI   C1A18303  11.027  17.201   6.266  0.1640 -0.2076  0.1128
 1216DPPI   C2A18304  11.141  17.050   6.683 -0.2303 -0.0313 -0.2168
 1216DPPI   C3A18305  11.091  16.768   7.065 -0.1439  0.0785  0.0739
 1216DPPI   C4A18306  11.216  16.501   7.319 -0.1887 -0.0094  0.0216
 1216DPPI   C1B18307  10.300  17.389   6.259  0.0333  0.1260  0.1522
 1216DPPI   C2B18308  10.253  17.430   6.682  0.0720 -0.0453  0.2230
 1216DPPI   C3B18309  10.178  17.530   7.096 -0.1012  0.2380  0.1332
 1216DPPI   C4B18310  10.432  17.644   7.505  0.0943  0.0527 -0.3863
 1217DPPI    C118311   7.933  15.725   5.111 -0.0278 -0.3571  0.0126
 1217DPPI    C218312   7.629  15.633   4.869 -0.1546 -0.0272  0.0417
 1217DPPI    C318313   7.971  15.774   4.716 -0.1934  0.0716  0.0456
 1217DPPI   PO418314   7.848  15.862   5.287 -0.0222 -0.3953  0.0470
 1217DPPI   GL118315   7.944  15.685   5.627  0.1367  0.0286  0.3380
 1217DPPI   GL218316   8.072  15.382   5.833 -0.1664 -0.0264 -0.2279
 1217DPPI   C1A18317   7.917  15.738   6.072  0.1401 -0.2038 -0.3268
 1217DPPI   C2A18318   7.802  15.725   6.435 -0.1689  0.0166 -0.2948
 1217DPPI   C3A18319   7.618  15.472   6.757  0.0794 -0.0527 -0.4794
 1217DPPI   C4A18320   7.435  15.336   7.155  0.0082 -0.2786 -0.1977
 1217DPPI   C1B18321   8.084  15.290   6.231 -0.3395  0.0637  0.3659
 1217DPPI   C2B18322   8.041  15.254   6.632  0.1145  0.1603 -0.1186
 1217DPPI   C3B18323   7.956  15.034   6.853 -0.0659  0.1243 -0.1968
 1217DPPI   C4B18324   7.877  15.124   7.310  0.2995 -0.1087  0.1581
 1218DPPI    C118325  10.199   7.887   5.171  0.0317  0.0065  0.0100
 1218DPPI    C218326   9.998   8.084   4.888 -0.0696 -0.0441  0.0463
 1218DPPI    C318327  10.316   7.863   4.789 -0.0171  0.0551 -0.0081
 1218DPPI   PO418328  10.008   7.908   5.336 -0.4045  0.3167 -0.1342
 1218DPPI   GL118329   9.816   8.104   5.708 -0.0351  0.1096 -0.0674
 1218DPPI   GL218330   9.552   7.878   5.913 -0.0800 -0.0391  0.0761
 1218DPPI   C1A18331  10.034   8.134   6.076  0.0784  0.1367 -0.1489
 1218DPPI   C2A18332   9.939   8.335   6.511  0.1255 -0.0755 -0.0096
 1218DPPI   C3A18333   9.858   8.442   6.891 -0.0258  0.2048  0.0279
 1218DPPI   C4A18334   9.650   8.575   7.221  0.1321  0.1938  0.0729
 1218DPPI   C1B18335   9.639   7.730   6.234  0.2622  0.6263 -0.1163
 1218DPPI   C2B18336   9.637   7.450   6.542 -0.1288  0.0775 -0.2671
 1218DPPI   C3B18337   9.669   7.433   6.975 -0.1414  0.0208 -0.0542
 1218DPPI   C4B18338   9.645   7.284   7.369  0.1369  0.3855 -0.4694
 1219DPPI    C118339   6.065  11.132   5.044 -0.0706  0.1820 -0.2101
 1219DPPI    C218340   5.809  10.842   4.945  0.1726 -0.0488 -0.1742
 1219DPPI    C318341   5.894  11.131   4.682  0.1600 -0.1789 -0.3231
 1219DPPI   PO418342   6.197  11.032   5.280 -0.0143 -0.0487  0.5416
 1219DPPI   GL118343   6.114  10.861   5.712  0.1314  0.2201 -0.0674
 1219DPPI   GL218344   5.808  10.694   5.620  0.0441 -0.1777  0.0918
 1219DPPI   C1A18345   6.121  10.897   6.200 -0.1616 -0.1989  0.0202
 1219DPPI   C2A18346   6.388  11.135   6.394 -0.0802  0.2143 -0.3211
 1219DPPI   C3A18347   6.576  11.295   6.665  0.0377  0.0623  0.1326
 1219DPPI   C4A18348   6.614  11.157   7.092  0.1835 -0.0091 -0.2621
 1219DPPI   C1B18349   5.673  10.832   5.927 -0.3089 -0.3997  0.3333
 1219DPPI   C2B18350   5.604  10.888   6.308  0.0683 -0.2282 -0.0493
 1219DPPI   C3B18351   5.290  10.816   6.747 -0.2057 -0.0500  0.2975
 1219DPPI   C4B18352   5.112  10.679   7.105  0.1774  0.4696 -0.0744
 1220DPPI    C118353   1.007  18.604   5.053  0.0425  0.0370 -0.1442
 1220DPPI    C218354   0.718  18.867   4.966 -0.1642 -0.1891 -0.1523
 1220DPPI    C318355   1.022  18.811   4.712 -0.0966  0.0699 -0.1309
 1220DPPI   PO418356   0.980  18.502   5.250 -0.0397 -0.2927 -0.1349
 1220DPPI   GL118357   1.054  18.413   5.666 -0.2043 -0.2732  0.0043
 1220DPPI   GL218358   1.252  18.306   5.965 -0.0379  0.2214 -0.1897
 1220DPPI   C1A18359   0.963  18.534   6.202  0.4649 -0.1502 -0.0522
 1220DPPI   C2A18360   1.071  18.586   6.655  0.1194 -0.1037  0.0938
 1220DPPI   C3A18361   1.368  18.871   6.859  0.1602  0.0724  0.0292
 1220DPPI   C4A18362   1.629  19.068   6.681  0.0535  0.0971  0.1507
 1220DPPI   C1B18363   1.244  18.088   6.345  0.0995 -0.0823  0.3635
 1220DPPI   C2B18364   1.028  17.904   6.583 -0.2310 -0.0501 -0.1989
 1220DPPI   C3B18365   0.799  17.847   6.911 -0.0536 -0.0274 -0.1409
 1220DPPI   C4B18366   0.850  17.784   7.267  0.3217 -0.0252 -0.0005
 1221DPPI    C118367   2.792   7.245   4.985  0.0663 -0.1156 -0.1351
 1221DPPI    C218368   2.871   7.608   4.838  0.1902 -0.0365  0.1212
 1221DPPI    C318369   3.036   7.284   4.671  0.3708  0.0560  0.1169
 1221DPPI   PO418370   2.889   7.295   5.303  0.0912  0.0341 -0.0128
 1221DPPI   GL118371   3.059   7.126   5.617  0.0042  0.1514  0.1069
 1221DPPI   GL218372   2.957   6.880   5.651 -0.2418 -0.1433 -0.0819
 1221DPPI   C1A18373   3.227   7.341   5.881 -0.1758 -0.0511 -0.1721
 1221DPPI   C2A18374   3.155   7.323   6.280 -0.0394 -0.0246  0.0015
 1221DPPI   C3A18375   2.851   7.232   6.552 -0.0107  0.0047  0.1600
 1221DPPI   C4A18376   2.816   7.145   7.077 -0.0428  0.0535  0.0276
 1221DPPI   C1B18377   2.744   7.139   6.017 -0.1324  0.0234 -0.1363
 1221DPPI   C2B18378   2.521   6.978   6.295 -0.2224  0.0672 -0.0467
 1221DPPI   C3B18379   2.441   6.736   6.672 -0.2467 -0.0657 -0.1671
 1221DPPI   C4B18380   2.102   6.483   6.724 -0.0686  0.0484  0.1105
 1222DPPI    C118381  15.746   2.505   5.140  0.0804  0.1359  0.1100
 1222DPPI    C218382  15.764   2.868   4.973  0.0528  0.0345 -0.1175
 1222DPPI    C318383  15.912   2.552   4.779 -0.0253 -0.0937  0.0296
 1222DPPI   PO418384  15.794   2.548   5.346 -0.1941  0.1852 -0.4571
 1222DPPI   GL118385  15.588   2.789   5.657  0.0405  0.0480  0.5512
 1222DPPI   GL218386  15.263   2.964   5.619 -0.2942  0.2406  0.2973
 1222DPPI   C1A18387  15.531   2.481   6.097 -0.1321  0.0640 -0.2532
 1222DPPI   C2A18388  15.584   2.347   6.501 -0.0646 -0.2422 -0.3291
 1222DPPI   C3A18389  15.483   2.144   6.863  0.3137 -0.0067  0.2197
 1222DPPI   C4A18390  15.576   2.170   7.285  0.1318  0.1378  0.1417
 1222DPPI   C1B18391  15.173   2.781   5.988  0.1447 -0.2842  0.0265
 1222DPPI   C2B18392  14.919   2.609   6.279 -0.1363  0.0371  0.4003
 1222DPPI   C3B18393  14.804   2.739   6.649 -0.0985 -0.0480  0.2031
 1222DPPI   C4B18394  14.609   3.023   6.904  0.1922  0.2765  0.0260
 1223DPPI    C118395  11.997   0.530   4.994 -0.0486 -0.1172  0.0283
 1223DPPI    C218396  12.186   0.857   4.863  0.0387 -0.1265  0.1294
 1223DPPI    C318397  11.786   0.841   4.856  0.0423 -0.1492 -0.1870
 1223DPPI   PO418398  12.150   0.447   5.245 -0.1119  0.0398 -0.0083
 1223DPPI   GL118399  12.606   0.242   5.473  0.0833  0.1260  0.1185
 1223DPPI   GL218400  12.220   0.104   5.563 -0.0963  0.0247  0.3974
 1223DPPI   C1A18401  12.800   0.206   5.837  0.2983  0.0355  0.0341
 1223DPPI   C2A18402  12.819   0.131   6.324  0.2422 -0.1808  0.0055
 1223DPPI   C3A18403  13.102  -0.024   6.570 -0.1385 -0.2443 -0.1241
 1223DPPI   C4A18404  13.235   0.156   6.991 -0.1947  0.1127 -0.2720
 1223DPPI   C1B18405  12.315   0.438   5.887  0.0506 -0.2745  0.2103
 1223DPPI   C2B18406  12.237   0.344   6.283 -0.0317 -0.0897  0.0610
 1223DPPI   C3B18407  12.409   0.525   6.643 -0.1443 -0.1592  0.0631
 1223DPPI   C4B18408  12.765   0.285   6.848 -0.1200 -0.0407 -0.1821
 1224DPPI    C118409   0.033   8.965   5.299 -0.1237 -0.0438  0.1240
 1224DPPI    C218410  -0.352   9.014   5.201  0.0277  0.4019 -0.2881
 1224DPPI    C318411  -0.132   8.735   5.017 -0.1107  0.0926  0.0040
 1224DPPI   PO418412  -0.018   9.039   5.574  0.0953  0.0972  0.0568
 1224DPPI   GL118413   0.235   9.297   5.896  0.0036 -0.4521 -0.0384
 1224DPPI   GL218414  -0.101   9.208   6.077 -0.5480  0.0076 -0.0031
 1224DPPI   C1A18415   0.408   9.062   6.323 -0.0430 -0.1331  0.0324
 1224DPPI   C2A18416   0.551   9.121   6.759  0.0290 -0.1543  0.1262
 1224DPPI   C3A18417   0.864   9.141   7.023  0.1093  0.0922 -0.0889
 1224DPPI   C4A18418   0.968   8.928   7.469  0.0356 -0.0055 -0.2140
 1224DPPI   C1B18419  -0.020   8.956   6.403 -0.1634 -0.0462  0.2633
 1224DPPI   C2B18420   0.166   8.714   6.705  0.1574 -0.2527 -0.1785
 1224DPPI   C3B18421   0.297   8.370   6.895  0.2310 -0.1480  0.0163
 1224DPPI   C4B18422   0.652   8.179   6.969  0.2705  0.0668  0.0682
 1225DPPI    C118423  17.132   4.271   5.294 -0.2960 -0.1633  0.0381
 1225DPPI    C218424  16.992   4.027   5.009  0.2309 -0.1065 -0.2835
 1225DPPI    C318425  16.940   4.423   4.978  0.0129 -0.1216 -0.1340
 1225DPPI   PO418426  17.099   4.114   5.487  0.3632  0.2467 -0.3111
 1225DPPI   GL118427  16.857   4.303   5.864 -0.1112  0.2820  0.0135
 1225DPPI   GL218428  16.802   3.936   5.866  0.1991 -0.2652  0.1524
 1225DPPI   C1A18429  16.928   4.486   6.273 -0.2628  0.1851 -0.0475
 1225DPPI   C2A18430  17.113   4.573   6.679  0.3850  0.1734  0.1974
 1225DPPI   C3A18431  17.195   4.616   7.094 -0.1575  0.1652  0.0274
 1225DPPI   C4A18432  17.412   4.535   7.445 -0.0856 -0.2580  0.3152
 1225DPPI   C1B18433  16.643   3.909   6.207  0.0230 -0.0237  0.0937
 1225DPPI   C2B18434  16.608   3.661   6.578  0.0858 -0.1768 -0.0902
 1225DPPI   C3B18435  16.638   3.701   6.956 -0.1208  0.0346  0.0022
 1225DPPI   C4B18436  16.975   3.742   7.235  0.0124 -0.2384  0.0646
 1226DPPI    C118437  15.406  16.682   5.271  0.0573 -0.0028 -0.1743
 1226DPPI    C218438  15.790  16.615   5.362  0.0620  0.1821 -0.0539
 1226DPPI    C318439  15.569  16.324   5.201  0.1880  0.0014  0.0956
 1226DPPI   PO418440  15.338  16.861   5.474  0.0890  0.3725  0.1029
 1226DPPI   GL118441  15.534  16.886   5.947  0.2980 -0.0819  0.0976
 1226DPPI   GL218442  15.431  17.109   6.247 -0.0163  0.1928 -0.4097
 1226DPPI   C1A18443  15.446  16.586   6.241 -0.2668 -0.3953 -0.0182
 1226DPPI   C2A18444  15.433  16.210   6.431 -0.1052 -0.1622  0.0229
 1226DPPI   C3A18445  15.394  15.971   6.815  0.0162  0.0001  0.0939
 1226DPPI   C4A18446  15.248  16.008   7.251  0.0178 -0.0580 -0.2424
 1226DPPI   C1B18447  15.273  16.948   6.608  0.0750  0.0070  0.3957
 1226DPPI   C2B18448  15.231  16.963   6.930 -0.1072  0.0786  0.1842
 1226DPPI   C3B18449  15.118  17.248   7.242 -0.2810 -0.0546  0.1738
 1226DPPI   C4B18450  15.111  17.629   7.493  0.0582  0.2109  0.0831
 1227DPPI    C118451  10.206  12.982   5.280  0.0642 -0.0541  0.0413
 1227DPPI    C218452  10.121  12.934   4.893  0.0372  0.0340  0.0361
 1227DPPI    C318453  10.234  12.620   5.113  0.0599 -0.0149 -0.0449
 1227DPPI   PO418454  10.056  13.062   5.457 -0.1064 -0.1787  0.0124
 1227DPPI   GL118455   9.932  13.049   5.753  0.0036 -0.2495  0.1777
 1227DPPI   GL218456   9.811  12.757   6.028  0.1978  0.1855  0.0758
 1227DPPI   C1A18457   9.806  13.228   6.078 -0.1908 -0.2517  0.0858
 1227DPPI   C2A18458   9.889  12.990   6.536  0.0724 -0.1829  0.0071
 1227DPPI   C3A18459  10.038  12.835   6.942  0.0970 -0.0135  0.1217
 1227DPPI   C4A18460   9.832  12.727   7.379 -0.1807 -0.1018 -0.1664
 1227DPPI   C1B18461   9.693  12.420   6.383 -0.0120  0.0424 -0.1428
 1227DPPI   C2B18462   9.488  12.072   6.447  0.3190 -0.1217 -0.2461
 1227DPPI   C3B18463   9.428  11.664   6.679 -0.2620  0.2497 -0.0174
 1227DPPI   C4B18464   9.250  11.293   6.837 -0.1504 -0.0260 -0.3959
 1228PYPI    C118465   3.846  16.847   4.825  0.1107 -0.1345  0.0960
 1228PYPI    C218466   3.714  16.866   4.448  0.0392  0.0272  0.1282
 1228PYPI    C318467   3.503  16.667   4.724  0.1099 -0.1219  0.0764
 1228PYPI   PO418468   3.842  17.166   4.960 -0.2593 -0.0773 -0.3043
 1228PYPI   GL118469   3.785  17.481   5.230 -0.2586 -0.4965  0.2312
 1228PYPI   GL218470   4.080  17.430   5.393  0.0060  0.4433 -0.1973
 1228PYPI   C1A18471   3.638  17.467   5.591 -0.0795 -0.1787 -0.2376
 1228PYPI   C2A18472   3.679  17.594   6.022 -0.2121  0.1857  0.1004
 1228PYPI   D3A18473   3.487  17.868   6.311 -0.0805 -0.1154  0.0186
 1228PYPI   C4A18474   3.107  17.929   6.586 -0.0262 -0.1260  0.0990
 1228PYPI   C1B18475   4.076  17.341   5.832  0.1475 -0.2598 -0.0273
 1228PYPI   C2B18476   4.086  17.349   6.260 -0.0290 -0.4254 -0.0826
 1228PYPI   C3B18477   3.842  17.624   6.604  0.2125 -0.4011  0.3231
 1228PYPI   C4B18478   3.703  17.934   6.905  0.1588  0.1713  0.0087
 1229PYPI    C118479   6.402   1.412   5.140 -0.0242 -0.0732 -0.2448
 1229PYPI    C218480   6.302   1.348   4.757  0.0564 -0.2468 -0.2381
 1229PYPI    C318481   6.235   1.065   5.031 -0.0918 -0.0850 -0.1048
 1229PYPI   PO418482   6.571   1.516   5.321 -0.0263 -0.0115 -0.3260
 1229PYPI   GL118483   6.599   1.635   5.746 -0.3027 -0.1649 -0.1562
 1229PYPI   GL218484   6.840   1.427   5.758  0.0014 -0.1456  0.2375
 1229PYPI   C1A18485   6.469   1.791   6.183  0.2221  0.1800  0.1957
 1229PYPI   C2A18486   6.549   1.838   6.609  0.0506  0.0162  0.0074
 1229PYPI   D3A18487   6.284   2.057   6.900 -0.0631 -0.0807  0.4139
 1229PYPI   C4A18488   6.433   2.069   7.310 -0.0242 -0.1504  0.0499
 1229PYPI   C1B18489   6.806   1.455   6.261 -0.0642 -0.0994  0.1140
 1229PYPI   C2B18490   6.970   1.485   6.645  0.0007  0.3662  0.2916
 1229PYPI   C3B18491   7.357   1.437   6.846 -0.1851  0.2719 -0.0037
 1229PYPI   C4B18492   7.683   1.152   6.803 -0.0296 -0.2177 -0.0196
 1230PYPI    C118493  17.672   7.799   5.506 -0.0008  0.0585  0.0870
 1230PYPI    C218494  17.532   7.426   5.533 -0.1596  0.1009 -0.1246
 1230PYPI    C318495  17.285   7.726   5.439 -0.0638  0.2847  0.1963
 1230PYPI   PO418496  17.834   7.763   5.687 -0.2380  0.2375 -0.1199
 1230PYPI   GL118497  17.699   7.837   6.117  0.2146 -0.0336 -0.0362
 1230PYPI   GL218498  17.694   8.175   6.191  0.0094  0.0121 -0.0975
 1230PYPI   C1A18499  17.659   7.871   6.562 -0.4564 -0.1241 -0.0079
 1230PYPI   C2A18500  17.537   7.708   6.945 -0.1696  0.0031  0.0762
 1230PYPI   D3A18501  17.177   7.548   7.124 -0.0727 -0.0527 -0.0677
 1230PYPI   C4A18502  17.085   7.173   7.427 -0.0930 -0.0110 -0.1415
 1230PYPI   C1B18503  17.970   8.341   6.486  0.1992  0.1272  0.0047
 1230PYPI   C2B18504  18.089   8.471   6.889  0.1484 -0.2503  0.0257
 1230PYPI   C3B18505  17.902   8.413   7.278  0.0137 -0.0393 -0.0093
 1230PYPI   C4B18506  17.901   8.206   7.700 -0.1108 -0.0132  0.1393
 1231PYPI    C118507  10.614  13.003   4.987  0.0845 -0.1300 -0.0296
 1231PYPI    C218508  10.890  12.905   4.714  0.2898  0.3853 -0.0185
 1231PYPI    C318509  10.547  13.076   4.599  0.1915  0.2115  0.0127
 1231PYPI   PO418510  10.707  12.951   5.277 -0.0438 -0.1702 -0.1845
 1231PYPI   GL118511  10.529  12.889   5.677  0.0282  0.1113 -0.1067
 1231PYPI   GL218512  10.630  12.566   5.848 -0.2230 -0.1444 -0.0290
 1231PYPI   C1A18513  10.424  13.029   6.003 -0.2716  0.2419  0.0271
 1231PYPI   C2A18514  10.398  13.172   6.486  0.2031 -0.1820  0.0432
 1231PYPI   D3A18515  10.216  13.277   6.857 -0.0311  0.2704 -0.2236
 1231PYPI   C4A18516  10.360  13.539   7.178  0.1349  0.2559  0.1359
 1231PYPI   C1B18517  10.379  12.505   6.081  0.1505 -0.1003 -0.1434
 1231PYPI   C2B18518  10.263  12.623   6.472 -0.1659 -0.0155  0.0349
 1231PYPI   C3B18519  10.452  12.566   6.903 -0.0663  0.1762 -0.0575
 1231PYPI   C4B18520  10.378  12.706   7.319  0.0359  0.0416  0.1474
 1232PYPI    C118521   8.928   1.776   4.852  0.0486 -0.2179 -0.0596
 1232PYPI    C218522   8.846   1.889   4.477  0.0395 -0.1771 -0.0454
 1232PYPI    C318523   8.986   1.521   4.549 -0.2420 -0.2895 -0.0586
 1232PYPI   PO418524   8.654   1.945   4.982 -0.3153 -0.2810  0.0756
 1232PYPI   GL118525   8.546   1.905   5.439  0.0287  0.1372 -0.0095
 1232PYPI   GL218526   8.608   2.223   5.571  0.0069 -0.1934  0.2266
 1232PYPI   C1A18527   8.492   1.563   5.813 -0.0404  0.4062 -0.5255
 1232PYPI   C2A18528   8.705   1.523   6.293  0.2085  0.1398 -0.0611
 1232PYPI   D3A18529   8.672   1.423   6.659 -0.2331 -0.2964  0.1671
 1232PYPI   C4A18530   9.037   1.246   6.785 -0.0087  0.1088 -0.2428
 1232PYPI   C1B18531   8.538   2.399   5.960 -0.0432 -0.2854  0.0285
 1232PYPI   C2B18532   8.706   2.527   6.384  0.2167 -0.1356  0.0270
 1232PYPI   C3B18533   8.488   2.478   6.799 -0.0980 -0.0696 -0.0111
 1232PYPI   C4B18534   8.219   2.693   6.973  0.1166 -0.0130 -0.2317
 1233PYPI    C118535   9.610  12.657   5.504 -0.0044  0.0094  0.0012
 1233PYPI    C218536   9.536  12.483   5.152 -0.0198  0.0149  0.0018
 1233PYPI    C318537   9.747  12.823   5.167 -0.0789  0.0521 -0.0081
 1233PYPI   PO418538   9.468  12.696   5.605  0.1109 -0.0666 -0.2633
 1233PYPI   GL118539   9.299  12.619   6.013 -0.0009  0.2637 -0.0755
 1233PYPI   GL218540   9.352  13.033   5.956  0.1972  0.0107 -0.0169
 1233PYPI   C1A18541   9.217  12.524   6.473  0.1111 -0.0243  0.0203
 1233PYPI   C2A18542   9.141  12.474   6.986 -0.1852  0.1260 -0.3931
 1233PYPI   D3A18543   9.332  12.396   7.356 -0.1373  0.0424 -0.0305
 1233PYPI   C4A18544   9.094  12.468   7.756  0.3795  0.0677  0.2340
 1233PYPI   C1B18545   9.329  13.088   6.391  0.3368 -0.1127  0.1083
 1233PYPI   C2B18546   9.419  13.117   6.737  0.1418 -0.0421  0.1175
 1233PYPI   C3B18547   9.530  12.738   6.853  0.0013  0.0172  0.0078
 1233PYPI   C4B18548   9.541  12.349   6.850 -0.4433  0.1094  0.2034
 1234PYPI    C118549   4.814   1.671   4.837 -0.2203  0.2153 -0.0312
 1234PYPI    C218550   4.906   2.060   4.831 -0.1182  0.1887 -0.2390
 1234PYPI    C318551   4.713   1.895   4.522  0.0983  0.0127 -0.2835
 1234PYPI   PO418552   4.740   1.636   5.080  0.1349 -0.4506  0.0734
 1234PYPI   GL118553   4.792   1.727   5.603 -0.0152 -0.2676  0.0620
 1234PYPI   GL218554   4.851   2.036   5.606 -0.1439  0.2506 -0.0025
 1234PYPI   C1A18555   5.235   1.806   5.830 -0.2238 -0.0050 -0.1366
 1234PYPI   C2A18556   5.476   1.439   6.144 -0.2883 -0.1640  0.0176
 1234PYPI   D3A18557   5.825   1.174   6.430 -0.0877 -0.1808  0.0676
 1234PYPI   C4A18558   5.920   1.148   6.748 -0.3025  0.2917  0.1992
 1234PYPI   C1B18559   4.960   2.097   6.084 -0.1813 -0.2349 -0.0189
 1234PYPI   C2B18560   5.156   2.260   6.443  0.0843 -0.4111 -0.0319
 1234PYPI   C3B18561   5.262   2.325   6.897 -0.3477 -0.1183 -0.0659
 1234PYPI   C4B18562   5.195   2.155   7.263  0.0708 -0.0428 -0.2303
 1235PYPI    C118563  11.212   0.307   5.141 -0.1389  0.0278 -0.0456
 1235PYPI    C218564  11.548   0.504   5.230 -0.0440 -0.1155 -0.0836
 1235PYPI    C318565  11.478   0.387   4.854 -0.1585 -0.0455 -0.0846
 1235PYPI   PO418566  11.203   0.079   5.358 -0.2979 -0.0751  0.2010
 1235PYPI   GL118567  11.427  -0.027   5.746  0.0327  0.3078  0.1081
 1235PYPI   GL218568  11.156  -0.142   5.935  0.1019  0.0473  0.0215
 1235PYPI   C1A18569  11.719   0.162   6.042 -0.2517 -0.0111 -0.0581
 1235PYPI   C2A18570  11.864   0.130   6.474 -0.0448 -0.2232  0.2293
 1235PYPI   D3A18571  11.859   0.284   6.908  0.2528  0.0335  0.1135
 1235PYPI   C4A18572  12.104   0.362   7.227 -0.0503  0.2746  0.0667
 1235PYPI   C1B18573  11.332  -0.082   6.308 -0.2902  0.3875 -0.1637
 1235PYPI   C2B18574  11.454  -0.016   6.744  0.1125  0.1306 -0.1892
 1235PYPI   C3B18575  11.665  -0.038   7.256 -0.1085  0.0180  0.0601
 1235PYPI   C4B18576  11.424   0.071   7.646 -0.1814 -0.0603 -0.1477
 1236PYPI    C118577  15.417  17.559   5.169 -0.2217  0.0281 -0.1537
 1236PYPI    C218578  15.136  17.292   5.266 -0.1693  0.0206 -0.0207
 1236PYPI    C318579  15.155  17.436   4.893 -0.4280  0.1153  0.0014
 1236PYPI   PO418580  15.622  17.507   5.271  0.1619 -0.1141 -0.1165
 1236PYPI   GL118581  15.462  17.377   5.695 -0.0770  0.0076  0.3842
 1236PYPI   GL218582  15.127  17.501   5.753 -0.0922 -0.0258  0.1211
 1236PYPI   C1A18583  15.468  17.761   6.001  0.1993 -0.2703 -0.0516
 1236PYPI   C2A18584  15.572  18.148   6.273 -0.3359  0.0511 -0.1116
 1236PYPI   D3A18585  15.818  18.300   6.549  0.2695 -0.0554 -0.2039
 1236PYPI   C4A18586  15.886  18.436   6.931 -0.0661 -0.2010 -0.3972
 1236PYPI   C1B18587  15.000  17.895   6.020  0.0550  0.2395 -0.1147
 1236PYPI   C2B18588  15.169  17.928   6.444  0.0473  0.2112 -0.1653
 1236PYPI   C3B18589  15.313  18.010   6.739 -0.1671 -0.1766  0.0983
 1236PYPI   C4B18590  15.730  17.864   6.866 -0.3092  0.0809  0.0279
 1237PYPI    C118591  17.113   8.963   5.634  0.0484 -0.1460 -0.0021
 1237PYPI    C218592  17.280   9.298   5.777 -0.1608  0.0147 -0.1282
 1237PYPI    C318593  17.385   9.161   5.416  0.1127 -0.1998  0.0290
 1237PYPI   PO418594  16.904   8.934   5.696  0.0866  0.0442  0.2051
 1237PYPI   GL118595  16.593   9.136   5.905  0.0356 -0.0350  0.0758
 1237PYPI   GL218596  16.955   9.052   6.177 -0.1733  0.1784 -0.0565
 1237PYPI   C1A18597  16.593   9.354   6.351 -0.0894  0.0999  0.1655
 1237PYPI   C2A18598  16.907   9.473   6.771  0.2836  0.0522  0.1051
 1237PYPI   D3A18599  16.892   9.665   7.050 -0.0165  0.1058 -0.0917
 1237PYPI   C4A18600  16.768   9.796   7.380 -0.0277 -0.0080 -0.0159
 1237PYPI   C1B18601  17.193   9.014   6.480 -0.4366  0.0526  0.2546
 1237PYPI   C2B18602  17.341   9.079   6.944  0.0447 -0.0175  0.2940
 1237PYPI   C3B18603  17.415   9.097   7.351 -0.0242 -0.2718  0.0721
 1237PYPI   C4B18604  17.415   9.034   7.904 -0.0172  0.0590 -0.1321
 1238PYPI    C118605   1.489   6.276   5.689  0.0077  0.0426  0.0334
 1238PYPI    C218606   1.615   6.638   5.575  0.4505 -0.1544 -0.1297
 1238PYPI    C318607   1.333   6.449   5.364  0.1190  0.1452  0.0336
 1238PYPI   PO418608   1.476   6.265   5.862 -0.0038 -0.0766 -0.1295
 1238PYPI   GL118609   1.459   6.293   6.262  0.0133  0.0737  0.0998
 1238PYPI   GL218610   1.582   6.513   6.317  0.0164  0.2403 -0.1133
 1238PYPI   C1A18611   1.537   6.240   6.753 -0.2925 -0.4030 -0.0063
 1238PYPI   C2A18612   1.730   6.532   7.041 -0.0685 -0.1389  0.3200
 1238PYPI   D3A18613   1.894   6.758   7.332 -0.0488 -0.0312 -0.0307
 1238PYPI   C4A18614   1.863   7.175   7.443  0.0059  0.3689  0.1028
 1238PYPI   C1B18615   1.596   6.814   6.652  0.3210  0.2556  0.0099
 1238PYPI   C2B18616   1.476   6.997   7.084  0.2520  0.0007  0.0102
 1238PYPI   C3B18617   1.438   6.968   7.500 -0.1951  0.1108  0.1746
 1238PYPI   C4B18618   1.143   7.072   7.788 -0.0000 -0.3935 -0.0991
 1239PYPI    C118619   8.098   6.246   5.115  0.0071  0.0172 -0.1036
 1239PYPI    C218620   8.151   6.415   4.757  0.2218 -0.2306 -0.1922
 1239PYPI    C318621   7.825   6.195   4.829  0.0565  0.0233 -0.1520
 1239PYPI   PO418622   8.305   6.170   5.280  0.1012  0.0015 -0.1117
 1239PYPI   GL118623   8.378   6.330   5.693 -0.1192  0.0122 -0.1462
 1239PYPI   GL218624   8.087   6.402   5.766 -0.0845 -0.0704 -0.2426
 1239PYPI   C1A18625   8.502   6.363   6.134  0.0797 -0.0322  0.0813
 1239PYPI   C2A18626   8.621   6.356   6.570  0.0738 -0.1536  0.1122
 1239PYPI   D3A18627   8.995   6.233   6.749  0.1696  0.4353  0.0972
 1239PYPI   C4A18628   9.135   5.826   6.989  0.1725 -0.2659 -0.0345
 1239PYPI   C1B18629   8.019   6.445   6.109  0.4652 -0.0513  0.3234
 1239PYPI   C2B18630   8.058   6.407   6.503  0.1588  0.6724  0.0970
 1239PYPI   C3B18631   7.995   6.312   6.859 -0.3332 -0.0436 -0.1376
 1239PYPI   C4B18632   8.151   6.239   7.272 -0.0713 -0.0253 -0.0775
 1240PYPI    C118633   8.266  17.987   4.499 -0.0248  0.0997 -0.1570
 1240PYPI    C218634   8.607  18.194   4.529 -0.0852  0.1751  0.0273
 1240PYPI    C318635   8.586  17.877   4.286  0.1933  0.0173  0.2038
 1240PYPI   PO418636   8.103  17.999   4.784  0.3042 -0.1005  0.1782
 1240PYPI   GL118637   8.009  17.811   5.123  0.0574  0.1070  0.1044
 1240PYPI   GL218638   8.136  17.517   5.278 -0.1455 -0.1481 -0.1539
 1240PYPI   C1A18639   7.943  18.161   5.399  0.1941  0.2163  0.2747
 1240PYPI   C2A18640   7.566  18.199   5.677  0.1607  0.0191  0.1470
 1240PYPI   D3A18641   7.202  17.961   5.834  0.0975  0.2818  0.1260
 1240PYPI   C4A18642   6.775  17.921   5.575 -0.1371  0.1069 -0.1684
 1240PYPI   C1B18643   7.983  17.751   5.639 -0.2176 -0.0127  0.1867
 1240PYPI   C2B18644   7.677  17.824   5.959  0.1241 -0.0104 -0.2146
 1240PYPI   C3B18645   7.410  17.717   6.309  0.1060 -0.3353 -0.3101
 1240PYPI   C4B18646   7.155  17.571   6.591 -0.0676  0.4041  0.2458
 1241PYPI    C118647   7.755  16.546   4.852 -0.0736  0.1444 -0.1200
 1241PYPI    C218648   7.734  16.150   4.903  0.0606  0.1548  0.0222
 1241PYPI    C318649   7.434  16.345   4.725 -0.1195  0.0243  0.1786
 1241PYPI   PO418650   7.930  16.540   5.115  0.0537  0.0105 -0.2751
 1241PYPI   GL118651   7.796  16.346   5.562 -0.3268  0.5181 -0.0766
 1241PYPI   GL218652   8.035  16.183   5.688  0.0194 -0.0253 -0.1146
 1241PYPI   C1A18653   7.586  16.094   5.854 -0.0255  0.0029  0.2001
 1241PYPI   C2A18654   7.463  16.144   6.130 -0.0222  0.1046  0.3304
 1241PYPI   D3A18655   7.324  16.289   6.558 -0.1776 -0.0061  0.0153
 1241PYPI   C4A18656   6.994  16.178   6.669 -0.1119  0.0930 -0.2920
 1241PYPI   C1B18657   7.965  16.261   6.125 -0.1942 -0.1586 -0.0752
 1241PYPI   C2B18658   7.949  16.214   6.517  0.2059 -0.1151  0.0149
 1241PYPI   C3B18659   7.607  16.074   6.838 -0.3149 -0.1345  0.1496
 1241PYPI   C4B18660   7.530  15.818   7.230 -0.1000 -0.0127 -0.0486
 1242PYPI    C118661   4.193   6.157   5.357 -0.0880 -0.1050 -0.1237
 1242PYPI    C218662   3.929   6.440   5.458  0.0147 -0.0441 -0.0232
 1242PYPI    C318663   4.295   6.543   5.332  0.0741 -0.1327  0.0749
 1242PYPI   PO418664   4.004   5.943   5.304  0.0708 -0.0956 -0.0001
 1242PYPI   GL118665   3.844   5.970   5.752 -0.0385 -0.3909  0.2373
 1242PYPI   GL218666   4.140   6.001   5.848 -0.0161  0.2528  0.1601
 1242PYPI   C1A18667   3.979   6.448   5.915  0.0806  0.0503  0.0758
 1242PYPI   C2A18668   3.880   6.649   6.293  0.0282 -0.1331  0.0691
 1242PYPI   D3A18669   3.692   6.428   6.641  0.0745 -0.0207 -0.2225
 1242PYPI   C4A18670   3.611   6.561   7.114 -0.4616  0.0611  0.5384
 1242PYPI   C1B18671   4.269   6.129   6.204 -0.1039 -0.0975  0.1151
 1242PYPI   C2B18672   4.136   6.055   6.594 -0.3497 -0.1319  0.2674
 1242PYPI   C3B18673   3.940   6.128   6.992 -0.0046  0.0693  0.0630
 1242PYPI   C4B18674   3.812   6.202   7.435 -0.4330 -0.2078  0.1105
 1243PYPI    C118675  12.810  17.655   5.250  0.1335 -0.1637  0.0190
 1243PYPI    C218676  12.978  17.336   5.424  0.2591 -0.2073 -0.1794
 1243PYPI    C318677  12.690  17.287   5.150 -0.0625 -0.1338  0.1389
 1243PYPI   PO418678  12.868  17.816   5.393  0.0918 -0.0720 -0.2800
 1243PYPI   GL118679  13.061  17.727   5.796 -0.0049  0.2093 -0.0384
 1243PYPI   GL218680  13.214  18.057   5.736 -0.1992 -0.2940  0.1400
 1243PYPI   C1A18681  13.120  17.798   6.228  0.3354 -0.0432 -0.0002
 1243PYPI   C2A18682  13.072  17.868   6.562 -0.1120  0.0072  0.1876
 1243PYPI   D3A18683  13.081  17.835   7.007  0.2503  0.2948 -0.0781
 1243PYPI   C4A18684  13.206  17.882   7.442  0.3043  0.1295 -0.3944
 1243PYPI   C1B18685  13.565  17.863   6.066 -0.0173  0.3409  0.2270
 1243PYPI   C2B18686  13.566  17.764   6.499 -0.3941  0.2463  0.0693
 1243PYPI   C3B18687  13.644  17.764   6.877  0.0769 -0.2473 -0.0713
 1243PYPI   C4B18688  13.733  17.695   7.255  0.3840 -0.1201  0.0091
 1244PYPI    C118689  10.363  11.744   5.091 -0.1790 -0.0143  0.1355
 1244PYPI    C218690  10.197  12.100   5.015 -0.0224  0.0377  0.0298
 1244PYPI    C318691  10.583  12.037   4.929 -0.0142 -0.1155  0.1729
 1244PYPI   PO418692  10.185  11.683   5.315  0.4027  0.1554  0.0320
 1244PYPI   GL118693  10.161  11.613   5.759  0.0848 -0.1324  0.0554
 1244PYPI   GL218694  10.280  11.299   5.934 -0.0273 -0.0733 -0.1388
 1244PYPI   C1A18695  10.302  11.661   6.233  0.2360 -0.1715  0.0126
 1244PYPI   C2A18696  10.209  11.727   6.656  0.2995 -0.0551 -0.0782
 1244PYPI   D3A18697  10.059  11.798   7.133 -0.1271 -0.0764  0.1003
 1244PYPI   C4A18698   9.775  11.901   6.950 -0.2240 -0.2542 -0.0528
 1244PYPI   C1B18699  10.003  11.185   6.303  0.0635  0.2785  0.0803
 1244PYPI   C2B18700   9.888  11.125   6.661 -0.0068 -0.0001  0.4064
 1244PYPI   C3B18701   9.673  10.897   6.909 -0.0004 -0.0544  0.0788
 1244PYPI   C4B18702   9.815  10.765   7.295 -0.0698 -0.1079 -0.2511
 1245PYPI    C118703   0.837   6.308   5.487 -0.1191  0.0595 -0.0511
 1245PYPI    C218704   0.526   6.332   5.236 -0.1974 -0.0517  0.0340
 1245PYPI    C318705   0.897   6.288   5.092 -0.2209  0.0760 -0.0676
 1245PYPI   PO418706   0.694   6.462   5.679 -0.2314  0.0028 -0.0640
 1245PYPI   GL118707   0.712   6.696   6.018 -0.1570  0.1608 -0.0755
 1245PYPI   GL218708   0.683   7.010   6.129  0.0375  0.1015  0.0108
 1245PYPI   C1A18709   0.714   6.690   6.493  0.1111 -0.0277 -0.1155
 1245PYPI   C2A18710   0.587   6.884   6.892  0.0225 -0.1719 -0.1988
 1245PYPI   D3A18711   0.456   7.010   7.332 -0.2121 -0.1219  0.0929
 1245PYPI   C4A18712   0.239   6.810   7.703 -0.2839 -0.0675  0.1218
 1245PYPI   C1B18713   0.704   7.297   6.429  0.1329 -0.0290  0.0990
 1245PYPI   C2B18714   0.652   7.373   6.904  0.0115  0.1400  0.2228
 1245PYPI   C3B18715   0.734   7.432   7.331 -0.3286 -0.2634 -0.0562
 1245PYPI   C4B18716   0.705   7.281   7.731  0.2786 -0.0800  0.0305
 1246PYPI    C118717   4.906  11.314   4.989 -0.0473 -0.0291  0.0736
 1246PYPI    C218718   5.072  11.319   4.625  0.1871 -0.0263  0.1785
 1246PYPI    C318719   4.787  11.051   4.712 -0.1149  0.1920 -0.1107
 1246PYPI   PO418720   4.806  11.529   5.029  0.1486 -0.1024 -0.0415
 1246PYPI   GL118721   4.799  11.651   5.426 -0.1485  0.0848  0.2162
 1246PYPI   GL218722   4.583  11.625   5.683  0.0543 -0.1137  0.2274
 1246PYPI   C1A18723   4.999  11.589   5.924  0.1699 -0.0575  0.2054
 1246PYPI   C2A18724   4.963  11.606   6.460  0.0829 -0.1912  0.0664
 1246PYPI   D3A18725   5.173  11.627   6.768  0.0774  0.0401 -0.3604
 1246PYPI   C4A18726   5.219  11.256   7.041 -0.1276  0.0586  0.1003
 1246PYPI   C1B18727   4.439  11.566   6.116 -0.2278 -0.0623  0.1652
 1246PYPI   C2B18728   4.398  11.652   6.494 -0.2898  0.2670 -0.0656
 1246PYPI   C3B18729   4.529  11.715   6.845 -0.5277 -0.2561 -0.0557
 1246PYPI   C4B18730   4.607  12.083   7.152  0.0103  0.0387 -0.0142
 1247PYPI    C118731   3.843   5.011   4.904  0.0508 -0.2424 -0.1871
 1247PYPI    C218732   3.746   5.262   4.608  0.0390 -0.0989 -0.0627
 1247PYPI    C318733   4.127   5.151   4.659  0.0907  0.1300  0.0636
 1247PYPI   PO418734   3.628   5.092   5.037  0.0308 -0.0536  0.0567
 1247PYPI   GL118735   3.508   5.257   5.517 -0.0900 -0.0300 -0.1511
 1247PYPI   GL218736   3.720   5.534   5.590 -0.2579 -0.0184  0.1822
 1247PYPI   C1A18737   3.305   5.043   5.916 -0.0309 -0.0112 -0.0219
 1247PYPI   C2A18738   3.286   5.057   6.359 -0.0265 -0.2640 -0.2453
 1247PYPI   D3A18739   3.283   4.852   6.648  0.2870  0.1507  0.4089
 1247PYPI   C4A18740   3.086   4.983   6.962 -0.0784  0.0342  0.0284
 1247PYPI   C1B18741   3.557   5.496   6.028  0.1764 -0.0376 -0.0980
 1247PYPI   C2B18742   3.518   5.468   6.466 -0.2661  0.0162  0.3213
 1247PYPI   C3B18743   3.530   5.323   6.833 -0.0002 -0.0005 -0.0431
 1247PYPI   C4B18744   3.856   5.300   7.138 -0.1226  0.1305 -0.1201
 1248ERGO   ROH18745   0.931   8.480  10.063 -0.0702  0.0256 -0.0117
 1248ERGO    R118746   0.951   8.631   9.824  0.0065  0.2427  0.1299
 1248ERGO    R218747   1.143   8.826   9.788  0.3259 -0.0516  0.1902
 1248ERGO    R318748   1.200   8.683   9.564 -0.1014  0.0741 -0.0089
 1248ERGO    R418749   1.261   8.960   9.492  0.3865  0.0482  0.2584
 1248ERGO    R518750   1.129   8.824   9.384  0.0439  0.4132  0.1892
 1248ERGO    C118751   1.382   8.903   9.109  0.0205  0.2242  0.1113
 1248ERGO    C218752   1.664   8.875   8.870  0.3399 -0.0681 -0.3077
 1249ERGO   ROH18753   6.578  10.585   5.771 -0.0018  0.1023  0.0290
 1249ERGO    R118754   6.430  10.590   6.012  0.0065  0.2542  0.0293
 1249ERGO    R218755   6.447  10.390   6.202 -0.2366  0.2080 -0.0038
 1249ERGO    R318756   6.504  10.597   6.368  0.0186  0.1179  0.0310
 1249ERGO    R418757   6.467  10.367   6.546  0.0760  0.0648 -0.0247
 1249ERGO    R518758   6.365  10.559   6.559  0.1770  0.1103  0.1488
 1249ERGO    C118759   6.531  10.548   6.902  0.4977 -0.1031 -0.0042
 1249ERGO    C218760   6.532  10.698   7.161  0.0165  0.0638  0.0410
 1250ERGO   ROH18761  16.706  16.159   9.625  0.0726  0.1097 -0.0536
 1250ERGO    R118762  16.753  16.127   9.347  0.0957  0.0001 -0.0381
 1250ERGO    R218763  16.567  16.014   9.176  0.0072  0.1600 -0.0520
 1250ERGO    R318764  16.602  16.246   9.038  0.2822  0.0970 -0.0934
 1250ERGO    R418765  16.526  16.050   8.835 -0.0086  0.1610 -0.0494
 1250ERGO    R518766  16.701  16.178   8.832  0.1587 -0.0645 -0.1009
 1250ERGO    C118767  16.534  16.288   8.507  0.2403  0.1023 -0.0868
 1250ERGO    C218768  16.606  16.438   8.259 -0.0047 -0.1237 -0.1766
 1251ERGO   ROH18769   8.374  14.121   9.664  0.3323 -0.4352  0.1516
 1251ERGO    R118770   8.391  14.211   9.396  0.1517 -0.2971  0.1838
 1251ERGO    R218771   8.629  14.212   9.255  0.0833 -0.0998  0.0661
 1251ERGO    R318772   8.485  14.067   9.075  0.0741 -0.0931  0.0681
 1251ERGO    R418773   8.617  14.275   8.915 -0.1084  0.0473  0.0979
 1251ERGO    R518774   8.404  14.230   8.919 -0.0837 -0.0646  0.1784
 1251ERGO    C118775   8.476  14.175   8.548 -0.2287  0.1392  0.1185
 1251ERGO    C218776   8.349  14.188   8.289  0.3525 -0.0413 -0.1717
 1252ERGO   ROH18777   2.950   0.199   5.826 -0.0801 -0.0270  0.0240
 1252ERGO    R118778   3.019   0.165   6.098 -0.0878 -0.0903  0.0194
 1252ERGO    R218779   3.008   0.372   6.282  0.0767 -0.0835  0.0333
 1252ERGO    R318780   2.852   0.197   6.420 -0.0485  0.0229  0.0268
 1252ERGO    R418781   2.945   0.387   6.621  0.4775 -0.3369  0.1244
 1252ERGO    R518782   2.963   0.171   6.630  0.1435 -0.3737 -0.1211
 1252ERGO    C118783   2.763   0.232   6.948  0.5935 -0.3846  0.1712
 1252ERGO    C218784   2.689   0.365   7.202 -0.1954  0.2941  0.3698
 1253ERGO   ROH18785   5.332  17.562   8.935 -0.1796  0.1245 -0.2268
 1253ERGO    R118786   5.470  17.721   8.747 -0.2900  0.0514 -0.3740
 1253ERGO    R218787   5.745  17.754   8.753 -0.3282  0.4544 -0.2423
 1253ERGO    R318788   5.728  17.669   8.495 -0.0540  0.0412 -0.1320
 1253ERGO    R418789   5.947  17.863   8.494 -0.3170  0.3309 -0.2846
 1253ERGO    R518790   5.772  17.865   8.364 -0.2366 -0.0972 -0.4010
 1253ERGO    C118791   6.048  17.847   8.102 -0.0531 -0.1289 -0.2058
 1253ERGO    C218792   6.152  18.035   7.867 -0.3957 -0.0217  0.0504
 1254ERGO   ROH18793  15.245   7.380   9.861 -0.0784  0.0651  0.0501
 1254ERGO    R118794  15.332   7.214   9.649  0.2306 -0.0649  0.2699
 1254ERGO    R218795  15.270   7.267   9.384  0.0522 -0.5729  0.2017
 1254ERGO    R318796  15.539   7.251   9.352  0.0908 -0.0416  0.1729
 1254ERGO    R418797  15.434   7.277   9.080 -0.0206 -0.4569  0.1654
 1254ERGO    R518798  15.568   7.122   9.153  0.3194 -0.1359  0.2614
 1254ERGO    C118799  15.782   7.269   8.873 -0.0266  0.1094  0.1172
 1254ERGO    C218800  15.991   7.301   8.655  0.2399 -0.0919  0.2325
 1255ERGO   ROH18801   0.814   4.159  10.204 -0.0011  0.1984 -0.0534
 1255ERGO    R118802   0.830   4.051   9.943 -0.0267  0.1071 -0.0180
 1255ERGO    R218803   0.669   4.137   9.736 -0.0121  0.0725 -0.0467
 1255ERGO    R318804   0.906   4.175   9.609 -0.0044 -0.0191 -0.0599
 1255ERGO    R418805   0.706   4.163   9.393 -0.0138  0.0423 -0.0491
 1255ERGO    R518806   0.888   4.043   9.410 -0.0582 -0.0208 -0.0517
 1255ERGO    C118807   0.951   4.215   9.075 -0.0076 -0.0613 -0.0627
 1255ERGO    C218808   0.818   4.062   8.777 -0.0214 -0.1819 -0.3182
 1256ERGO   ROH18809   2.574   0.216   9.668  0.4347  0.0569  0.0432
 1256ERGO    R118810   2.508   0.134   9.405  0.3004  0.1007  0.0621
 1256ERGO    R218811   2.509   0.307   9.190  0.4489  0.0795  0.0432
 1256ERGO    R318812   2.675   0.121   9.082  0.2322 -0.1101  0.0344
 1256ERGO    R418813   2.483   0.181   8.870  0.2059  0.0028  0.0919
 1256ERGO    R518814   2.531  -0.016   8.948  0.0515 -0.0181  0.1326
 1256ERGO    C118815   2.622  -0.067   8.582 -0.1390 -0.2199  0.1121
 1256ERGO    C218816   2.693  -0.084   8.264  0.0537 -0.0096 -0.2386
 1257ERGO   ROH18817  15.998  16.840   6.039 -0.2228  0.1227  0.1500
 1257ERGO    R118818  15.993  16.932   6.307  0.1681 -0.0381  0.2194
 1257ERGO    R218819  15.774  16.898   6.472  0.1753  0.3738  0.3327
 1257ERGO    R318820  15.958  16.783   6.637  0.0214 -0.1845  0.1372
 1257ERGO    R418821  15.728  16.843   6.810  0.3214  0.3613  0.3512
 1257ERGO    R518822  15.935  16.903   6.843  0.5191 -0.2011  0.2073
 1257ERGO    C118823  15.873  16.703   7.162  0.2620 -0.1704  0.1786
 1257ERGO    C218824  15.787  16.759   7.450 -0.2879 -0.1718 -0.5151
 1258ERGO   ROH18825  16.689  11.401  10.052 -0.2030 -0.1223 -0.1006
 1258ERGO    R118826  16.760  11.461   9.784 -0.1206 -0.0568 -0.0633
 1258ERGO    R218827  16.840  11.267   9.604 -0.0644 -0.0123 -0.0839
 1258ERGO    R318828  16.641  11.372   9.452 -0.0183  0.0240 -0.1222
 1258ERGO    R418829  16.800  11.211   9.266  0.0617  0.1110 -0.1216
 1258ERGO    R518830  16.746  11.421   9.243  0.0516  0.1122 -0.0659
 1258ERGO    C118831  16.590  11.277   8.926  0.1787  0.2169 -0.1795
 1258ERGO    C218832  16.422  11.263   8.741  0.0879  0.5385  0.0430
 1259ERGO   ROH18833  13.777  11.679   9.819 -0.2492 -0.1401 -0.1990
 1259ERGO    R118834  13.803  11.620   9.544 -0.1760 -0.1198 -0.1969
 1259ERGO    R218835  13.728  11.798   9.346 -0.1736 -0.1255 -0.2049
 1259ERGO    R318836  13.983  11.760   9.259 -0.1456 -0.0635 -0.1498
 1259ERGO    R418837  13.832  11.829   9.018 -0.1306 -0.2085 -0.1992
 1259ERGO    R518838  13.958  11.653   9.046 -0.0709 -0.1509 -0.1144
 1259ERGO    C118839  14.132  11.811   8.745 -0.0794 -0.1986 -0.1440
 1259ERGO    C218840  14.251  11.928   8.419 -0.2922  0.0247  0.1224
 1260ERGO   ROH18841  14.528  17.883   6.291 -0.0424 -0.1735 -0.0202
 1260ERGO    R118842  14.685  17.730   6.471 -0.0864 -0.2477 -0.0442
 1260ERGO    R218843  14.772  17.829   6.714  0.0956 -0.2463 -0.1071
 1260ERGO    R318844  14.652  17.605   6.811 -0.0427 -0.1250  0.0053
 1260ERGO    R418845  14.792  17.718   7.041  0.1791 -0.1966 -0.0953
 1260ERGO    R518846  14.810  17.515   6.966 -0.0347 -0.2269 -0.0628
 1260ERGO    C118847  14.691  17.444   7.322  0.0980 -0.0539  0.0170
 1260ERGO    C218848  14.641  17.524   7.673  0.0897  0.0653  0.0747
 1261ERGO   ROH18849   1.646   5.175   5.919 -0.1674  0.1402  0.0614
 1261ERGO    R118850   1.669   5.219   6.198  0.1095 -0.1686  0.0925
 1261ERGO    R218851   1.460   5.311   6.352  0.4180  0.2230  0.2938
 1261ERGO    R318852   1.514   5.089   6.500 -0.0439 -0.0614  0.0616
 1261ERGO    R418853   1.359   5.263   6.679  0.4167  0.1460  0.2827
 1261ERGO    R518854   1.554   5.174   6.721  0.2367 -0.3588  0.1348
 1261ERGO    C118855   1.351   5.027   7.009 -0.0176 -0.1659  0.0581
 1261ERGO    C218856   1.321   4.800   7.334 -0.2272  0.0919  0.0768
 1262ERGO   ROH18857   2.257  16.291   5.944 -0.2003 -0.1576  0.3473
 1262ERGO    R118858   2.227  16.324   6.224 -0.1534 -0.0098  0.3358
 1262ERGO    R218859   2.443  16.357   6.393 -0.1231  0.0494  0.2879
 1262ERGO    R318860   2.308  16.580   6.470 -0.0818  0.1063  0.1924
 1262ERGO    R418861   2.511  16.541   6.678 -0.0637  0.1805  0.1894
 1262ERGO    R518862   2.296  16.563   6.708 -0.0566  0.2265  0.2024
 1262ERGO    C118863   2.425  16.857   6.915  0.0095  0.3103  0.0425
 1262ERGO    C218864   2.456  17.034   7.124 -0.0764 -0.1230  0.2178
 1263ERGO   ROH18865   1.910   9.725   5.713  0.0722  0.0475 -0.0750
 1263ERGO    R118866   1.849   9.614   5.967 -0.0672  0.0659 -0.1001
 1263ERGO    R218867   2.044   9.521   6.139 -0.1799 -0.1544 -0.0947
 1263ERGO    R318868   1.925   9.691   6.314 -0.0315 -0.0665 -0.0767
 1263ERGO    R418869   2.084   9.511   6.482 -0.2658 -0.3027 -0.0880
 1263ERGO    R518870   1.871   9.554   6.503 -0.2299 -0.0677 -0.1272
 1263ERGO    C118871   1.995   9.665   6.846 -0.1766 -0.3065 -0.0672
 1263ERGO    C218872   2.006   9.594   7.140 -0.1807  0.2683 -0.0385
 1264ERGO   ROH18873   8.089  12.318   9.825  0.0454 -0.0149  0.0122
 1264ERGO    R118874   8.209  12.383   9.578  0.2086  0.2035  0.1458
 1264ERGO    R218875   8.482  12.415   9.549  0.2826 -0.2725  0.2558
 1264ERGO    R318876   8.450  12.230   9.352 -0.0530  0.1331 -0.0919
 1264ERGO    R418877   8.704  12.362   9.289  0.3028 -0.3317  0.2849
 1264ERGO    R518878   8.534  12.337   9.155  0.3015  0.2971  0.1376
 1264ERGO    C118879   8.804  12.157   8.954 -0.0003  0.0147 -0.0248
 1264ERGO    C218880   8.941  12.019   8.650  0.1376 -0.0174 -0.0669
 1265ERGO   ROH18881  12.445  16.923   9.401 -0.0282  0.0906 -0.0647
 1265ERGO    R118882  12.287  16.825   9.188  0.0368 -0.0434 -0.0521
 1265ERGO    R218883  12.240  16.969   8.958 -0.1389 -0.0628 -0.0299
 1265ERGO    R318884  12.336  16.746   8.836  0.0645  0.0419 -0.0678
 1265ERGO    R418885  12.309  16.942   8.620 -0.1784  0.0367 -0.0463
 1265ERGO    R518886  12.224  16.741   8.624  0.0249 -0.0520 -0.0459
 1265ERGO    C118887  12.439  16.716   8.310 -0.0102  0.1929 -0.0915
 1265ERGO    C218888  12.506  16.922   7.971  0.3217  0.1991  0.0966
 1266ERGO   ROH18889   8.291  13.933   6.072  0.0352 -0.2732 -0.0030
 1266ERGO    R118890   8.401  13.833   6.313  0.0585 -0.2429 -0.0011
 1266ERGO    R218891   8.656  13.899   6.399 -0.0324 -0.0194  0.0996
 1266ERGO    R318892   8.525  13.973   6.625 -0.1764 -0.2213  0.0850
 1266ERGO    R418893   8.793  13.901   6.716 -0.0479  0.2324  0.1063
 1266ERGO    R518894   8.606  13.823   6.793  0.0700 -0.0811  0.0997
 1266ERGO    C118895   8.750  13.972   7.113 -0.1920  0.1895  0.0966
 1266ERGO    C218896   8.832  13.924   7.468 -0.1831 -0.0053 -0.0857
 1267ERGO   ROH18897  18.491  15.396   9.843  0.1146  0.0114 -0.0739
 1267ERGO    R118898  18.499  15.387   9.561  0.0412  0.1105 -0.0796
 1267ERGO    R218899  18.272  15.410   9.405 -0.0002  0.1426 -0.0110
 1267ERGO    R318900  18.413  15.609   9.286 -0.0521  0.1973  0.0180
 1267ERGO    R418901  18.237  15.507   9.075  0.1634 -0.0079 -0.0742
 1267ERGO    R518902  18.453  15.529   9.064  0.1612  0.1379  0.0735
 1267ERGO    C118903  18.349  15.750   8.771  0.2096 -0.0442 -0.0838
 1267ERGO    C218904  18.260  15.715   8.402  0.3822  0.2188  0.0369
 1268ERGO   ROH18905   9.910  12.484   9.693 -0.0924 -0.1569 -0.2538
 1268ERGO    R118906   9.737  12.525   9.473 -0.1166  0.0389 -0.2000
 1268ERGO    R218907   9.658  12.776   9.391  0.1558  0.1314 -0.1844
 1268ERGO    R318908   9.755  12.693   9.151 -0.0200  0.0048 -0.2135
 1268ERGO    R418909   9.608  12.940   9.091 -0.0447 -0.0099 -0.2302
 1268ERGO    R518910   9.580  12.746   8.995 -0.1287 -0.0576 -0.1164
 1268ERGO    C118911   9.669  12.958   8.691 -0.3265 -0.2111 -0.2842
 1268ERGO    C218912   9.480  13.106   8.361 -0.0893 -0.4448  0.3975
 1269ERGO   ROH18913   7.845   1.221   9.432 -0.0211  0.1227  0.1310
 1269ERGO    R118914   7.959   1.115   9.195  0.0875  0.2357  0.1325
 1269ERGO    R218915   7.816   0.956   9.020  0.3239 -0.1582  0.2873
 1269ERGO    R318916   7.898   1.141   8.838 -0.1475 -0.0733  0.1455
 1269ERGO    R418917   7.908   0.885   8.694  0.2260 -0.1226  0.2500
 1269ERGO    R518918   8.070   1.029   8.714 -0.0219  0.1937  0.0715
 1269ERGO    C118919   8.038   1.016   8.334 -0.2736 -0.0221  0.0952
 1269ERGO    C218920   8.232   0.838   8.059  0.0864 -0.1300 -0.2299
 1270ERGO   ROH18921   6.785  13.663   9.670  0.0270 -0.1215 -0.1668
 1270ERGO    R118922   6.755  13.759   9.405  0.1318 -0.0075 -0.1379
 1270ERGO    R218923   6.968  13.852   9.255  0.2321 -0.1785 -0.1017
 1270ERGO    R318924   6.879  13.669   9.075  0.0480 -0.0333 -0.1627
 1270ERGO    R418925   7.015  13.872   8.914  0.3352 -0.1608 -0.0872
 1270ERGO    R518926   6.812  13.799   8.886  0.2494  0.0928 -0.1511
 1270ERGO    C118927   6.960  13.711   8.546  0.2223 -0.0141 -0.1360
 1270ERGO    C218928   7.075  13.599   8.315 -0.2371  0.0963  0.2182
 1271ERGO   ROH18929   7.085   3.518   5.296  0.1425  0.0775 -0.0383
 1271ERGO    R118930   7.041   3.492   5.574  0.0365 -0.1890 -0.0771
 1271ERGO    R218931   7.078   3.254   5.709  0.3462 -0.2318 -0.2282
 1271ERGO    R318932   7.240   3.405   5.866  0.0269 -0.0787 -0.0374
 1271ERGO    R418933   7.259   3.134   5.978  0.3325 -0.1138 -0.1662
 1271ERGO    R518934   7.208   3.317   6.086 -0.0013 -0.2377 -0.1046
 1271ERGO    C118935   7.516   3.207   6.283  0.0249  0.0987  0.0489
 1271ERGO    C218936   7.538   3.061   6.585 -0.2007  0.1368  0.1753
 1272ERGO   ROH18937   6.087  11.419   5.487  0.2685  0.1374  0.0266
 1272ERGO    R118938   5.961  11.493   5.730  0.1951  0.1629 -0.0198
 1272ERGO    R218939   5.897  11.310   5.926 -0.1142  0.1432 -0.1372
 1272ERGO    R318940   6.041  11.477   6.085 -0.0376 -0.0701  0.0249
 1272ERGO    R418941   5.896  11.306   6.272 -0.2746 -0.0497 -0.1369
 1272ERGO    R518942   5.897  11.523   6.270 -0.0826 -0.0475 -0.0153
 1272ERGO    C118943   6.031  11.460   6.622 -0.2960 -0.3622  0.0154
 1272ERGO    C218944   6.176  11.457   7.083  0.0691 -0.2416 -0.0187
 1273ERGO   ROH18945   2.863   7.585   5.676  0.0895  0.3398 -0.0269
 1273ERGO    R118946   2.852   7.725   5.922  0.1253  0.2278  0.0392
 1273ERGO    R218947   2.623   7.734   6.078  0.1143  0.2491  0.0220
 1273ERGO    R318948   2.791   7.641   6.271  0.0579  0.0865 -0.0054
 1273ERGO    R418949   2.613   7.830   6.409  0.2654  0.2666  0.0220
 1273ERGO    R518950   2.832   7.832   6.410  0.2703  0.0510 -0.0156
 1273ERGO    C118951   2.765   7.799   6.784  0.3005  0.1242 -0.0038
 1273ERGO    C218952   2.848   7.641   6.982 -0.5157  0.2223 -0.1200
 1274ERGO   ROH18953   4.171  11.111   6.125 -0.3809  0.0320  0.0461
 1274ERGO    R118954   4.179  11.211   6.389 -0.1213  0.1687 -0.0110
 1274ERGO    R218955   4.157  11.048   6.611 -0.3454  0.3279  0.0831
 1274ERGO    R318956   4.390  11.167   6.682 -0.1036 -0.0433 -0.0524
 1274ERGO    R418957   4.302  11.027   6.924 -0.3690  0.3498  0.0962
 1274ERGO    R518958   4.354  11.238   6.908  0.0365  0.2479 -0.1136
 1274ERGO    C118959   4.606  11.128   7.173 -0.1558  0.0142 -0.0234
 1274ERGO    C218960   4.779  10.968   7.364 -0.0702 -0.2065  0.1345
 1275ERGO   ROH18961  17.223   6.434   6.330  0.2968 -0.2682  0.1640
 1275ERGO    R118962  17.217   6.462   6.612  0.1369 -0.1844  0.1530
 1275ERGO    R218963  17.121   6.690   6.736  0.1482 -0.1163  0.0380
 1275ERGO    R318964  16.963   6.512   6.867  0.0077 -0.0118 -0.0109
 1275ERGO    R418965  16.990   6.737   7.053  0.1748 -0.0897  0.0450
 1275ERGO    R518966  17.032   6.528   7.096  0.0051 -0.1221 -0.0082
 1275ERGO    C118967  16.765   6.597   7.359  0.0587  0.0239  0.0030
 1275ERGO    C218968  16.736   6.541   7.784  0.1709  0.2550  0.2941
 1276ERGO   ROH18969  11.872  10.177   9.575 -0.2108 -0.0189 -0.0612
 1276ERGO    R118970  11.828   9.900   9.540 -0.1195 -0.0338 -0.0674
 1276ERGO    R218971  11.574   9.790   9.527 -0.0866 -0.1323  0.0321
 1276ERGO    R318972  11.666   9.688   9.292 -0.1462 -0.0705 -0.0173
 1276ERGO    R418973  11.393   9.585   9.316 -0.0534 -0.2692  0.1365
 1276ERGO    R518974  11.573   9.468   9.283  0.0109 -0.1369  0.0372
 1276ERGO    C118975  11.373   9.370   8.973 -0.0899 -0.2909  0.1508
 1276ERGO    C218976  11.366   9.345   8.566 -0.0809  0.1413  0.0663
 1277ERGO   ROH18977   6.475  12.128   9.525 -0.1176 -0.0408  0.0960
 1277ERGO    R118978   6.597  12.122   9.270  0.0106 -0.1649  0.1594
 1277ERGO    R218979   6.549  11.921   9.087 -0.2013 -0.0492  0.0890
 1277ERGO    R318980   6.486  12.129   8.924  0.2030  0.0902  0.0992
 1277ERGO    R418981   6.544  11.906   8.742 -0.3046 -0.0529  0.0898
 1277ERGO    R518982   6.635  12.104   8.737  0.1214 -0.2331  0.0682
 1277ERGO    C118983   6.483  12.092   8.387  0.0147  0.0759  0.1000
 1277ERGO    C218984   6.488  12.044   7.965  0.0770  0.1007 -0.0517
 1278ERGO   ROH18985   6.121   3.436   5.809 -0.0338  0.0670  0.0035
 1278ERGO    R118986   6.245   3.421   6.063  0.0267  0.2022 -0.0176
 1278ERGO    R218987   6.321   3.646   6.205 -0.3203  0.2950  0.0273
 1278ERGO    R318988   6.169   3.535   6.401 -0.1152 -0.0060  0.0228
 1278ERGO    R418989   6.372   3.688   6.545 -0.3546  0.3208  0.0299
 1278ERGO    R518990   6.324   3.477   6.573  0.0061  0.2261 -0.0037
 1278ERGO    C118991   6.258   3.607   6.925 -0.1821  0.0532  0.0272
 1278ERGO    C218992   6.262   3.685   7.337 -0.0257 -0.0195 -0.0666
 1279ERGO   ROH18993  18.581  17.005   5.834  0.0543  0.0804  0.2235
 1279ERGO    R118994  18.667  16.918   6.089  0.0653 -0.0087  0.1897
 1279ERGO    R218995  18.547  17.002   6.323  0.0856 -0.0774  0.2254
 1279ERGO    R318996  18.523  16.735   6.368  0.0714 -0.0910  0.1389
 1279ERGO    R418997  18.595  16.848   6.629 -0.0914 -0.1595  0.2131
 1279ERGO    R518998  18.697  16.685   6.526 -0.0214 -0.1258  0.2303
 1279ERGO    C118999  18.600  16.508   6.849 -0.2079 -0.2202  0.1246
 1279ERGO    C219000  18.696  16.265   7.091 -0.0285  0.0614 -0.0635
 1280ERGO   ROH19001   1.141  15.033   9.735 -0.1022 -0.2559  0.0514
 1280ERGO    R119002   0.962  14.946   9.534 -0.2284  0.0064  0.0458
 1280ERGO    R219003   0.825  15.122   9.370  0.1233  0.2128 -0.0421
 1280ERGO    R319004   0.937  14.973   9.172 -0.1035 -0.0647  0.0322
 1280ERGO    R419005   0.685  15.071   9.058  0.0947  0.3516 -0.0518
 1280ERGO    R519006   0.751  14.864   9.068 -0.2824  0.2316  0.0352
 1280ERGO    C119007   0.708  14.903   8.691 -0.1348  0.1719  0.0125
 1280ERGO    C219008   0.471  14.930   8.520  0.1182  0.3478  0.1103
 1281ERGO   ROH19009  18.485  12.805   5.945 -0.0971  0.1395 -0.0805
 1281ERGO    R119010  18.632  12.815   6.187  0.1210  0.3572 -0.2185
 1281ERGO    R219011  18.678  13.050   6.324 -0.5008  0.3834 -0.0376
 1281ERGO    R319012  18.567  12.914   6.532  0.1317 -0.1964 -0.0455
 1281ERGO    R419013  18.740  13.114   6.658 -0.4928  0.3864 -0.0383
 1281ERGO    R519014  18.744  12.899   6.693  0.3294  0.3359 -0.1854
 1281ERGO    C119015  18.673  13.024   7.047  0.1054 -0.1561 -0.0462
 1281ERGO    C219016  18.721  13.036   7.356  0.0629  0.0142 -0.0738
 1282ERGO   ROH19017  10.914   4.537   9.629 -0.0509 -0.1192  0.0812
 1282ERGO    R119018  10.737   4.611   9.421 -0.2082 -0.1622  0.1975
 1282ERGO    R219019  10.808   4.600   9.154 -0.2109  0.3074  0.1679
 1282ERGO    R319020  10.584   4.448   9.134  0.0507 -0.0741  0.0053
 1282ERGO    R419021  10.636   4.538   8.861 -0.0556  0.2477  0.0883
 1282ERGO    R519022  10.450   4.560   8.971 -0.1195 -0.1689  0.0783
 1282ERGO    C119023  10.325   4.359   8.672  0.2804 -0.1451 -0.1107
 1282ERGO    C219024  10.316   4.225   8.313 -0.1133  0.1841  0.2249
 1283ERGO   ROH19025   3.324  13.546   5.830 -0.0826  0.0716 -0.1638
 1283ERGO    R119026   3.194  13.702   6.027  0.0177  0.0883 -0.1095
 1283ERGO    R219027   2.930  13.661   6.100 -0.0217  0.2511 -0.1437
 1283ERGO    R319028   3.036  13.642   6.349 -0.0470  0.0707 -0.1456
 1283ERGO    R419029   2.748  13.614   6.389 -0.0614  0.2531 -0.1686
 1283ERGO    R519030   2.879  13.756   6.489  0.0293  0.1172 -0.1027
 1283ERGO    C119031   2.741  13.569   6.792 -0.1082  0.0852 -0.1848
 1283ERGO    C219032   2.635  13.602   7.081  0.0291  0.0510 -0.2343
 1284ERGO   ROH19033  12.380   2.909   9.558  0.1048  0.0343 -0.1488
 1284ERGO    R119034  12.257   3.066   9.357  0.1443  0.1043 -0.1176
 1284ERGO    R219035  12.330   3.051   9.091  0.0382  0.0278 -0.1394
 1284ERGO    R319036  12.065   3.004   9.054 -0.0106  0.2159 -0.0442
 1284ERGO    R419037  12.160   3.106   8.795  0.0196 -0.0441 -0.1431
 1284ERGO    R519038  11.993   3.184   8.912  0.1055  0.1777 -0.1572
 1284ERGO    C119039  11.812   3.094   8.588 -0.0373  0.0906 -0.0559
 1284ERGO    C219040  11.781   3.094   8.245 -0.2751 -0.3578  0.1096
 1285ERGO   ROH19041  10.734  14.824   5.622  0.1878  0.1934 -0.0395
 1285ERGO    R119042  10.752  14.916   5.889 -0.0950  0.0700  0.0258
 1285ERGO    R219043  10.607  14.803   6.095 -0.0458 -0.2652 -0.1174
 1285ERGO    R319044  10.852  14.777   6.210 -0.0654  0.0317  0.0004
 1285ERGO    R419045  10.664  14.679   6.413 -0.0543 -0.0957 -0.0486
 1285ERGO    R519046  10.816  14.833   6.440 -0.2258  0.0755 -0.0338
 1285ERGO    C119047  10.927  14.583   6.706 -0.0777  0.2816  0.1021
 1285ERGO    C219048  10.948  14.481   7.063  0.2067  0.0750 -0.3984
 1286ERGO   ROH19049  16.063  12.876   9.759  0.1572 -0.0066  0.0420
 1286ERGO    R119050  16.110  12.720   9.527 -0.0242 -0.0815  0.0555
 1286ERGO    R219051  15.906  12.590   9.393 -0.1751  0.1348  0.0759
 1286ERGO    R319052  16.003  12.727   9.179 -0.0269  0.0034  0.0562
 1286ERGO    R419053  15.850  12.507   9.062 -0.1836  0.0828  0.0899
 1286ERGO    R519054  16.057  12.558   9.019 -0.1296 -0.0897  0.1130
 1286ERGO    C119055  15.908  12.588   8.669 -0.0493 -0.0709  0.0795
 1286ERGO    C219056  15.733  12.588   8.308  0.1656 -0.2131  0.1412
 1287ERGO   ROH19057  14.521  15.712   9.997 -0.0716  0.1252  0.0262
 1287ERGO    R119058  14.498  15.751   9.718  0.0161 -0.0064 -0.0012
 1287ERGO    R219059  14.569  15.988   9.595  0.0042 -0.0448 -0.0846
 1287ERGO    R319060  14.723  15.824   9.442  0.0955 -0.0792  0.0435
 1287ERGO    R419061  14.763  16.092   9.329 -0.1439 -0.1525 -0.2361
 1287ERGO    R519062  14.702  15.913   9.220 -0.0307 -0.3143 -0.0433
 1287ERGO    C119063  15.021  16.000   9.030 -0.1445 -0.2476 -0.2041
 1287ERGO    C219064  15.301  16.080   9.051 -0.0166  0.0405  0.0211
 1288ERGO   ROH19065  17.259  17.152   6.002  0.2448 -0.0458  0.0057
 1288ERGO    R119066  17.152  17.258   6.241  0.0430 -0.0705 -0.0727
 1288ERGO    R219067  16.991  17.109   6.410  0.2725 -0.2358  0.0026
 1288ERGO    R319068  17.175  17.184   6.597  0.1354  0.1930 -0.0214
 1288ERGO    R419069  16.938  17.106   6.752  0.3023 -0.2979  0.0074
 1288ERGO    R519070  17.046  17.295   6.766 -0.0993 -0.0526 -0.0303
 1288ERGO    C119071  17.078  17.174   7.126  0.1910  0.0685 -0.0124
 1288ERGO    C219072  16.965  16.938   7.354 -0.1629 -0.2269  0.1891
 1289ERGO   ROH19073  14.427   0.041   9.807 -0.0330  0.0653  0.1971
 1289ERGO    R119074  14.506  -0.074   9.561  0.0824  0.0327  0.2503
 1289ERGO    R219075  14.387  -0.008   9.321  0.0011 -0.2108  0.2284
 1289ERGO    R319076  14.642   0.044   9.245 -0.0560  0.0289  0.1859
 1289ERGO    R419077  14.498  -0.002   8.994 -0.0454 -0.2146  0.2113
 1289ERGO    R519078  14.680  -0.102   9.059  0.0729 -0.0061  0.2326
 1289ERGO    C119079  14.803   0.051   8.732 -0.1261  0.0083  0.1614
 1289ERGO    C219080  14.898   0.034   8.412  0.3185  0.1813 -0.4843
 1290ERGO   ROH19081  17.835   7.689  10.097 -0.1519  0.0333 -0.0198
 1290ERGO    R119082  17.903   7.708   9.823 -0.1386 -0.0603 -0.0213
 1290ERGO    R219083  18.151   7.794   9.736 -0.1840  0.0348 -0.0353
 1290ERGO    R319084  18.149   7.559   9.601 -0.0364 -0.0299  0.0679
 1290ERGO    R419085  18.363   7.713   9.476 -0.1102  0.0452  0.0189
 1290ERGO    R519086  18.196   7.619   9.374 -0.0512 -0.0988  0.0422
 1290ERGO    C119087  18.485   7.444   9.197  0.0714 -0.0095  0.1472
 1290ERGO    C219088  18.825   7.191   8.968 -0.0259  0.1805 -0.0455
 1291ERGO   ROH19089   9.330  16.455   9.959 -0.0035  0.1219  0.0787
 1291ERGO    R119090   9.412  16.449   9.688  0.0228  0.0655  0.0867
 1291ERGO    R219091   9.234  16.419   9.479  0.0442 -0.0201  0.0730
 1291ERGO    R319092   9.350  16.647   9.389  0.0133 -0.0216  0.0328
 1291ERGO    R419093   9.285  16.496   9.146 -0.1761  0.0440  0.0540
 1291ERGO    R519094   9.480  16.577   9.200 -0.1311  0.0030 -0.0705
 1291ERGO    C119095   9.425  16.756   8.868 -0.3333  0.0798  0.0052
 1291ERGO    C219096   9.550  16.900   8.587  0.0155 -0.0400 -0.2555
 1292ERGO   ROH19097  14.306  13.993   5.632  0.1606  0.0228  0.2311
 1292ERGO    R119098  14.163  13.912   5.862  0.0129  0.0236  0.1426
 1292ERGO    R219099  14.256  13.717   6.035 -0.1601 -0.0773  0.1352
 1292ERGO    R319100  14.220  13.911   6.222 -0.1500 -0.1083  0.1672
 1292ERGO    R419101  14.330  13.685   6.371  0.1351 -0.0163  0.0783
 1292ERGO    R519102  14.147  13.793   6.417  0.0976 -0.1553  0.2275
 1292ERGO    C119103  14.338  13.848   6.742  0.3166 -0.0099  0.0751
 1292ERGO    C219104  14.505  13.784   6.970 -0.1789 -0.0639  0.1216
 1293ERGO   ROH19105  11.260   7.784  10.046 -0.0586  0.2822 -0.1118
 1293ERGO    R119106  11.351   7.785   9.778 -0.0443  0.1369 -0.1091
 1293ERGO    R219107  11.484   7.570   9.666 -0.0352  0.0719  0.0116
 1293ERGO    R319108  11.289   7.589   9.478 -0.0294 -0.0288 -0.0038
 1293ERGO    R419109  11.503   7.441   9.345  0.0464  0.0801  0.0138
 1293ERGO    R519110  11.406   7.622   9.272 -0.0359  0.0263  0.0056
 1293ERGO    C119111  11.331   7.385   8.983  0.0994 -0.0097  0.0007
 1293ERGO    C219112  11.064   7.207   8.900  0.0240 -0.3143  0.0390
 1294ERGO   ROH19113   0.070  18.209   9.770 -0.0389 -0.1039 -0.1695
 1294ERGO    R119114   0.048  18.264   9.493  0.1153 -0.2701 -0.2161
 1294ERGO    R219115   0.018  18.066   9.304 -0.2526 -0.3636 -0.0659
 1294ERGO    R319116  -0.200  18.212   9.231  0.0425  0.0237 -0.2094
 1294ERGO    R419117  -0.176  18.006   9.024 -0.4915 -0.3697  0.0970
 1294ERGO    R519118  -0.188  18.222   8.992 -0.0151 -0.3764 -0.2347
 1294ERGO    C119119  -0.493  18.108   8.793 -0.3538 -0.0094  0.0573
 1294ERGO    C219120  -0.741  18.127   8.597  0.0425  0.2576  0.0857
 1295ERGO   ROH19121   9.636   5.587   9.809  0.0296  0.0903 -0.0207
 1295ERGO    R119122   9.489   5.636   9.573  0.0141  0.0636 -0.0181
 1295ERGO    R219123   9.609   5.666   9.326 -0.0060 -0.0494 -0.0491
 1295ERGO    R319124   9.436   5.469   9.254 -0.0751 -0.0210  0.0432
 1295ERGO    R419125   9.445   5.647   9.022 -0.3125  0.0558  0.1064
 1295ERGO    R519126   9.266   5.581   9.128 -0.2024  0.0166  0.2535
 1295ERGO    C119127   9.187   5.451   8.778 -0.5559  0.1438  0.2835
 1295ERGO    C219128   8.958   5.348   8.705 -0.2288 -0.0858  0.1217
 1296ERGO   ROH19129  17.028  13.991   9.796  0.3400  0.2480  0.0089
 1296ERGO    R119130  16.911  13.942   9.542  0.2354  0.1923  0.0666
 1296ERGO    R219131  16.846  14.146   9.367  0.0686  0.1615  0.0887
 1296ERGO    R319132  17.000  14.003   9.195  0.0434  0.2157  0.0212
 1296ERGO    R419133  16.811  14.147   9.023 -0.0882  0.1341  0.1040
 1296ERGO    R519134  16.848  13.933   9.023 -0.0059  0.1510  0.0937
 1296ERGO    C119135  16.935  14.014   8.661 -0.2034  0.1690  0.0495
 1296ERGO    C219136  16.964  14.210   8.438 -0.2971  0.3432  0.0585
 1297ERGO   ROH19137  12.380   3.913   5.284  0.0722 -0.0793  0.0662
 1297ERGO    R119138  12.343   4.069   5.517  0.0272 -0.0508  0.0406
 1297ERGO    R219139  12.095   4.100   5.637  0.0005 -0.0289 -0.0142
 1297ERGO    R319140  12.228   4.013   5.858 -0.0476 -0.0092  0.0220
 1297ERGO    R419141  12.014   4.183   5.963 -0.0283  0.0505 -0.0419
 1297ERGO    R519142  12.226   4.200   6.007 -0.0330  0.0191 -0.0156
 1297ERGO    C119143  12.091   4.148   6.359 -0.0903  0.1153 -0.0239
 1297ERGO    C219144  11.997   4.226   6.809  0.2667  0.0752 -0.2286
 1298ERGO   ROH19145   9.502   4.953   6.025 -0.4513  0.0507 -0.0333
 1298ERGO    R119146   9.582   5.040   6.282 -0.2933  0.0900 -0.0942
 1298ERGO    R219147   9.422   5.010   6.505 -0.1565  0.1229  0.0100
 1298ERGO    R319148   9.642   4.887   6.606 -0.0933  0.1392 -0.1069
 1298ERGO    R419149   9.499   4.988   6.842 -0.0774 -0.0384 -0.0182
 1298ERGO    R519150   9.708   5.024   6.791 -0.0998  0.0591 -0.0442
 1298ERGO    C119151   9.750   4.859   7.132  0.0281 -0.1169 -0.1444
 1298ERGO    C219152   9.785   4.892   7.430 -0.0831 -0.1488 -0.0529
 1299ERGO   ROH19153  14.617  10.849   5.865 -0.0054 -0.1765  0.0581
 1299ERGO    R119154  14.636  10.809   6.144  0.0484  0.0033  0.0822
 1299ERGO    R219155  14.642  11.018   6.325 -0.1259  0.1180 -0.0386
 1299ERGO    R319156  14.433  10.884   6.436 -0.0026 -0.0047  0.0482
 1299ERGO    R419157  14.569  11.010   6.663 -0.0698  0.1962 -0.0247
 1299ERGO    R519158  14.519  10.799   6.642  0.0958  0.1482  0.0700
 1299ERGO    C119159  14.331  10.880   6.964  0.0787  0.1266  0.0649
 1299ERGO    C219160  14.200  10.791   7.160  0.3447 -0.1174  0.1485
 1300ERGO   ROH19161   9.472   8.113   9.942 -0.4151  0.0380  0.0459
 1300ERGO    R119162   9.486   8.190   9.670 -0.3008 -0.1432 -0.0002
 1300ERGO    R219163   9.724   8.200   9.531 -0.2078  0.0257  0.1741
 1300ERGO    R319164   9.592   8.037   9.358  0.1081 -0.2509  0.1831
 1300ERGO    R419165   9.800   8.165   9.195 -0.2403  0.3056  0.1348
 1300ERGO    R519166   9.587   8.160   9.152 -0.2628 -0.1936  0.2165
 1300ERGO    C119167   9.721   7.992   8.838  0.0374  0.2089  0.1205
 1300ERGO    C219168   9.565   7.855   8.538  0.0604  0.0326  0.1230
 1301ERGO   ROH19169   2.166   0.610   5.937 -0.0827 -0.1339  0.0398
 1301ERGO    R119170   2.173   0.627   6.220  0.0429  0.0201  0.0297
 1301ERGO    R219171   2.142   0.865   6.356 -0.0755  0.0704 -0.0816
 1301ERGO    R319172   1.944   0.729   6.484  0.0907 -0.0175  0.0855
 1301ERGO    R419173   1.931   1.001   6.594 -0.0991  0.0452 -0.0882
 1301ERGO    R519174   1.949   0.816   6.708  0.1055  0.1325  0.0278
 1301ERGO    C119175   1.624   0.953   6.853  0.0432 -0.0520  0.0648
 1301ERGO    C219176   1.509   1.004   7.098 -0.0255 -0.0282  0.2070
 1302ERGO   ROH19177   4.927   1.114   5.709 -0.0946  0.0261 -0.1017
 1302ERGO    R119178   5.007   1.319   5.886 -0.2367  0.0875 -0.1062
 1302ERGO    R219179   4.829   1.499   5.997 -0.4034 -0.1874  0.0894
 1302ERGO    R319180   4.937   1.414   6.231 -0.0977 -0.1127 -0.0213
 1302ERGO    R419181   4.813   1.672   6.295 -0.3547 -0.2727  0.1410
 1302ERGO    R519182   5.020   1.614   6.334 -0.2480 -0.0350 -0.0500
 1302ERGO    C119183   4.906   1.693   6.689 -0.0394 -0.2522  0.0672
 1302ERGO    C219184   4.974   1.915   6.881  0.3533 -0.0483 -0.2834
 1303ERGO   ROH19185   4.756  18.418   5.609  0.0380 -0.2773 -0.0330
 1303ERGO    R119186   4.942  18.519   5.797 -0.0266 -0.1439 -0.0360
 1303ERGO    R219187   4.892  18.746   5.948 -0.1380 -0.1026 -0.1059
 1303ERGO    R319188   4.948  18.580   6.156 -0.1131 -0.0299 -0.0578
 1303ERGO    R419189   4.950  18.847   6.273 -0.0236 -0.0178 -0.1539
 1303ERGO    R519190   5.109  18.699   6.287 -0.0620 -0.0315 -0.1418
 1303ERGO    C119191   5.037  18.750   6.657  0.0665  0.0995 -0.1368
 1303ERGO    C219192   5.194  18.705   6.993 -0.2705 -0.0677  0.1237
 1304ERGO   ROH19193   2.716  11.586   9.373  0.0975 -0.0470  0.0363
 1304ERGO    R119194   2.572  11.503   9.144  0.0838 -0.0278  0.0385
 1304ERGO    R219195   2.389  11.667   9.016  0.0956 -0.0093  0.0496
 1304ERGO    R319196   2.541  11.611   8.798  0.0822 -0.0164  0.0415
 1304ERGO    R419197   2.329  11.788   8.698  0.0696 -0.0206  0.0498
 1304ERGO    R519198   2.383  11.592   8.619  0.0673 -0.0253  0.0533
 1304ERGO    C119199   2.436  11.806   8.308  0.0419 -0.0339  0.0425
 1304ERGO    C219200   2.484  11.999   8.029  0.1528  0.0627 -0.2752
 1305ERGO   ROH19201  14.146   2.936   9.789 -0.1280 -0.2650 -0.1891
 1305ERGO    R119202  14.227   3.058   9.546 -0.0387 -0.1891 -0.1228
 1305ERGO    R219203  14.312   2.911   9.328 -0.0061 -0.1245 -0.1552
 1305ERGO    R319204  14.118   3.051   9.198  0.0545 -0.0402 -0.1553
 1305ERGO    R419205  14.295   2.953   8.985 -0.0423 -0.1984 -0.1623
 1305ERGO    R519206  14.234   3.159   9.019  0.0874 -0.1536 -0.2026
 1305ERGO    C119207  14.102   3.108   8.664 -0.0064 -0.1624 -0.1665
 1305ERGO    C219208  14.077   3.239   8.496 -0.2410 -0.4418 -0.0994
 1306ERGO   ROH19209  18.356   1.936   6.306  0.2050  0.2950  0.1979
 1306ERGO    R119210  18.223   1.911   6.554 -0.0477  0.5157  0.0888
 1306ERGO    R219211  18.351   1.829   6.785 -0.4156  0.0833  0.1500
 1306ERGO    R319212  18.250   2.060   6.885  0.0867  0.3050  0.1755
 1306ERGO    R419213  18.351   1.914   7.119 -0.6966 -0.2160  0.2316
 1306ERGO    R519214  18.150   1.996   7.093 -0.4435  0.3959 -0.0332
 1306ERGO    C119215  18.256   2.181   7.409 -0.3885 -0.1821  0.3031
 1306ERGO    C219216  18.148   2.279   7.678 -0.1242  0.0795 -0.2271
 1307ERGO   ROH19217   9.342   9.745   5.962 -0.3244 -0.1129 -0.0387
 1307ERGO    R119218   9.250   9.805   6.223  0.0035 -0.1583  0.0922
 1307ERGO    R219219   8.982   9.808   6.288  0.0561  0.2922  0.3118
 1307ERGO    R319220   9.060   9.634   6.482 -0.1067 -0.0264  0.1002
 1307ERGO    R419221   8.902   9.838   6.623  0.4605  0.2231  0.4213
 1307ERGO    R519222   9.105   9.774   6.672  0.3893 -0.2512  0.1677
 1307ERGO    C119223   8.928   9.692   7.000  0.5432 -0.1163  0.2864
 1307ERGO    C219224   8.850   9.568   7.347 -0.0772 -0.1900  0.0285
 1308ERGO   ROH19225   4.682  15.188   5.745  0.0310 -0.0555 -0.1515
 1308ERGO    R119226   4.780  15.087   5.990  0.0649 -0.0353 -0.1566
 1308ERGO    R219227   4.787  15.238   6.221  0.0833 -0.0204 -0.1662
 1308ERGO    R319228   4.647  15.028   6.324  0.1059 -0.0222 -0.1381
 1308ERGO    R419229   4.782  15.148   6.555  0.2125 -0.0698 -0.1769
 1308ERGO    R519230   4.790  14.939   6.494  0.1675 -0.0611 -0.2105
 1308ERGO    C119231   4.648  14.899   6.845  0.3090 -0.1003 -0.1567
 1308ERGO    C219232   4.634  14.660   7.156 -0.2092 -0.1649  0.3088
 1309ERGO   ROH19233   0.884   8.321   6.049  0.0118 -0.1129 -0.0152
 1309ERGO    R119234   1.002   8.227   6.288  0.0534 -0.0195  0.0014
 1309ERGO    R219235   1.201   8.366   6.421  0.0290  0.0656 -0.0508
 1309ERGO    R319236   1.031   8.344   6.632  0.0508  0.0798 -0.0318
 1309ERGO    R419237   1.295   8.371   6.753  0.0839 -0.0781 -0.0633
 1309ERGO    R519238   1.150   8.214   6.792  0.0170 -0.0246 -0.0895
 1309ERGO    C119239   1.190   8.354   7.145  0.1363 -0.1484 -0.0527
 1309ERGO    C219240   1.257   8.461   7.439  0.1875  0.1141 -0.1276
 1310ERGO   ROH19241  17.605  10.003   9.600  0.3401  0.1184 -0.0482
 1310ERGO    R119242  17.662   9.932   9.332  0.3003  0.0223 -0.0310
 1310ERGO    R219243  17.742   9.678   9.259  0.1430 -0.0429  0.0289
 1310ERGO    R319244  17.531   9.696   9.088  0.1575  0.0472  0.0190
 1310ERGO    R419245  17.710   9.498   8.966  0.0241 -0.1292  0.0934
 1310ERGO    R519246  17.630   9.677   8.871  0.1529 -0.1019  0.0263
 1310ERGO    C119247  17.494   9.410   8.635 -0.0315 -0.0949  0.1216
 1310ERGO    C219248  17.275   9.179   8.415  0.1566  0.1771  0.4420
 1311ERGO   ROH19249  12.501  14.591   5.700  0.1733 -0.1553  0.1130
 1311ERGO    R119250  12.343  14.611   5.934  0.0505 -0.2001  0.0340
 1311ERGO    R219251  12.308  14.399   6.107  0.2209 -0.1411  0.1368
 1311ERGO    R319252  12.396  14.577   6.292 -0.0636  0.0683  0.0803
 1311ERGO    R419253  12.186  14.426   6.430  0.2487 -0.3256  0.1642
 1311ERGO    R519254  12.199  14.643   6.411 -0.1706 -0.2896  0.1204
 1311ERGO    C119255  12.198  14.609   6.791 -0.0023 -0.2366  0.1270
 1311ERGO    C219256  12.189  14.791   7.108  0.0265 -0.0053 -0.2360
 1312ERGO   ROH19257   7.205   9.529   5.811  0.0190  0.2920  0.0498
 1312ERGO    R119258   7.060   9.582   6.049  0.0579  0.3677  0.0550
 1312ERGO    R219259   6.948   9.382   6.203 -0.1887  0.4415 -0.0404
 1312ERGO    R319260   7.092   9.499   6.402 -0.0777  0.1941  0.0309
 1312ERGO    R419261   6.926   9.300   6.538 -0.3206  0.2854 -0.0857
 1312ERGO    R519262   6.940   9.512   6.586 -0.0974  0.2619  0.0214
 1312ERGO    C119263   7.047   9.362   6.919 -0.2932 -0.0377 -0.0450
 1312ERGO    C219264   7.187   9.233   7.189 -0.0273 -0.1248  0.0671
 1313ERGO   ROH19265   0.410   4.500   6.118 -0.0644 -0.0268  0.0046
 1313ERGO    R119266   0.525   4.418   6.364 -0.0501 -0.1285 -0.0341
 1313ERGO    R219267   0.640   4.597   6.542  0.2012 -0.2272 -0.0822
 1313ERGO    R319268   0.467   4.482   6.717  0.1465 -0.0452 -0.0176
 1313ERGO    R419269   0.656   4.629   6.885  0.2888 -0.1629 -0.0931
 1313ERGO    R519270   0.604   4.419   6.903  0.1252 -0.1102 -0.0313
 1313ERGO    C119271   0.503   4.541   7.250  0.2886  0.0454 -0.0388
 1313ERGO    C219272   0.537   4.543   7.526  0.0621  0.0607  0.2234
 1314ERGO   ROH19273   9.495   1.075   9.521 -0.0356  0.0404  0.1236
 1314ERGO    R119274   9.390   1.032   9.262 -0.1776  0.1005  0.1702
 1314ERGO    R219275   9.360   1.236   9.078 -0.0121  0.0957  0.1354
 1314ERGO    R319276   9.507   1.070   8.920 -0.2533 -0.1083  0.1197
 1314ERGO    R419277   9.378   1.257   8.734  0.0180  0.1024  0.1376
 1314ERGO    R519278   9.371   1.039   8.725 -0.3026  0.1092  0.1171
 1314ERGO    C119279   9.526   1.114   8.384 -0.1908 -0.0852  0.1241
 1314ERGO    C219280   9.643   1.059   8.108 -0.3858 -0.1416  0.1360
 1315ERGO   ROH19281   8.821   7.260   5.893 -0.1903  0.2129  0.1086
 1315ERGO    R119282   8.825   7.317   6.170 -0.0695  0.0601  0.1418
 1315ERGO    R219283   8.595   7.368   6.316 -0.0009  0.1813  0.2221
 1315ERGO    R319284   8.690   7.168   6.473 -0.1267  0.0014  0.0898
 1315ERGO    R419285   8.549   7.346   6.658  0.0033 -0.0130  0.2101
 1315ERGO    R519286   8.755   7.277   6.676 -0.0357 -0.1722  0.1587
 1315ERGO    C119287   8.612   7.146   7.005 -0.1122 -0.2950  0.0789
 1315ERGO    C219288   8.394   7.128   7.312 -0.4412  0.0314  0.3010
 1316ERGO   ROH19289   9.921  14.025   5.635 -0.1238  0.1354  0.0379
 1316ERGO    R119290   9.910  14.097   5.908 -0.0043  0.0651  0.0623
 1316ERGO    R219291   9.671  14.135   6.042  0.0542  0.1138  0.1554
 1316ERGO    R319292   9.774  13.952   6.214  0.0491  0.0292  0.0688
 1316ERGO    R419293   9.631  14.141   6.385  0.2257  0.0648  0.1770
 1316ERGO    R519294   9.838  14.080   6.406  0.2058 -0.0409  0.0635
 1316ERGO    C119295   9.705  13.972   6.746  0.3208 -0.0431  0.1083
 1316ERGO    C219296   9.583  13.895   6.979  0.3242 -0.0242 -0.0995
 1317ERGO   ROH19297  15.811   4.790   5.669 -0.1343  0.1348  0.1030
 1317ERGO    R119298  15.751   4.673   5.920 -0.0172 -0.0450  0.0501
 1317ERGO    R219299  15.899   4.465   6.026  0.1615  0.0126 -0.0723
 1317ERGO    R319300  15.921   4.633   6.239  0.0497 -0.0767  0.0097
 1317ERGO    R419301  15.903   4.365   6.357  0.0758 -0.1271 -0.1134
 1317ERGO    R519302  15.778   4.537   6.405  0.0199 -0.1817 -0.0792
 1317ERGO    C119303  15.926   4.464   6.749 -0.0790 -0.2922 -0.0601
 1317ERGO    C219304  15.933   4.480   7.072  0.1052 -0.2715 -0.0325
 1318ERGO   ROH19305   1.603   5.867  10.071  0.1177  0.1506 -0.1084
 1318ERGO    R119306   1.618   5.782   9.801  0.0072  0.2315 -0.1386
 1318ERGO    R219307   1.756   5.923   9.608  0.1581  0.1397 -0.0816
 1318ERGO    R319308   1.881   5.685   9.569 -0.1151  0.0068 -0.1930
 1318ERGO    R419309   1.941   5.841   9.328  0.5784  0.3277  0.1313
 1318ERGO    R519310   1.854   5.641   9.335  0.2554  0.4188 -0.3375
 1318ERGO    C119311   2.167   5.570   9.129  0.5667  0.3125  0.1507
 1318ERGO    C219312   2.417   5.682   8.980  0.0396  0.3596  0.0522
 1319ERGO   ROH19313  13.564   1.048   9.474  0.1724 -0.0140 -0.0452
 1319ERGO    R119314  13.675   0.946   9.235  0.1218 -0.1177 -0.0226
 1319ERGO    R219315  13.628   0.688   9.148 -0.0763 -0.0773 -0.0100
 1319ERGO    R319316  13.548   0.813   8.920  0.0618 -0.0332 -0.0377
 1319ERGO    R419317  13.677   0.567   8.828 -0.1755 -0.2017  0.0192
 1319ERGO    R519318  13.724   0.770   8.764  0.0390 -0.2489 -0.0184
 1319ERGO    C119319  13.631   0.614   8.428 -0.1035 -0.2328  0.0103
 1319ERGO    C219320  13.664   0.668   8.209 -0.2246 -0.2668 -0.0638
 1320ERGO   ROH19321  10.973  13.474   5.576 -0.1217  0.0054  0.0605
 1320ERGO    R119322  10.882  13.631   5.794 -0.1649  0.0652  0.0007
 1320ERGO    R219323  10.655  13.567   5.939 -0.1110  0.0176  0.0740
 1320ERGO    R319324  10.826  13.582   6.150 -0.0761  0.2058  0.0332
 1320ERGO    R419325  10.558  13.582   6.270 -0.0404 -0.0848  0.0991
 1320ERGO    R519326  10.717  13.728   6.304 -0.1940  0.0858  0.0589
 1320ERGO    C119327  10.662  13.605   6.661  0.0334  0.0323  0.0754
 1320ERGO    C219328  10.755  13.553   6.856  0.0273 -0.0129  0.1850
 1321ERGO   ROH19329   2.551   5.611   6.091 -0.0087 -0.2177  0.0813
 1321ERGO    R119330   2.560   5.642   6.372 -0.0719  0.0118  0.0606
 1321ERGO    R219331   2.334   5.693   6.523 -0.1668 -0.2106  0.0068
 1321ERGO    R319332   2.416   5.474   6.661  0.1601  0.0107  0.1759
 1321ERGO    R419333   2.243   5.620   6.848 -0.2570 -0.2273 -0.0225
 1321ERGO    R519334   2.447   5.553   6.885 -0.1516  0.1839  0.1602
 1321ERGO    C119335   2.267   5.371   7.167 -0.0026 -0.0293  0.1193
 1321ERGO    C219336   2.181   5.113   7.420 -0.1245 -0.1535  0.0157
 1322ERGO   ROH19337  13.984   7.985   5.697 -0.0182 -0.0569 -0.0837
 1322ERGO    R119338  13.923   8.106   5.946  0.0703  0.0364 -0.1060
 1322ERGO    R219339  13.709   8.027   6.102 -0.0121  0.2450 -0.1034
 1322ERGO    R319340  13.900   7.999   6.293 -0.0432  0.1088 -0.0922
 1322ERGO    R419341  13.650   8.037   6.442 -0.0517  0.0452 -0.1037
 1322ERGO    R519342  13.834   8.151   6.466 -0.0461  0.0090 -0.0085
 1322ERGO    C119343  13.795   8.016   6.820 -0.1040 -0.1990 -0.0934
 1322ERGO    C219344  13.998   7.976   7.210 -0.0099 -0.3323  0.0764
 1323ERGO   ROH19345   6.648   5.893   5.487 -0.0147 -0.0957  0.2884
 1323ERGO    R119346   6.694   5.757   5.731 -0.0227 -0.1196  0.2782
 1323ERGO    R219347   6.923   5.795   5.881  0.0128 -0.1918  0.2549
 1323ERGO    R319348   6.745   5.850   6.079  0.0488 -0.1440  0.2721
 1323ERGO    R419349   6.991   5.775   6.219  0.0247 -0.2170  0.2500
 1323ERGO    R519350   6.793   5.689   6.249  0.0087 -0.1552  0.2649
 1323ERGO    C119351   6.864   5.815   6.602  0.0654 -0.1867  0.2635
 1323ERGO    C219352   6.977   5.826   6.953  0.3008  0.0696  0.0251
 1324ERGO   ROH19353  18.070  12.929   9.773 -0.2253 -0.2020  0.0092
 1324ERGO    R119354  17.916  12.948   9.536 -0.0879 -0.1010 -0.0744
 1324ERGO    R219355  18.005  13.084   9.312  0.0543 -0.0219  0.0211
 1324ERGO    R319356  17.954  12.847   9.189  0.1082  0.0251 -0.0895
 1324ERGO    R419357  17.814  13.046   9.026 -0.0148  0.0443  0.0594
 1324ERGO    R519358  17.728  12.866   9.113  0.0834 -0.0293 -0.0128
 1324ERGO    C119359  17.654  12.802   8.745 -0.0048  0.1269 -0.0221
 1324ERGO    C219360  17.697  12.789   8.352 -0.0709 -0.1054  0.1143
 1325ERGO   ROH19361  13.060  13.102   5.754 -0.3224 -0.0292  0.0600
 1325ERGO    R119362  12.820  13.188   5.876 -0.1856  0.2101  0.1654
 1325ERGO    R219363  12.715  13.067   6.102 -0.2956  0.2005  0.1072
 1325ERGO    R319364  12.721  13.320   6.201  0.0558  0.1349  0.2725
 1325ERGO    R419365  12.570  13.165   6.400 -0.2994  0.2364  0.0943
 1325ERGO    R519366  12.505  13.349   6.301  0.0417  0.4105  0.1749
 1325ERGO    C119367  12.491  13.460   6.666  0.0286  0.1958  0.2419
 1325ERGO    C219368  12.433  13.482   6.891 -0.1264  0.0058  0.0665
 1326ERGO   ROH19369   7.479  11.211   5.901  0.0498 -0.0132  0.0160
 1326ERGO    R119370   7.374  11.177   6.162 -0.0075 -0.0401 -0.0097
 1326ERGO    R219371   7.304  10.929   6.263  0.0475 -0.0628 -0.0196
 1326ERGO    R319372   7.472  11.000   6.465 -0.0267  0.0006  0.0196
 1326ERGO    R419373   7.320  10.774   6.572 -0.0468  0.0230  0.0285
 1326ERGO    R519374   7.342  10.970   6.664 -0.0907  0.0469 -0.0168
 1326ERGO    C119375   7.487  10.750   6.940 -0.1714  0.1327  0.0933
 1326ERGO    C219376   7.477  10.647   7.304  0.1041  0.4909 -0.0978
 1327ERGO   ROH19377  13.303   2.437   5.621 -0.1522  0.5937  0.1348
 1327ERGO    R119378  13.465   2.347   5.835 -0.1213  0.2540 -0.0252
 1327ERGO    R219379  13.691   2.483   5.918  0.0162  0.0028  0.0236
 1327ERGO    R319380  13.568   2.474   6.160  0.1171 -0.1565  0.0643
 1327ERGO    R419381  13.846   2.540   6.221  0.0189  0.3724 -0.0429
 1327ERGO    R519382  13.731   2.376   6.306  0.3475  0.1826  0.0391
 1327ERGO    C119383  13.822   2.565   6.625  0.1150  0.4381 -0.0435
 1327ERGO    C219384  13.818   2.497   6.987  0.0099  0.1992 -0.1975
 1328ERGO   ROH19385   4.497  14.937   9.616 -0.0879  0.1986  0.1278
 1328ERGO    R119386   4.447  14.911   9.338  0.0284  0.1385  0.1119
 1328ERGO    R219387   4.321  15.107   9.191 -0.0927  0.0220  0.0572
 1328ERGO    R319388   4.543  15.088   9.035 -0.0205  0.2039  0.1348
 1328ERGO    R419389   4.350  15.242   8.874 -0.1256 -0.0362  0.0295
 1328ERGO    R519390   4.456  15.060   8.813  0.0796  0.0534  0.1138
 1328ERGO    C119391   4.575  15.302   8.543 -0.0770  0.1007  0.0861
 1328ERGO    C219392   4.754  15.460   8.373  0.1663 -0.5739  0.1864
 1329ERGO   ROH19393  13.496   3.790   9.345 -0.1303 -0.4442  0.1672
 1329ERGO    R119394  13.465   3.666   9.092  0.1868 -0.2269  0.0170
 1329ERGO    R219395  13.262   3.734   8.917  0.0095 -0.5285  0.1164
 1329ERGO    R319396  13.469   3.771   8.744 -0.0792  0.2047  0.1323
 1329ERGO    R419397  13.249   3.671   8.577  0.2768 -0.7898  0.1494
 1329ERGO    R519398  13.451   3.589   8.590  0.6506  0.0008  0.2326
 1329ERGO    C119399  13.436   3.669   8.218  0.3492 -0.2537  0.1836
 1329ERGO    C219400  13.437   3.840   7.978 -0.0992  0.0488  0.0616
 1330ERGO   ROH19401   1.666  12.836   9.566  0.2140  0.1274  0.0179
 1330ERGO    R119402   1.626  12.913   9.297  0.0996  0.0922  0.0236
 1330ERGO    R219403   1.822  13.038   9.146  0.0128  0.1411 -0.0557
 1330ERGO    R319404   1.775  12.833   8.974  0.0173  0.1098 -0.0182
 1330ERGO    R419405   1.856  13.056   8.803 -0.0738  0.1040 -0.0658
 1330ERGO    R519406   1.675  12.937   8.783 -0.0506  0.0619 -0.0073
 1330ERGO    C119407   1.831  12.875   8.441 -0.1201  0.0527 -0.0363
 1330ERGO    C219408   1.906  12.667   8.105  0.2048  0.0451 -0.1231
 1331ERGO   ROH19409   8.427   0.524   9.531 -0.0545 -0.1913  0.1781
 1331ERGO    R119410   8.579   0.367   9.353 -0.0753 -0.1078  0.0859
 1331ERGO    R219411   8.467   0.235   9.137 -0.1023 -0.0162  0.0433
 1331ERGO    R319412   8.657   0.371   8.997 -0.1269  0.0520  0.0759
 1331ERGO    R419413   8.509   0.221   8.794 -0.0482  0.0128  0.0484
 1331ERGO    R519414   8.724   0.219   8.825 -0.0524  0.0822  0.0787
 1331ERGO    C119415   8.711   0.339   8.463 -0.0399  0.0938  0.0820
 1331ERGO    C219416   8.606   0.532   8.173  0.2290 -0.1249  0.0178
 1332ERGO   ROH19417  11.696   8.339   6.191 -0.1658 -0.2575  0.1089
 1332ERGO    R119418  11.612   8.471   6.427  0.1082 -0.0785  0.1094
 1332ERGO    R219419  11.407   8.375   6.586 -0.0310  0.2997  0.1513
 1332ERGO    R319420  11.595   8.393   6.782  0.0335 -0.0047  0.1260
 1332ERGO    R419421  11.356   8.291   6.918 -0.1694  0.4452  0.1693
 1332ERGO    R519422  11.473   8.466   6.975  0.1663  0.2596  0.1270
 1332ERGO    C119423  11.502   8.259   7.294 -0.1894  0.2444  0.1559
 1332ERGO    C219424  11.520   8.206   7.718 -0.0932 -0.0181  0.3296
 1333ERGO   ROH19425  14.225  15.214   9.844 -0.2183  0.0370 -0.1632
 1333ERGO    R119426  14.223  15.273   9.567 -0.2029  0.0725 -0.1557
 1333ERGO    R219427  14.215  15.532   9.470 -0.0180  0.0943 -0.1230
 1333ERGO    R319428  14.437  15.453   9.333 -0.0892 -0.0597 -0.1525
 1333ERGO    R419429  14.338  15.686   9.186  0.1109  0.0519 -0.0916
 1333ERGO    R519430  14.382  15.490   9.103 -0.0605  0.0401 -0.1397
 1333ERGO    C119431  14.618  15.702   8.893  0.1191 -0.1173 -0.1010
 1333ERGO    C219432  14.532  15.902   8.497  0.2912 -0.1405  0.0972
 1334ERGO   ROH19433  10.409   9.122   6.200  0.2079  0.2812  0.0171
 1334ERGO    R119434  10.581   9.121   6.424  0.0853  0.1191  0.1102
 1334ERGO    R219435  10.494   9.183   6.679 -0.0352  0.0068  0.0874
 1334ERGO    R319436  10.602   8.941   6.740 -0.1271 -0.0506  0.0335
 1334ERGO    R419437  10.532   9.058   6.999  0.2581  0.1049  0.0943
 1334ERGO    R519438  10.727   8.980   6.940  0.1469 -0.0539 -0.1217
 1334ERGO    C119439  10.656   8.759   7.243  0.3427  0.1081  0.0479
 1334ERGO    C219440  10.574   8.780   7.543 -0.0513  0.0325  0.1081
 1335ERGO   ROH19441  10.615  10.834   9.882  0.3125 -0.1218  0.0447
 1335ERGO    R119442  10.520  10.869   9.618  0.0712 -0.2166  0.1178
 1335ERGO    R219443  10.684  10.948   9.410 -0.1648 -0.0814 -0.0115
 1335ERGO    R319444  10.587  10.723   9.291 -0.0616 -0.1701  0.0665
 1335ERGO    R419445  10.701  10.879   9.071 -0.3332 -0.0717 -0.0242
 1335ERGO    R519446  10.499  10.799   9.082 -0.2693 -0.2417  0.1189
 1335ERGO    C119447  10.620  10.628   8.764 -0.3346 -0.1491  0.0415
 1335ERGO    C219448  10.715  10.655   8.508  0.3485 -0.1185 -0.1108
 1336ERGO   ROH19449  12.602   8.743  10.011 -0.0979 -0.0488  0.1303
 1336ERGO    R119450  12.634   8.695   9.734 -0.0576  0.0045  0.1258
 1336ERGO    R219451  12.423   8.626   9.570 -0.0181 -0.0479  0.0995
 1336ERGO    R319452  12.508   8.839   9.424 -0.0847  0.0048  0.1363
 1336ERGO    R419453  12.335   8.687   9.241  0.1380 -0.1427  0.0386
 1336ERGO    R519454  12.541   8.750   9.204  0.1184  0.0077  0.1617
 1336ERGO    C119455  12.364   8.923   8.913  0.1665 -0.1485  0.0377
 1336ERGO    C219456  12.330   9.019   8.571  0.2132 -0.1645  0.0713
 1337ERGO   ROH19457   7.033   0.998   5.402  0.0521  0.1471  0.0771
 1337ERGO    R119458   6.886   0.923   5.632  0.0130  0.1404  0.0508
 1337ERGO    R219459   6.997   0.777   5.839 -0.0499  0.0387  0.0179
 1337ERGO    R319460   6.907   0.984   5.990  0.0241  0.0359  0.0677
 1337ERGO    R419461   6.988   0.780   6.184  0.0936  0.0249  0.0222
 1337ERGO    R519462   6.794   0.879   6.173  0.0953  0.0350  0.1094
 1337ERGO    C119463   6.898   0.976   6.528  0.2466  0.0143  0.0714
 1337ERGO    C219464   6.845   1.014   6.882  0.2847  0.1750 -0.2673
 1338ERGO   ROH19465   5.423  13.912   5.595  0.0101  0.1262  0.0476
 1338ERGO    R119466   5.367  13.878   5.871  0.0238  0.0044  0.0351
 1338ERGO    R219467   5.389  13.633   5.998  0.3268  0.0081 -0.0093
 1338ERGO    R319468   5.551  13.772   6.167  0.1310  0.1883  0.0367
 1338ERGO    R419469   5.398  13.593   6.341  0.3464 -0.0618 -0.0171
 1338ERGO    R519470   5.417  13.809   6.361  0.0578 -0.0346  0.0347
 1338ERGO    C119471   5.556  13.700   6.699  0.1740  0.0667  0.0216
 1338ERGO    C219472   5.560  13.518   7.015 -0.3492 -0.3728  0.2135
 1339ERGO   ROH19473  15.770   6.294   9.598  0.0905 -0.0964 -0.0907
 1339ERGO    R119474  16.019   6.255   9.470  0.0729 -0.0203 -0.1491
 1339ERGO    R219475  16.211   6.083   9.568  0.1770  0.0883 -0.1546
 1339ERGO    R319476  16.198   5.978   9.317  0.1513  0.0169 -0.1238
 1339ERGO    R419477  16.481   5.958   9.392  0.1565  0.0475 -0.1571
 1339ERGO    R519478  16.401   6.051   9.212  0.1328 -0.0078 -0.1713
 1339ERGO    C119479  16.626   5.787   9.054  0.1205 -0.0435 -0.1297
 1339ERGO    C219480  16.695   5.437   9.022  0.3378 -0.0019 -0.0269
 1340ERGO   ROH19481  16.076   2.963   9.820 -0.0942  0.0810 -0.1360
 1340ERGO    R119482  16.047   2.878   9.552 -0.0188 -0.0261 -0.1099
 1340ERGO    R219483  16.115   3.038   9.337 -0.1005 -0.0566 -0.1540
 1340ERGO    R319484  16.267   2.823   9.267  0.0384  0.0139 -0.0750
 1340ERGO    R419485  16.278   3.002   9.034  0.2077  0.0981 -0.0118
 1340ERGO    R519486  16.221   2.791   9.034  0.2731  0.0754 -0.1359
 1340ERGO    C119487  16.515   2.780   8.792  0.5175  0.2543  0.1452
 1340ERGO    C219488  16.558   2.655   8.510  0.1839 -0.1537 -0.0438
 1341ERGO   ROH19489  14.798  14.972   5.831 -0.0096  0.2838 -0.0130
 1341ERGO    R119490  14.746  15.171   6.025 -0.0026  0.1885  0.0877
 1341ERGO    R219491  14.653  15.110   6.279  0.0061  0.0627  0.0651
 1341ERGO    R319492  14.870  15.254   6.357  0.0108  0.0230  0.1239
 1341ERGO    R419493  14.675  15.293   6.572  0.0208 -0.0561  0.1384
 1341ERGO    R519494  14.779  15.449   6.461  0.0240 -0.0170  0.2044
 1341ERGO    C119495  14.891  15.534   6.816  0.0339 -0.1626  0.2362
 1341ERGO    C219496  14.889  15.641   7.112  0.4174 -0.0148 -0.0836
 1342ERGO   ROH19497   1.889  15.593   9.734  0.0612  0.4011  0.0936
 1342ERGO    R119498   1.710  15.536   9.522 -0.0341  0.2611  0.2114
 1342ERGO    R219499   1.580  15.733   9.380 -0.1107  0.1649  0.1529
 1342ERGO    R319500   1.690  15.607   9.166 -0.2059  0.0419  0.1743
 1342ERGO    R419501   1.504  15.801   9.049  0.1517  0.3780  0.1332
 1342ERGO    R519502   1.510  15.587   9.009 -0.1702  0.3706  0.0816
 1342ERGO    C119503   1.564  15.722   8.656  0.2151  0.3869  0.1419
 1342ERGO    C219504   1.521  15.687   8.290 -0.1077  0.3027  0.0457
 1343ERGO   ROH19505   6.672   8.467   6.047  0.2270  0.0461  0.1432
 1343ERGO    R119506   6.474   8.547   6.233  0.0970  0.3009 -0.0977
 1343ERGO    R219507   6.421   8.405   6.465 -0.4186  0.3236 -0.1893
 1343ERGO    R319508   6.465   8.646   6.583 -0.2108  0.2372 -0.0855
 1343ERGO    R419509   6.343   8.481   6.793 -0.2507  0.2255 -0.1251
 1343ERGO    R519510   6.275   8.677   6.726 -0.1375  0.3035 -0.0051
 1343ERGO    C119511   6.339   8.750   7.095  0.0422  0.0873  0.0097
 1343ERGO    C219512   6.375   8.678   7.380  0.3060 -0.2556  0.0611
 1344ERGO   ROH19513  17.127   6.436  10.069  0.2657 -0.1048 -0.0658
 1344ERGO    R119514  17.244   6.545   9.836  0.0560 -0.0217 -0.1320
 1344ERGO    R219515  17.295   6.393   9.610  0.0391  0.0177 -0.1476
 1344ERGO    R319516  17.149   6.587   9.487 -0.1633 -0.0895 -0.0856
 1344ERGO    R419517  17.307   6.466   9.272 -0.1960 -0.0319 -0.1698
 1344ERGO    R519518  17.296   6.677   9.322 -0.3035 -0.0187 -0.1880
 1344ERGO    C119519  17.176   6.689   8.960 -0.5225 -0.1615 -0.1245
 1344ERGO    C219520  17.208   6.715   8.569 -0.2612  0.1757 -0.2155
 1345ERGO   ROH19521   6.962  12.816   9.466 -0.1021 -0.3030  0.0929
 1345ERGO    R119522   7.052  12.900   9.211 -0.1822 -0.2069  0.0936
 1345ERGO    R219523   7.243  12.760   9.067 -0.0022  0.0013  0.1089
 1345ERGO    R319524   7.052  12.764   8.874 -0.0077 -0.2295  0.1031
 1345ERGO    R419525   7.304  12.734   8.728  0.0219  0.0810  0.1073
 1345ERGO    R519526   7.152  12.885   8.693 -0.1613 -0.1061  0.1057
 1345ERGO    C119527   7.160  12.722   8.349  0.0307 -0.0893  0.1010
 1345ERGO    C219528   7.247  12.655   8.057 -0.0260 -0.0198  0.0089
 1346ERGO   ROH19529  12.405  11.533   9.432  0.0711  0.0374 -0.1147
 1346ERGO    R119530  12.420  11.518   9.150  0.0371  0.0768 -0.1180
 1346ERGO    R219531  12.234  11.639   8.984  0.0370  0.1268 -0.0774
 1346ERGO    R319532  12.455  11.754   8.874  0.0400  0.1116 -0.0890
 1346ERGO    R419533  12.259  11.744   8.656 -0.0144  0.2260 -0.0506
 1346ERGO    R519534  12.463  11.666   8.652 -0.0310  0.1791 -0.1205
 1346ERGO    C119535  12.481  11.913   8.362 -0.0413  0.2694 -0.0457
 1346ERGO    C219536  12.740  12.050   8.041  0.1918  0.2080 -0.1193
 1347ERGO   ROH19537   7.664  11.207   9.694  0.2823  0.0577 -0.0198
 1347ERGO    R119538   7.673  11.305   9.428  0.2160  0.0285 -0.0337
 1347ERGO    R219539   7.822  11.527   9.357  0.1497  0.0594 -0.0844
 1347ERGO    R319540   7.929  11.356   9.175  0.1643  0.0628 -0.0784
 1347ERGO    R419541   7.890  11.607   9.028  0.0217  0.0124 -0.1222
 1347ERGO    R519542   7.817  11.410   8.970  0.0842 -0.0282 -0.0571
 1347ERGO    C119543   8.029  11.493   8.665 -0.0390 -0.0119 -0.1385
 1347ERGO    C219544   8.086  11.573   8.400  0.1801  0.0696  0.0669
 1348ERGO   ROH19545  11.806   9.415   6.129  0.1634 -0.1638  0.0525
 1348ERGO    R119546  11.635   9.469   6.348  0.1684  0.1628 -0.0178
 1348ERGO    R219547  11.557   9.274   6.529 -0.3941  0.2628 -0.1221
 1348ERGO    R319548  11.656   9.451   6.711 -0.0579 -0.0270 -0.0139
 1348ERGO    R419549  11.443   9.309   6.853 -0.3521  0.3217 -0.1145
 1348ERGO    R519550  11.464   9.525   6.832  0.0791  0.2937  0.0068
 1348ERGO    C119551  11.468   9.495   7.212 -0.0122  0.0840 -0.0084
 1348ERGO    C219552  11.364   9.325   7.526  0.4818  0.1470  0.2897
 1349W        W19553  11.161   6.783  14.919 -0.1549 -0.1388 -0.0647
 1350W        W19554  11.372   9.535  11.232 -0.0892 -0.0605  0.0866
 1351W        W19555   2.067  14.593   0.330 -0.0808 -0.1806  0.0014
 1352W        W19556   0.647   1.112   1.206 -0.0458  0.0458  0.1576
 1353W        W19557  16.882   6.822  14.373  0.1710 -0.0479 -0.3988
 1354W        W19558   7.851   0.542   4.493  0.1935 -0.1091  0.2345
 1355W        W19559  16.477  10.303   2.925 -0.2702  0.0940 -0.0324
 1356W        W19560  17.200  13.715  14.224 -0.0050 -0.2152  0.2891
 1357W        W19561   3.151   4.196  14.041  0.2060 -0.2684  0.0378
 1358W        W19562  13.479  17.111  11.166 -0.1378  0.1182 -0.0741
 1359W        W19563   0.938  15.126   3.389  0.1511  0.0058 -0.1937
 1360W        W19564   2.386  15.585   3.710 -0.0809  0.0640 -0.2925
 1361W        W19565  15.825   2.450  15.054  0.1402  0.2042  0.1159
 1362W        W19566  13.410   0.752  11.770  0.0596 -0.0282  0.1151
 1363W        W19567   9.001   5.551  11.204 -0.0900  0.0597  0.5104
 1364W        W19568  11.111   7.296  15.151  0.3784 -0.4864  0.1182
 1365W        W19569   7.826  16.935  13.144 -0.1375 -0.0864 -0.0235
 1366W        W19570   1.600   5.399   1.897  0.0143 -0.0753 -0.0847
 1367W        W19571  10.008   3.976  11.711  0.1310  0.2086  0.2773
 1368W        W19572  12.757   4.385   3.804 -0.0931  0.2107  0.0002
 1369W        W19573   9.939  13.813  13.630 -0.1171  0.0262 -0.3053
 1370W        W19574  12.910  11.578   3.829 -0.0518 -0.0604  0.3923
 1371W        W19575  18.139  15.386  12.160 -0.5162 -0.2173 -0.0733
 1372W        W19576   0.454  14.842  12.954  0.2989 -0.1503 -0.2212
 1373W        W19577  14.710   6.844  12.982  0.4821 -0.1184  0.2384
 1374W        W19578  13.711   6.104  14.846  0.2269 -0.0720  0.1021
 1375W        W19579  16.956   5.258  11.434  0.0484 -0.1012  0.0291
 1376W        W19580   3.504  14.875  11.745  0.2621  0.1013  0.0154
 1377W        W19581   6.530  18.098   2.874 -0.1737 -0.0717 -0.1206
 1378W        W19582   6.915   8.003  13.268 -0.2550  0.0359 -0.2143
 1379W        W19583   6.765  18.023  13.233 -0.0319 -0.4693  0.0062
 1380W        W19584   6.389   6.312  14.256  0.2794 -0.2614 -0.2299
 1381W        W19585   1.321   2.596  12.208 -0.3566  0.3249  0.0046
 1382W        W19586   5.596  15.161  11.366 -0.1711  0.0160 -0.2166
 1383W        W19587  10.463  17.957   0.168 -0.1923  0.0315 -0.1475
 1384W        W19588  12.852  12.761   1.178  0.3247 -0.2497 -0.0905
 1385W        W19589   9.877  17.150  13.525  0.2364 -0.0321  0.2148
 1386W        W19590  13.734  14.606   2.187 -0.2485  0.1409  0.1332
 1387W        W19591   9.627   1.821   0.059  0.1798 -0.0945  0.3773
 1388W        W19592   0.107   9.371   0.133  0.0434  0.0312  0.2250
 1389W        W19593   7.864  13.415   4.266 -0.1464 -0.0191  0.2828
 1390W        W19594   7.046   4.315   4.805 -0.2083 -0.0649 -0.2672
 1391W        W19595  11.744   1.757  13.519  0.1068  0.0131 -0.0761
 1392W        W19596  11.042   2.897  11.812 -0.0583 -0.2995  0.2900
 1393W        W19597  15.325   8.890   1.351 -0.0054  0.1988  0.0800
 1394W        W19598   3.215   7.395   0.832  0.0456  0.1378  0.1175
 1395W        W19599   9.256   9.827   4.669  0.0065  0.0014  0.0296
 1396W        W19600   8.313  16.485   0.250  0.0430 -0.0082  0.0148
 1397W        W19601  15.199  13.027   1.899 -0.2797  0.1052 -0.1098
 1398W        W19602   6.635   1.692  12.743 -0.1668  0.3380  0.2102
 1399W        W19603   6.303  14.813   2.489  0.1921 -0.1665  0.0890
 1400W        W19604   4.261   9.060  13.219  0.1003  0.1343  0.1811
 1401W        W19605  17.836  11.673  14.421  0.0728 -0.1331  0.1862
 1402W        W19606   6.984   5.464  10.961  0.4717 -0.2261  0.0124
 1403W        W19607  11.851   3.769  15.206 -0.0167  0.1490  0.0282
 1404W        W19608   8.635   4.534   2.205  0.1166 -0.4591  0.0453
 1405W        W19609   1.407   8.220  13.201 -0.2886  0.1715 -0.1834
 1406W        W19610   3.291   5.203   1.262  0.0232  0.2453  0.0874
 1407W        W19611   1.583  10.660  13.359 -0.0456 -0.2133 -0.0996
 1408W        W19612   8.440  15.343   2.894 -0.3728  0.1108 -0.1386
 1409W        W19613  12.230   7.707  12.162 -0.0334  0.1532  0.2234
 1410W        W19614  12.668  11.505  12.673  0.4192  0.2401  0.4618
 1411W        W19615  13.416   5.778   2.182 -0.2162  0.1158  0.1287
 1412W        W19616  13.552   5.862   1.275  0.1855 -0.2107  0.1234
 1413W        W19617   5.736  16.040   2.674 -0.4506  0.1824  0.0260
 1414W        W19618   9.266   9.265   0.387 -0.2074 -0.0545  0.4936
 1415W        W19619   0.010  18.677   1.722  0.2595  0.2319  0.2548
 1416W        W19620   0.060  15.782   2.199 -0.1514  0.0704 -0.2135
 1417W        W19621   8.727  16.595  14.851  0.1365 -0.2138 -0.0131
 1418W        W19622   8.678   7.149  12.718 -0.1800  0.2152  0.2628
 1419W        W19623  11.637   1.520  13.116  0.1151  0.0198  0.0389
 1420W        W19624  15.974   6.420   1.524 -0.3325  0.2917 -0.1346
 1421W        W19625   8.839   8.957   0.492  0.1135 -0.0222  0.0278
 1422W        W19626   0.989  12.819   4.098 -0.0326 -0.0289  0.3897
 1423W        W19627   2.625  16.810  13.765  0.2374  0.3764  0.0339
 1424W        W19628  15.792  14.364  13.879 -0.0388  0.0570  0.0250
 1425W        W19629   1.648  15.532  11.046  0.0334  0.0485 -0.3150
 1426W        W19630  13.858  11.995   0.093 -0.2155  0.0014 -0.3464
 1427W        W19631  14.077  13.175   3.809  0.3711 -0.1083  0.1510
 1428W        W19632   9.355  12.180   3.778  0.2566  0.1736  0.0462
 1429W        W19633  13.043  13.717  11.031 -0.0549 -0.1604 -0.3574
 1430W        W19634   4.848   5.045  11.465  0.0220  0.2042  0.2299
 1431W        W19635  13.453   9.621   3.482 -0.0476  0.0250  0.0170
 1432W        W19636   0.868   4.446   3.887 -0.1137  0.1164 -0.1166
 1433W        W19637   0.710   3.892  11.857 -0.0829 -0.0692 -0.1501
 1434W        W19638  17.086  16.820  11.711 -0.0842  0.1930 -0.0421
 1435W        W19639   2.558   0.666  10.850 -0.4048 -0.0053  0.2082
 1436W        W19640   2.773   5.288   3.476 -0.4136 -0.1684 -0.0320
 1437W        W19641  15.500  11.642  14.520  0.0043 -0.0276 -0.1129
 1438W        W19642  12.268  14.620  14.727 -0.0402  0.0664 -0.0206
 1439W        W19643  10.186  12.813   4.376  0.2426 -0.4260  0.3976
 1440W        W19644   6.551  14.980   1.551 -0.1609  0.2366 -0.0539
 1441W        W19645  10.712   9.500  10.891  0.0352  0.2410  0.0999
 1442W        W19646  11.319  16.065   4.144 -0.0575 -0.0521  0.0613
 1443W        W19647   0.318  14.221  11.758 -0.1078  0.0060  0.1194
 1444W        W19648  15.130  16.994   0.539 -0.3615  0.0434 -0.0126
 1445W        W19649   3.987  14.191   3.926  0.2414 -0.3845 -0.2158
 1446W        W19650   7.072  13.477  11.751  0.0007 -0.3741  0.2728
 1447W        W19651   4.180  11.614   9.803 -0.2914 -0.1847 -0.3000
 1448W        W19652   2.097   2.127   2.796 -0.1554 -0.0041  0.2055
 1449W        W19653   9.683   5.695   2.404  0.0060 -0.2776 -0.0483
 1450W        W19654  16.889   3.059  14.427 -0.2708  0.2293 -0.0501
 1451W        W19655  17.718  12.238   2.255 -0.2477  0.1291 -0.2114
 1452W        W19656  12.134  17.333  14.491  0.1821  0.2000  0.1371
 1453W        W19657  16.614   6.513  12.154 -0.2077  0.1290 -0.0263
 1454W        W19658   8.053   9.503  10.327 -0.0755 -0.0533  0.2194
 1455W        W19659   3.916  14.497  10.051 -0.3148 -0.0787 -0.1312
 1456W        W19660  10.535   5.165   6.061  0.0400 -0.2842  0.1275
 1457W        W19661  14.685   4.901   2.648 -0.2331 -0.0807  0.2862
 1458W        W19662   4.804   1.275  14.482 -0.1888 -0.0504  0.1590
 1459W        W19663   5.092  14.705  10.689 -0.0785  0.2079  0.0444
 1460W        W19664   6.673   7.089   0.868  0.1646  0.1320 -0.2049
 1461W        W19665   0.472   8.928   1.933 -0.0114  0.1710  0.3216
 1462W        W19666  10.561  12.293  14.603  0.2267  0.2869 -0.0347
 1463W        W19667   2.226   9.344   1.778  0.2031  0.2924  0.1225
 1464W        W19668  17.445   7.029   3.770  0.2702 -0.0008 -0.0645
 1465W        W19669  13.129   4.041   4.023  0.1564  0.0966 -0.1308
 1466W        W19670   9.892   6.383   2.875  0.0315 -0.0361  0.1722
 1467W        W19671   9.375   9.206  15.066  0.0696 -0.0454 -0.0254
 1468W        W19672  17.410   4.877   3.527 -0.1939  0.3712 -0.2970
 1469W        W19673  13.696   3.947  12.009  0.3321  0.1044  0.1009
 1470W        W19674   7.153  17.637   3.741 -0.0695 -0.1484  0.2591
 1471W        W19675  16.347   6.462  14.938 -0.1490 -0.0792 -0.0674
 1472W        W19676   7.208   2.614  14.737  0.0078 -0.3121 -0.1789
 1473W        W19677  16.918   8.358  11.998  0.0356  0.1029 -0.0370
 1474W        W19678   6.927   7.230   2.851  0.2157  0.0917  0.2040
 1475W        W19679  18.155   0.120  11.260  0.2161  0.1513  0.1034
 1476W        W19680   1.296   3.701  11.291 -0.0135  0.0290  0.1964
 1477W        W19681  13.393   3.047   1.024 -0.0366  0.0704  0.1826
 1478W        W19682  12.788   7.899   0.069 -0.1571 -0.3354 -0.0787
 1479W        W19683   9.417   4.554   1.539  0.2910 -0.0956  0.0758
 1480W        W19684  15.475  17.710  13.076 -0.1592  0.1637  0.1320
 1481W        W19685   3.277   6.725  12.107  0.0412  0.2712  0.0065
 1482W        W19686  16.728   8.727   4.046  0.0397 -0.3448 -0.0096
 1483W        W19687  18.167  14.272   3.804  0.0640  0.4082  0.1597
 1484W        W19688   2.984  16.831   3.826 -0.1146  0.2202  0.0400
 1485W        W19689   2.654   4.572  13.366  0.1642  0.3258  0.1753
 1486W        W19690   3.291   2.377  13.036 -0.0793  0.0428  0.0394
 1487W        W19691   2.532  15.723  14.572 -0.5788  0.0734  0.0795
 1488W        W19692  12.138  14.642   1.902 -0.3307 -0.0399  0.3503
 1489W        W19693   3.829  10.196  14.290 -0.2234 -0.3126 -0.2360
 1490W        W19694  10.457   1.750  14.064  0.0774 -0.1084  0.2383
 1491W        W19695   7.074   4.175  12.999 -0.0892 -0.0193  0.0468
 1492W        W19696  16.977  10.771  13.333  0.1106  0.1836 -0.0599
 1493W        W19697   0.642   3.858   3.907 -0.3493 -0.4163 -0.0349
 1494W        W19698  13.400  14.076   2.029 -0.1505 -0.1945  0.0956
 1495W        W19699  18.521   7.710  11.368 -0.2277 -0.1627 -0.3247
 1496W        W19700  10.169   9.386   1.692  0.1241  0.2445  0.1673
 1497W        W19701   5.481   8.928  14.822 -0.1511  0.3126 -0.1342
 1498W        W19702   7.614   2.881  11.421  0.2194  0.2285  0.3138
 1499W        W19703   9.279   7.967   4.402  0.1789  0.1867  0.2216
 1500W        W19704   0.672   5.254   0.167 -0.1763  0.1706 -0.1667
 1501W        W19705  10.084  17.584  12.926  0.0544 -0.0213  0.1214
 1502W        W19706   1.411  13.838   3.447  0.2698  0.2053 -0.1040
 1503W        W19707   3.361  11.210   4.560  0.1206 -0.1401  0.0418
 1504W        W19708  14.960   6.161   4.393  0.2581  0.0121  0.3510
 1505W        W19709   9.404  11.192  13.350 -0.0110 -0.0942 -0.0643
 1506W        W19710   0.024   5.015  12.673  0.2022  0.2331 -0.1161
 1507W        W19711  10.290  15.560  14.747 -0.1184  0.1450 -0.3658
 1508W        W19712  13.759   5.459  11.398  0.0966 -0.1822 -0.2183
 1509W        W19713   1.250  17.795   1.526  0.4339 -0.3653  0.1106
 1510W        W19714   1.369  14.870   3.605 -0.0993  0.2841 -0.1410
 1511W        W19715   0.976  10.233  14.368 -0.4077  0.1416  0.0588
 1512W        W19716  16.479   8.266  13.129  0.2578  0.1432 -0.0866
 1513W        W19717  12.536   0.254   0.786  0.1116  0.0087 -0.1036
 1514W        W19718  15.808  10.146  15.072  0.3255  0.0542 -0.0051
 1515W        W19719  13.293  15.626  11.414  0.3918  0.0022  0.2771
 1516W        W19720   8.161  17.729  14.284  0.1380  0.3115 -0.1838
 1517W        W19721  13.208  12.529   3.487  0.5125 -0.1150 -0.0731
 1518W        W19722  18.429   6.248   4.211 -0.1952  0.1649 -0.0263
 1519W        W19723   5.444   4.064   4.785  0.2198 -0.0549 -0.0172
 1520W        W19724   7.109  10.489   0.684 -0.2075 -0.1768  0.1164
 1521W        W19725  16.847   3.812   3.740  0.3027 -0.1010 -0.5317
 1522W        W19726  14.322  11.056  14.947  0.2375  0.1147  0.0053
 1523W        W19727  12.171  18.466   0.745 -0.1045  0.3844 -0.3486
 1524W        W19728   9.016  18.307  11.918 -0.3066  0.0298  0.0699
 1525W        W19729  10.298  13.113   0.883 -0.2681  0.1329 -0.0905
 1526W        W19730  15.942   4.580   2.065 -0.1847  0.0436 -0.0227
 1527W        W19731   2.009   3.587   0.854  0.0656 -0.0461 -0.0214
 1528W        W19732   2.763   9.529  11.701  0.1601  0.0238 -0.1519
 1529W        W19733   9.080   8.153   3.931 -0.0623 -0.0897  0.1054
 1530W        W19734  15.237   7.629  12.254 -0.1528  0.3681  0.0551
 1531W        W19735  13.418  13.709  13.623 -0.2170  0.0382 -0.2195
 1532W        W19736  15.050  17.955   1.487 -0.2284 -0.0082  0.0947
 1533W        W19737   4.632  10.382   2.891  0.0260 -0.2545  0.2288
 1534W        W19738   4.783   4.128   4.855 -0.1347  0.2134  0.0247
 1535W        W19739  14.616   0.667  12.133 -0.1082 -0.2132  0.1576
 1536W        W19740  15.744  14.624   2.768  0.0109  0.0629 -0.0107
 1537W        W19741   5.444  14.515  13.601 -0.0039  0.1218 -0.2590
 1538W        W19742   8.220  12.975  12.964  0.0994  0.3072 -0.0440
 1539W        W19743   8.601   5.272   3.594  0.2148 -0.1602  0.0210
 1540W        W19744   3.560   6.948  13.323 -0.7205 -0.0404  0.1589
 1541W        W19745  11.527  12.987  11.827 -0.0636  0.2546 -0.0496
 1542W        W19746   2.576  16.269  11.622 -0.1735  0.0580 -0.2084
 1543W        W19747   2.348  14.277  14.879 -0.1786 -0.0670 -0.4066
 1544W        W19748   9.431   6.553  11.116 -0.1869 -0.0924 -0.3153
 1545W        W19749   5.345  17.936  13.731 -0.0031 -0.1000  0.1300
 1546W        W19750   9.156   1.468  11.805 -0.0336  0.0124  0.2516
 1547W        W19751   6.782   9.246   2.258 -0.7790  0.0758 -0.2108
 1548W        W19752  14.690   7.190  14.603 -0.0212 -0.1593 -0.0736
 1549W        W19753   4.327   8.756  11.640 -0.0143 -0.1834 -0.1731
 1550W        W19754  14.041  17.739  12.514  0.0497 -0.0182  0.0580
 1551W        W19755   0.466   2.012   2.468  0.3077 -0.1546  0.1731
 1552W        W19756  15.721   5.955   4.911  0.2424 -0.0800 -0.0309
 1553W        W19757   1.786   5.695   3.847 -0.2880  0.3106 -0.0592
 1554W        W19758  13.296   7.132  12.296 -0.0168  0.2511 -0.4519
 1555W        W19759   2.937  13.310  11.080 -0.2157  0.0878  0.0147
 1556W        W19760  15.223  17.358  13.328 -0.0835 -0.0134 -0.1019
 1557W        W19761  15.606  17.229  12.950 -0.2337 -0.0549 -0.3300
 1558W        W19762  17.567  15.552   9.989  0.1151  0.2659  0.0570
 1559W        W19763  14.406   8.637   1.730  0.1060  0.0389 -0.0249
 1560W        W19764  18.271  15.297   2.962 -0.3915  0.3013  0.0686
 1561W        W19765   8.237  16.643   0.751 -0.1956 -0.0230 -0.1271
 1562W        W19766   8.524  12.418  11.987  0.0865 -0.0572  0.3381
 1563W        W19767  17.568  12.474   3.667  0.0335  0.1611  0.0725
 1564W        W19768  18.024   9.111  13.668 -0.0033 -0.1727  0.1842
 1565W        W19769   9.872   1.860   0.962 -0.0111 -0.1996 -0.2672
 1566W        W19770   3.259  12.627  10.946  0.1401  0.2613  0.1271
 1567W        W19771   7.720  12.906   4.334  0.0065 -0.0805 -0.1442
 1568W        W19772  11.554   1.614  15.411 -0.0866 -0.2308  0.1323
 1569W        W19773   8.496  13.933   3.900 -0.0621 -0.1523 -0.1005
 1570W        W19774   7.601   1.447  10.878 -0.0970 -0.0728  0.0780
 1571W        W19775   4.742  16.420   1.277  0.0264  0.0462 -0.1639
 1572W        W19776   5.712  10.306  13.516  0.0454  0.1193  0.3362
 1573W        W19777  14.202  14.539   1.457  0.0074  0.3202 -0.1542
 1574W        W19778  11.201   5.892  13.448  0.0300 -0.1347 -0.0012
 1575W        W19779  17.970   5.060   3.763 -0.0992  0.1326 -0.0797
 1576W        W19780  10.123  10.759   5.954  0.0498  0.0556 -0.5301
 1577W        W19781   3.607   5.899  13.334 -0.3083  0.3866 -0.3007
 1578W        W19782  13.206   3.524   3.840  0.4112 -0.3542 -0.2120
 1579W        W19783  16.030  14.367   2.059 -0.2385  0.0012  0.2222
 1580W        W19784  14.983  12.931  12.130  0.2072  0.1116 -0.0221
 1581W        W19785   2.262  10.656   9.594 -0.1895 -0.1217  0.0343
 1582W        W19786   3.040   4.132   4.237 -0.0369  0.2992 -0.1140
 1583W        W19787  15.481   0.864  12.631  0.0834 -0.2510  0.1443
 1584W        W19788  12.221   4.397  11.624  0.1881 -0.3768 -0.1809
 1585W        W19789   6.299  18.008  12.306 -0.0027 -0.0289  0.0275
 1586W        W19790   5.469   7.307  14.344 -0.1232  0.0273  0.0087
 1587W        W19791   0.855  14.250   2.338 -0.2362 -0.0358  0.2156
 1588W        W19792   1.290  18.405   4.663  0.3384  0.1321 -0.1403
 1589W        W19793   7.349  15.104  14.001  0.0254  0.0161 -0.3925
 1590W        W19794  16.775   7.512  10.836  0.0447 -0.0100  0.0472
 1591W        W19795  10.654  10.619   3.907 -0.2911  0.1657  0.1728
 1592W        W19796  12.881  10.454   1.983  0.0095  0.0355 -0.0607
 1593W        W19797  14.065  10.721  13.111 -0.3379  0.0520 -0.1627
 1594W        W19798   8.893  13.356  12.178  0.3569  0.2698  0.0416
 1595W        W19799   3.893   7.263  10.923  0.1206  0.1426 -0.1379
 1596W        W19800   1.007   6.543  11.321  0.0932 -0.2581 -0.2969
 1597W        W19801   9.628  12.786   2.034 -0.1922 -0.0362  0.2547
 1598W        W19802   5.498  11.128   0.293 -0.0651  0.0522 -0.1503
 1599W        W19803  12.024   0.249   0.952  0.2736  0.1358  0.1357
 1600W        W19804  18.227   6.603   2.416 -0.0700  0.0523  0.0163
 1601W        W19805  13.175  10.165   2.381 -0.3263 -0.1252 -0.2244
 1602W        W19806   4.391   4.491   2.882  0.1261  0.3015 -0.2907
 1603W        W19807   8.935   0.058   3.627  0.3836  0.0073 -0.0276
 1604W        W19808  14.570   4.262   0.316  0.1970 -0.1021  0.2344
 1605W        W19809   1.513  10.121  13.377  0.0277 -0.2318 -0.2009
 1606W        W19810  18.182  17.616  14.474 -0.1822  0.2574 -0.2639
 1607W        W19811   7.180   7.177   1.195  0.2216  0.0855  0.0059
 1608W        W19812   1.335   0.218   4.309 -0.1489  0.2326  0.0512
 1609W        W19813   1.480  10.951  14.242  0.0419  0.2943  0.1023
 1610W        W19814   3.193  17.811  12.496 -0.1339 -0.1634  0.0956
 1611W        W19815  14.517   5.982   2.778  0.2341 -0.1059  0.2608
 1612W        W19816   8.460   6.938   0.800  0.1932  0.0939  0.0778
 1613W        W19817   3.471   3.757  10.272  0.1170  0.1147  0.2333
 1614W        W19818  10.234   8.348  14.931 -0.0092 -0.1664 -0.1918
 1615W        W19819   4.933   2.524  11.461 -0.1567  0.1356 -0.0960
 1616W        W19820  16.244  12.258   0.453 -0.0171 -0.1970 -0.0584
 1617W        W19821   7.300   5.501  12.594  0.0010  0.3775 -0.3596
 1618W        W19822   9.280   4.057  15.091  0.1612  0.1721  0.0017
 1619W        W19823  16.513   1.878  12.154 -0.0745  0.0622 -0.1446
 1620W        W19824   3.799  13.272  12.105 -0.1908  0.0123  0.1075
 1621W        W19825   0.442  13.345   3.919  0.1160 -0.0304 -0.0573
 1622W        W19826  15.744  16.266  12.774 -0.2260  0.0317 -0.1984
 1623W        W19827   2.836  11.173   2.871  0.1302  0.1481 -0.1630
 1624W        W19828   5.565  14.225   1.380  0.1055  0.0874 -0.1884
 1625W        W19829   2.170   5.568  12.845  0.1285 -0.2416  0.2606
 1626W        W19830  10.416  16.195  15.435  0.0459  0.5027  0.0759
 1627W        W19831   8.863   9.977   1.296  0.3510  0.0710  0.1845
 1628W        W19832   8.446   4.190   5.322  0.0751  0.2262  0.2804
 1629W        W19833  18.073   1.371  12.028  0.0692  0.2633  0.0780
 1630W        W19834   8.022  14.284   1.968 -0.2236 -0.2159  0.0980
 1631W        W19835  17.517   1.547   4.133 -0.0976  0.2133 -0.0831
 1632W        W19836  13.986  13.762  10.852 -0.0910 -0.1509  0.2870
 1633W        W19837  14.733   0.897   4.701 -0.1388 -0.0266  0.3684
 1634W        W19838   2.672   7.891   1.218 -0.2423  0.0590 -0.2272
 1635W        W19839  16.451  18.687   2.983 -0.0131 -0.4070 -0.0662
 1636W        W19840   5.293   9.609   1.379  0.3314 -0.0296  0.0131
 1637W        W19841   1.043  14.814  10.789 -0.3792 -0.0185 -0.0523
 1638W        W19842  12.110   9.483  12.448  0.1677  0.1915  0.0999
 1639W        W19843   1.610   1.609   2.240 -0.1323 -0.0487  0.1668
 1640W        W19844   2.822  18.229  13.361  0.3398  0.2378 -0.0618
 1641W        W19845  14.665   4.080   2.353  0.2735 -0.1128  0.1006
 1642W        W19846   2.790  16.398   1.381 -0.1323 -0.2404 -0.2367
 1643W        W19847   5.303   9.612  11.891 -0.3768  0.0786 -0.3547
 1644W        W19848   9.491   0.129   3.465 -0.1096 -0.1568  0.1846
 1645W        W19849   9.987   3.590  13.164 -0.2786 -0.0529 -0.2558
 1646W        W19850   3.561   3.674  10.717  0.0941  0.2414 -0.2641
 1647W        W19851  15.428   0.700  11.472 -0.2008  0.0884  0.0331
 1648W        W19852   7.568  16.476  12.367  0.2275  0.3600 -0.2732
 1649W        W19853  11.975  13.663  12.025  0.1682 -0.1016  0.2584
 1650W        W19854   5.235   6.253  11.186  0.0020 -0.0638  0.0436
 1651W        W19855  18.489   8.105  11.037 -0.3015 -0.2825  0.1819
 1652W        W19856   5.385  14.578  13.056  0.1464 -0.2358 -0.0561
 1653W        W19857   2.225  11.946   2.341  0.0615  0.0455 -0.1627
 1654W        W19858  17.570   2.809   2.161  0.1807 -0.4004 -0.3257
 1655W        W19859  14.286   2.008  11.684  0.2824 -0.1894  0.1679
 1656W        W19860   2.804   4.434  11.689  0.2093 -0.2640  0.1614
 1657W        W19861   5.672  14.003  12.826 -0.1767 -0.1164 -0.4012
 1658W        W19862  11.900   3.787   0.572  0.2406  0.1427  0.1675
 1659W        W19863  17.829   5.629  13.702  0.1371  0.2194 -0.0383
 1660W        W19864   7.071  11.434   0.921 -0.0167  0.2419 -0.1213
 1661W        W19865  10.829   3.568  13.682 -0.1164 -0.1287  0.0370
 1662W        W19866   9.413  12.039  12.991 -0.0394  0.1283  0.0783
 1663W        W19867  13.998  16.336   0.817  0.1111 -0.4281  0.2766
 1664W        W19868   7.950   8.397   0.688  0.1261  0.0694  0.1479
 1665W        W19869   7.844   6.732  13.587  0.1642  0.0498  0.2768
 1666W        W19870   1.702   1.761   3.135  0.0826  0.1171 -0.2084
 1667W        W19871   7.062  13.476   4.814  0.1554 -0.1185 -0.2529
 1668W        W19872  17.570   1.404  11.204 -0.0664  0.0813 -0.3129
 1669W        W19873   6.741  18.218   2.428  0.1073 -0.1923 -0.2177
 1670W        W19874   5.083  13.075   1.051 -0.0572  0.2161  0.0800
 1671W        W19875   4.356   8.014  11.474  0.0055 -0.1048 -0.4505
 1672W        W19876  16.743  10.412   5.899 -0.1220  0.1173  0.0956
 1673W        W19877   2.983   6.262  12.131  0.4257 -0.4209  0.0707
 1674W        W19878   2.351   4.007   0.771  0.0387  0.3706  0.0137
 1675W        W19879   6.399   4.969  13.982 -0.0075  0.0335 -0.0272
 1676W        W19880  11.613  18.316  11.183  0.0831 -0.0318 -0.3598
 1677W        W19881  10.349   6.601   2.843  0.1557  0.0101 -0.4645
 1678W        W19882   3.725  10.062   3.651  0.2799  0.2845  0.0653
 1679W        W19883   4.925   1.765  15.196 -0.1904  0.0284 -0.0977
 1680W        W19884  12.959  12.925  10.120 -0.1645 -0.1322  0.0019
 1681W        W19885   2.676   1.928   0.523 -0.1516  0.0802 -0.0586
 1682W        W19886   1.074  10.946   1.993 -0.2118  0.0657  0.2002
 1683W        W19887  17.007   6.922  12.847 -0.0565 -0.1216 -0.2217
 1684W        W19888   8.940   0.164   1.708  0.0991  0.1905  0.1210
 1685W        W19889   8.759   5.211  12.741 -0.1564  0.0035  0.2077
 1686W        W19890   8.521  14.213   0.829  0.0520 -0.1112 -0.0826
 1687W        W19891  15.483  17.171  14.778  0.1608  0.1969 -0.1750
 1688W        W19892   5.125  11.687   0.464 -0.3086  0.0083  0.2207
 1689W        W19893  10.354   8.141   0.991 -0.0976  0.1064 -0.0335
 1690W        W19894   2.775  14.070  15.101 -0.0766  0.0854 -0.1844
 1691W        W19895  15.830  10.482   2.222 -0.1471  0.2802 -0.1733
 1692W        W19896  10.371   9.030   0.648 -0.3518  0.3532  0.1374
 1693W        W19897   3.170  10.225   4.132 -0.0695  0.1159  0.2216
 1694W        W19898   2.899  12.675   5.913 -0.1975 -0.2480 -0.0393
 1695W        W19899  10.727   5.353  11.902  0.2659  0.0123 -0.2668
 1696W        W19900   9.067   1.079  14.916  0.0016 -0.0176 -0.1244
 1697W        W19901  15.749   0.395  13.135  0.1012  0.0079 -0.2174
 1698W        W19902  12.430  17.287   3.355 -0.1034  0.0499  0.2100
 1699W        W19903  11.912   0.091  11.427  0.0705 -0.3242  0.0276
 1700W        W19904  16.011   4.575  13.252  0.3022  0.1582 -0.0595
 1701W        W19905   9.952  12.046   1.475 -0.1929 -0.1204 -0.2251
 1702W        W19906   9.345   8.155  11.986 -0.1638 -0.1955 -0.1439
 1703W        W19907   8.625   8.044  12.783  0.0903  0.2490 -0.2432
 1704W        W19908  11.141  17.849   2.488  0.2458 -0.1299 -0.0771
 1705W        W19909  11.516   0.327   1.571 -0.1444  0.0415  0.0644
 1706W        W19910   3.651  10.128   2.700  0.1189  0.0598  0.1784
 1707W        W19911   6.688   4.883   0.327  0.0587  0.0364 -0.0611
 1708W        W19912   4.855  15.167  11.369 -0.2217  0.2690 -0.3307
 1709W        W19913  14.924  15.377  14.990 -0.2698 -0.0337  0.0663
 1710W        W19914   9.649  17.475   2.162  0.1559 -0.1791  0.0975
 1711W        W19915  16.936  10.334   1.844  0.0984  0.0589  0.0003
 1712W        W19916  15.788   2.650  10.077  0.4678 -0.3689 -0.1804
 1713W        W19917   2.483  10.786   2.642  0.1888 -0.1527  0.2138
 1714W        W19918  12.699  12.483  12.359 -0.1355  0.1250  0.0649
 1715W        W19919  16.968   2.203  12.206  0.0501 -0.3679 -0.0691
 1716W        W19920   7.300   6.263   3.923  0.2201  0.0092 -0.1609
 1717W        W19921   3.960  12.733  12.210  0.3826 -0.1852  0.0495
 1718W        W19922   2.759   9.484   0.902  0.0641  0.3087  0.1055
 1719W        W19923  15.978   5.963  10.859 -0.1606 -0.6342 -0.2002
 1720W        W19924   7.348  17.734  14.736  0.0677 -0.1455 -0.3575
 1721W        W19925   0.165   4.470  14.759 -0.1347 -0.0182 -0.1372
 1722W        W19926   4.067  14.350  14.269 -0.0611 -0.1654 -0.1745
 1723W        W19927   3.176  17.903  13.212 -0.3717 -0.3939  0.1088
 1724W        W19928   5.734   6.321   3.037  0.0005  0.1675  0.2067
 1725W        W19929  12.194  12.803  11.479 -0.2495  0.0616  0.1591
 1726W        W19930   3.010   3.531   1.396  0.0391  0.0041  0.2316
 1727W        W19931  16.191  17.405   0.168  0.2095  0.2006 -0.1267
 1728W        W19932  16.048  15.846  13.035  0.1371  0.1588  0.2475
 1729W        W19933  17.462  11.186   0.937 -0.3985 -0.1261 -0.1600
 1730W        W19934   3.085  10.587   3.706  0.2090 -0.0194 -0.1067
 1731W        W19935   1.732   4.216   3.596 -0.0198 -0.1322 -0.1749
 1732W        W19936   0.104   5.802   0.755  0.0596 -0.2053  0.1923
 1733W        W19937   3.299   0.275   0.244 -0.0372  0.0644  0.1603
 1734W        W19938   9.214  15.622   2.077  0.2335  0.1894  0.0926
 1735W        W19939  15.776  15.191   3.044  0.0574  0.0410 -0.2445
 1736W        W19940  14.775  14.384  14.603 -0.0649 -0.4140 -0.1496
 1737W        W19941  16.689  16.381  11.046  0.1962 -0.0858  0.0325
 1738W        W19942  18.494   9.346  11.836 -0.3280 -0.1361 -0.2108
 1739W        W19943   5.759   0.990   3.446 -0.1185 -0.0101  0.3968
 1740W        W19944  11.872   5.884  14.546  0.0741 -0.0389  0.1120
 1741W        W19945   3.204   7.550  14.477 -0.0303  0.1222  0.0895
 1742W        W19946   4.498   5.924   1.028  0.0382 -0.1316  0.2072
 1743W        W19947  16.975  10.273  12.467  0.1830 -0.2630  0.0129
 1744W        W19948   7.141   0.970  12.183  0.3200  0.1742 -0.0086
 1745W        W19949   6.606   3.927   0.059  0.1824  0.0948  0.0022
 1746W        W19950  16.274  14.777  14.617  0.1215  0.4311  0.0153
 1747W        W19951   4.880   6.108   4.452  0.1137 -0.1942 -0.1273
 1748W        W19952   6.581  17.261   3.207  0.2133 -0.0628  0.1428
 1749W        W19953  16.243   7.769   0.831  0.0839 -0.0278  0.2970
 1750W        W19954  14.766  16.597  14.023 -0.1686  0.0160 -0.1707
 1751W        W19955  14.746  12.027   4.148 -0.0746  0.2958  0.0537
 1752W        W19956   3.344  14.468  12.335  0.3588 -0.1355 -0.2219
 1753W        W19957   6.734   9.353   4.588  0.1414 -0.1179  0.1192
 1754W        W19958   7.758  13.040   2.335 -0.0311 -0.0690 -0.2014
 1755W        W19959  13.032   2.682   2.530 -0.0999  0.0972 -0.5197
 1756W        W19960  12.849  12.529   3.834  0.1836 -0.0385  0.0856
 1757W        W19961   4.702  18.114   3.762  0.2793  0.2495  0.1770
 1758W        W19962  11.984  12.458   3.415 -0.0346  0.0119  0.2681
 1759W        W19963   5.714  12.741   9.822 -0.1624  0.1450  0.3006
 1760W        W19964   0.047  15.189   2.834  0.0361  0.0765  0.1489
 1761W        W19965   3.426  17.936   1.944  0.0056 -0.2795  0.1026
 1762W        W19966   6.547  10.840   9.987 -0.0899  0.1534 -0.2553
 1763W        W19967  10.574   6.478  12.717  0.2571 -0.0051  0.0335
 1764W        W19968  10.560   4.055  13.703 -0.2454  0.0475 -0.3493
 1765W        W19969  10.352  15.742   0.458 -0.0511  0.2904 -0.0039
 1766W        W19970  14.147   8.661  12.525 -0.0193 -0.0841  0.2252
 1767W        W19971   3.866  10.314   0.563  0.0482  0.4504 -0.0419
 1768W        W19972   0.273  12.954   3.501 -0.0155 -0.1096 -0.0140
 1769W        W19973  10.775  18.675   2.726  0.0335  0.0341  0.2197
 1770W        W19974  10.293  18.389   4.239 -0.1934  0.1462  0.1079
 1771W        W19975  18.130  14.018  11.195  0.0173 -0.0986 -0.0784
 1772W        W19976   7.061  16.638   3.734  0.3135 -0.0695 -0.1732
 1773W        W19977   0.891  14.698   3.723  0.1829 -0.1716  0.1196
 1774W        W19978   8.725  13.176   4.521  0.1553 -0.0573 -0.0103
 1775W        W19979   5.322   2.073   1.504 -0.0042  0.1724 -0.1420
 1776W        W19980   7.183  14.036  15.416 -0.1771 -0.2184  0.1577
 1777W        W19981  10.358   3.121   0.033 -0.1201 -0.3559  0.3527
 1778W        W19982  16.798  15.612   0.588 -0.2084 -0.4784  0.2376
 1779W        W19983   2.124   5.521  12.308  0.0399 -0.1456  0.0484
 1780W        W19984  18.121   8.838   4.820  0.0331  0.0968  0.0699
 1781W        W19985  14.993  16.425   4.459 -0.2435 -0.4185 -0.2027
 1782W        W19986   9.842  10.289  13.335  0.0661 -0.0498 -0.0531
 1783W        W19987   3.779  10.820   2.113 -0.1863  0.2382 -0.1452
 1784W        W19988   7.382   3.762  13.156 -0.2709  0.0784  0.0684
 1785W        W19989  15.613  11.377   1.324  0.1679  0.0144 -0.2284
 1786W        W19990   5.896  18.335   0.854  0.1988 -0.2040 -0.1840
 1787W        W19991   5.287  15.466  11.941  0.0927  0.4453 -0.0830
 1788W        W19992  13.268   5.115   2.317  0.1182  0.1510 -0.1736
 1789W        W19993   6.607   4.045  13.654  0.0578 -0.0167  0.0943
 1790W        W19994   6.477  14.549  12.631  0.1725  0.2672  0.0100
 1791W        W19995   3.096  10.489  11.776 -0.0525 -0.2256  0.0051
 1792W        W19996  16.713   9.533  12.732  0.4283 -0.0823 -0.0601
 1793W        W19997   4.134   0.678  14.386  0.0570  0.1054  0.0312
 1794W        W19998   1.307  15.688  14.723 -0.2455  0.2578 -0.1862
 1795W        W19999   0.900   1.181  12.953 -0.1894 -0.0789 -0.0797
 1796W        W20000  13.319   5.897   2.686  0.0672  0.2802  0.1185
 1797W        W20001   8.587  12.885   0.033 -0.2160 -0.1358 -0.0588
 1798W        W20002   3.780   0.210   1.717  0.0406  0.0415  0.1496
 1799W        W20003   6.225  18.657  12.086  0.0030  0.2441 -0.1887
 1800W        W20004  18.407   2.842   1.713  0.0109 -0.1058  0.0736
 1801W        W20005   2.559   0.553   2.085 -0.3091  0.1230 -0.0465
 1802W        W20006   3.682  13.319  11.533 -0.1611 -0.0843 -0.0529
 1803W        W20007  16.227   1.342   5.560  0.0219  0.0029 -0.1507
 1804W        W20008  10.165  13.593  12.033  0.0074 -0.0541  0.0266
 1805W        W20009   7.316   1.310   3.137  0.1669  0.0664  0.0004
 1806W        W20010  13.507   0.685   1.120 -0.1365 -0.0012 -0.2841
 1807W        W20011   0.468  17.398  10.436 -0.2086 -0.2217 -0.0366
 1808W        W20012   5.563  13.808   0.061 -0.1918  0.0355 -0.0613
 1809W        W20013  17.780  14.384   0.206 -0.1028 -0.1398 -0.1498
 1810W        W20014  12.582  16.576   1.310 -0.1582  0.0219  0.0453
 1811W        W20015   4.638   6.191  14.348  0.1795 -0.1058 -0.1348
 1812W        W20016  10.711   1.093   1.375 -0.2343 -0.1011  0.0303
 1813W        W20017   0.473  16.910   5.197 -0.1343 -0.2260 -0.3814
 1814W        W20018   9.570  10.528  11.973  0.3910 -0.2008  0.0275
 1815W        W20019   8.774   4.680   1.292  0.2895 -0.1217 -0.3384
 1816W        W20020  15.686  10.255   2.658  0.4677 -0.2094  0.0648
 1817W        W20021   2.457   7.082   2.269 -0.1850  0.1166  0.0000
 1818W        W20022  15.206   5.679   3.426  0.0545  0.1976  0.0660
 1819W        W20023   7.800   2.796   3.815  0.0348  0.0618 -0.3244
 1820W        W20024  11.911   0.260   9.664 -0.0791 -0.0117  0.1220
 1821W        W20025  13.465   7.999  10.783 -0.1610  0.5095 -0.0707
 1822W        W20026  12.328   5.081  11.048 -0.2469 -0.2533 -0.0971
 1823W        W20027   7.292  10.473   4.447 -0.1262 -0.0530  0.0679
 1824W        W20028   8.535   9.481  13.335  0.0511  0.0488 -0.0055
 1825W        W20029  18.498   6.340  13.531  0.1238 -0.2091 -0.0598
 1826W        W20030  17.476  14.203   3.866  0.0400 -0.1573 -0.1770
 1827W        W20031   9.143   9.268   2.966  0.2380 -0.5741 -0.2174
 1828W        W20032  10.211  13.746   3.449  0.4499 -0.0615  0.3936
 1829W        W20033   5.411   0.751  13.927  0.2522 -0.0582 -0.0902
 1830W        W20034   0.182  17.594   2.509  0.3460 -0.0580 -0.0920
 1831W        W20035  17.683   2.038   2.403 -0.2532  0.1021  0.2018
 1832W        W20036   6.751   3.336  12.569  0.3033  0.1138 -0.2971
 1833W        W20037   1.924   9.544   9.656 -0.0335 -0.4207 -0.0680
 1834W        W20038   8.748  13.699   4.324  0.0825  0.1789  0.0025
 1835W        W20039   7.282   6.505  15.341 -0.1279 -0.0622 -0.0273
 1836W        W20040  13.025  15.566   1.092  0.0476 -0.0343  0.0682
 1837W        W20041  15.671   7.572   0.440 -0.0869  0.1041 -0.1144
 1838W        W20042   6.485   6.205  12.548 -0.0876 -0.1938 -0.1774
 1839W        W20043   1.592  10.734  10.853  0.1696 -0.0745  0.0855
 1840W        W20044  16.132  11.908   0.048 -0.0878  0.0511  0.0196
 1841W        W20045   6.832   5.881   1.138  0.2299  0.2429  0.3143
 1842W        W20046   1.315  10.025   1.678 -0.1548 -0.2225  0.2291
 1843W        W20047  17.153  17.876  11.646  0.0087 -0.2508 -0.0845
 1844W        W20048  12.698   4.808   2.299 -0.0123  0.0164  0.0774
 1845W        W20049  12.629   5.160   0.367  0.2932  0.1167 -0.1404
 1846W        W20050   0.566  15.449  11.912 -0.1043  0.2195  0.1870
 1847W        W20051   2.143  16.590   1.199  0.0091 -0.2302 -0.1479
 1848W        W20052   7.807   6.752   3.247 -0.1700 -0.1903 -0.2417
 1849W        W20053   3.783   4.204  13.938  0.1418  0.1614 -0.4690
 1850W        W20054   1.515   5.910   2.827 -0.0121 -0.2959  0.0209
 1851W        W20055   8.712   7.523   2.902 -0.0960  0.1490  0.0231
 1852W        W20056  15.017   4.339  15.035 -0.0337 -0.0842  0.0040
 1853W        W20057  10.100   6.019  10.620 -0.1236  0.0650 -0.6845
 1854W        W20058   8.774   1.739  11.656  0.0400 -0.0918  0.2679
 1855W        W20059  13.168   2.660   3.910  0.0627 -0.1831  0.1306
 1856W        W20060  16.431  12.299  15.446  0.3112 -0.1113  0.2595
 1857W        W20061  12.560  16.692   2.572 -0.1368 -0.0321 -0.0860
 1858W        W20062   3.683  18.563   1.381 -0.3356 -0.0244 -0.0472
 1859W        W20063  16.401   8.052  15.264 -0.3790  0.2735 -0.1463
 1860W        W20064   9.881   0.224   2.381 -0.0322  0.0853  0.0140
 1861W        W20065   1.464   7.103   1.218  0.0907  0.1279 -0.1778
 1862W        W20066  11.819  17.029  14.769  0.0322 -0.3570 -0.0677
 1863W        W20067   0.308   3.021  12.024  0.2386  0.1497 -0.1213
 1864W        W20068   3.543  18.283  13.358 -0.2768 -0.0015  0.3245
 1865W        W20069  15.519   4.430   4.584  0.1411  0.1500  0.2785
 1866W        W20070  11.555   6.066   4.235  0.1611 -0.0933  0.0828
 1867W        W20071  17.432   7.999   0.056 -0.0852  0.2656 -0.0386
 1868W        W20072   1.532  18.050   0.496 -0.3518  0.0223 -0.2394
 1869W        W20073  13.242  17.279  14.586 -0.0174  0.3463 -0.1658
 1870W        W20074   8.060   4.432   0.540 -0.2259  0.0573 -0.1391
 1871W        W20075  14.888  15.653  12.109  0.0059 -0.0289 -0.1799
 1872W        W20076  16.410  16.684  15.334 -0.1002  0.2964  0.0048
 1873W        W20077  12.317   1.530  13.847 -0.2418 -0.1362 -0.1561
 1874W        W20078   3.913  10.711  10.796  0.0445  0.0086  0.0253
 1875W        W20079   2.249  14.086  10.757  0.3161 -0.2660  0.0770
 1876W        W20080   9.474   9.111   4.126  0.0868 -0.1671  0.0021
 1877W        W20081  15.224   6.843  13.877 -0.1624  0.0377 -0.0338
 1878W        W20082   7.354   2.919   2.501  0.3015 -0.0277  0.1396
 1879W        W20083  11.158   7.803   0.409 -0.0207  0.3154  0.0594
 1880W        W20084  11.324   6.911  14.446 -0.0401  0.1448  0.0856
 1881W        W20085  11.498   2.673   3.626  0.1026 -0.0307 -0.2101
 1882W        W20086   1.964   1.462  14.851  0.1799  0.1361  0.0846
 1883W        W20087   5.349   1.690  11.462  0.3117 -0.1400  0.1223
 1884W        W20088  11.012   3.846  11.854  0.1155  0.0633  0.2376
 1885W        W20089  11.220  11.521   1.326  0.0474 -0.2952 -0.0994
 1886W        W20090  16.615  12.187  10.151  0.1425  0.1034  0.1512
 1887W        W20091   7.639   5.090   5.168  0.1735  0.0194 -0.1940
 1888W        W20092   1.920   5.596   0.449  0.2641  0.1834  0.1147
 1889W        W20093   5.000  15.000   2.601 -0.1278 -0.1908  0.3949
 1890W        W20094   3.989   2.357  15.034 -0.1119  0.1101  0.1654
 1891W        W20095  14.397   8.470  14.959  0.0009  0.6742 -0.1177
 1892W        W20096  11.505  16.187  14.054 -0.1050 -0.0278 -0.2644
 1893W        W20097  12.269   9.090   3.017  0.2090 -0.0287  0.3071
 1894W        W20098  16.749   2.059  11.191  0.2819  0.3161  0.0520
 1895W        W20099  11.276  11.238   2.290 -0.1092  0.4553  0.4401
 1896W        W20100  18.364  12.525   0.496 -0.0340  0.1204 -0.1438
 1897W        W20101  11.735  14.588   1.343  0.0722 -0.0252  0.3259
 1898W        W20102  16.053   1.090   3.726 -0.1473  0.1180 -0.1539
 1899W        W20103   0.313   0.118   2.721 -0.1814 -0.0194 -0.0219
 1900W        W20104  11.955  12.793  13.326 -0.0348 -0.2920  0.2865
 1901W        W20105   8.925  10.167   1.776  0.0293  0.5020  0.0509
 1902W        W20106  14.129   6.780   3.327  0.1298  0.2732 -0.0763
 1903W        W20107  16.944   2.998   3.609 -0.1128  0.0328  0.1592
 1904W        W20108   5.334  10.856  13.519  0.0700 -0.0326 -0.1122
 1905W        W20109  12.666  15.523  14.523 -0.0035 -0.4580 -0.3162
 1906W        W20110  17.203  10.079   2.761 -0.0557 -0.1233 -0.0205
 1907W        W20111  10.370  16.140   1.523  0.3926  0.5559 -0.1230
 1908W        W20112  10.519   6.446  13.398 -0.3503 -0.4206  0.0926
 1909W        W20113   0.885  16.856  12.332 -0.3001 -0.1510 -0.0794
 1910W        W20114  17.507  11.166  15.145  0.2982 -0.1822 -0.3226
 1911W        W20115   9.845   6.867   1.866 -0.0284  0.1235 -0.0158
 1912W        W20116  16.451   1.203  11.584 -0.0760 -0.2131 -0.1187
 1913W        W20117   3.268   5.061  12.249 -0.2027  0.1985 -0.0722
 1914W        W20118  16.342   3.529   3.992  0.1529 -0.0187 -0.3120
 1915W        W20119   3.989   2.428   2.084  0.3629  0.0673 -0.3579
 1916W        W20120  13.385   2.748  12.745  0.0270  0.0127  0.0621
 1917W        W20121  16.066  16.050   0.602  0.1186 -0.2282 -0.2712
 1918W        W20122   1.863   6.420   3.930 -0.0455 -0.0662 -0.0706
 1919W        W20123   7.569  11.415   2.480 -0.1261 -0.0636 -0.4303
 1920W        W20124   9.865  17.927   0.269 -0.1018 -0.0483 -0.0269
 1921W        W20125   1.537   5.874   1.774  0.2589  0.2402  0.1283
 1922W        W20126   7.429   4.545  14.242 -0.0883 -0.4325 -0.0477
 1923W        W20127   7.882  13.006  12.029 -0.4202  0.4939  0.1018
 1924W        W20128  10.819  12.670  13.875  0.0328  0.2658 -0.1387
 1925W        W20129   8.342   7.806  11.991  0.1280  0.3697 -0.4648
 1926W        W20130   9.125   8.647   4.751 -0.0105 -0.0532 -0.2753
 1927W        W20131   0.538  15.143   3.023  0.1360 -0.0327  0.1126
 1928W        W20132   5.402  10.556  11.784 -0.1966  0.1763 -0.0406
 1929W        W20133   2.402  16.036   0.480  0.2483  0.1356 -0.0204
 1930W        W20134  11.489  11.617   0.181 -0.2039 -0.1078  0.4676
 1931W        W20135  13.616  15.421   0.096  0.1592  0.0365 -0.1991
 1932W        W20136  11.882   4.521   3.380 -0.2460 -0.2481  0.6582
 1933W        W20137  17.390  16.100   1.444  0.0182 -0.3438  0.1459
 1934W        W20138  16.825  14.601  13.222 -0.1350 -0.0533  0.2914
 1935W        W20139   8.349   2.333   1.390 -0.0284  0.1787 -0.0579
 1936W        W20140  16.185   1.377   0.989  0.1348  0.0908 -0.1132
 1937W        W20141   4.003   2.826  12.773  0.0921  0.3914  0.0281
 1938W        W20142  12.432  10.361   2.031  0.0701 -0.2641  0.0253
 1939W        W20143   4.418   2.960  10.782  0.1651 -0.0738 -0.0733
 1940W        W20144   9.038   7.113   2.736 -0.0493  0.3606  0.1134
 1941W        W20145  14.923   7.611  15.372 -0.1314  0.0385  0.2792
 1942W        W20146   4.393   8.942  13.702 -0.0014  0.0470 -0.1273
 1943W        W20147  15.071  13.530  13.522 -0.2137  0.5055 -0.3364
 1944W        W20148  17.952   9.704   2.430  0.3325  0.2137 -0.0155
 1945W        W20149  15.801   9.066  14.340 -0.0695  0.0068  0.3578
 1946W        W20150   1.804   0.115  13.992 -0.0968 -0.2792 -0.2009
 1947W        W20151   6.276   1.043   3.136 -0.3708  0.1494  0.2207
 1948W        W20152  15.875   3.393   2.863 -0.0882  0.3550  0.0094
 1949W        W20153  17.819   0.682  14.895 -0.0230 -0.2011  0.1772
 1950W        W20154  10.262  11.754   3.425  0.1618  0.1029 -0.1602
 1951W        W20155  13.412   4.715  15.132  0.0819  0.0939 -0.1176
 1952W        W20156   6.748  17.170  14.984 -0.1560  0.2544 -0.2293
 1953W        W20157   6.593  16.642  12.956 -0.1254 -0.0549  0.0011
 1954W        W20158   7.426  16.384   3.964 -0.1182  0.1616 -0.2236
 1955W        W20159   8.934  10.916   5.306  0.1810 -0.1272  0.1848
 1956W        W20160   9.424   5.702   3.819  0.0417  0.0259  0.2687
 1957W        W20161   7.532   9.503   0.922 -0.0188  0.2170 -0.3962
 1958W        W20162  15.061  14.808  13.075 -0.1402  0.2495  0.1238
 1959W        W20163   5.936   9.110   0.233  0.0709  0.3749  0.2553
 1960W        W20164  11.171  17.548   2.908  0.1830 -0.1993  0.1597
 1961W        W20165  10.608  18.465  11.616  0.0421 -0.1672 -0.1302
 1962W        W20166  17.868  11.842   0.386 -0.0148  0.0651  0.0425
 1963W        W20167   1.634   9.977  14.431  0.0179 -0.2377  0.5416
 1964W        W20168  17.834  16.702   1.374 -0.0410  0.2350 -0.0538
 1965W        W20169   7.895   7.554   4.138 -0.0694 -0.0414 -0.2876
 1966W        W20170   4.871   3.412   3.692  0.1310 -0.0799 -0.1326
 1967W        W20171  15.966   6.923   3.704 -0.4316  0.0419  0.2216
 1968W        W20172  11.924   7.002  13.586 -0.0653 -0.0845 -0.1001
 1969W        W20173   4.715   2.631  10.569 -0.0361 -0.2684 -0.2811
 1970W        W20174   4.057   5.490   2.326  0.0577 -0.0662 -0.0229
 1971W        W20175  12.293  15.373  15.122  0.0121 -0.0283  0.3286
 1972W        W20176   1.786  12.309  12.509 -0.0043  0.0084 -0.0054
 1973W        W20177   5.588   4.741  11.176  0.3352  0.3685  0.0502
 1974W        W20178   6.357  15.532   4.816  0.1571  0.0382  0.0768
 1975W        W20179  12.846   9.213  11.316 -0.0046 -0.0826  0.0337
 1976W        W20180  18.349   3.018  12.750 -0.0129  0.2330  0.0009
 1977W        W20181   1.289   2.740   4.674  0.2096  0.2851  0.2705
 1978W        W20182   2.408   2.092   0.025  0.0476 -0.0562 -0.2265
 1979W        W20183  14.462   6.048  13.659 -0.0882 -0.0612 -0.1249
 1980W        W20184   3.261  16.277  12.150 -0.3568  0.1295  0.1112
 1981W        W20185   1.006   2.383   1.850  0.0746  0.2772 -0.2067
 1982W        W20186   2.155  12.370   2.021 -0.0542  0.0863  0.1906
 1983W        W20187   9.317  13.574   4.324 -0.1923  0.1698 -0.3211
 1984W        W20188  11.378   9.031   1.085  0.1696  0.0843 -0.0804
 1985W        W20189   8.848   3.550   1.469 -0.2893 -0.0448 -0.0139
 1986W        W20190   6.820   9.783   2.867 -0.3410  0.0401 -0.2081
 1987W        W20191   2.903   6.272  14.980 -0.2252 -0.1253 -0.0717
 1988W        W20192   4.578   2.758  15.431  0.0684 -0.5026  0.2245
 1989W        W20193   9.592  12.558   1.246  0.1279  0.0212 -0.0777
 1990W        W20194   3.839   4.777  14.083 -0.0405 -0.2401  0.0206
 1991W        W20195  12.793  12.410   0.810  0.2333 -0.0300 -0.1041
 1992W        W20196   9.680   1.205   1.639  0.0269 -0.0127  0.2384
 1993W        W20197  17.440  17.736  13.167  0.1845 -0.0035 -0.1443
 1994W        W20198   5.303   0.897   0.809  0.0711  0.2602 -0.1094
 1995W        W20199  10.169   0.960  13.299  0.0106 -0.0592 -0.0459
 1996W        W20200  15.952  18.077  11.635 -0.1240  0.0653  0.3905
 1997W        W20201  15.878   7.404  13.410  0.2833 -0.1701  0.0890
 1998W        W20202   1.333   7.587  11.398  0.1967  0.1204 -0.2817
 1999W        W20203   0.468  13.770  13.433  0.1605  0.1721  0.1587
 2000W        W20204   6.974  17.067   0.148  0.0706 -0.0099  0.1079
 2001W        W20205   7.888   0.003  14.039 -0.1750  0.4709  0.0289
 2002W        W20206   7.822   1.464   0.350  0.1365  0.2557 -0.1598
 2003W        W20207   5.850   2.018   4.583  0.2682  0.1087 -0.1108
 2004W        W20208  17.757  15.642   3.760 -0.0283  0.1294 -0.1127
 2005W        W20209  12.143  15.290  13.340  0.0877  0.1194  0.1453
 2006W        W20210   6.798   9.782   1.478 -0.4161  0.1402 -0.1073
 2007W        W20211  13.079   8.982  14.416 -0.1414  0.0436  0.3210
 2008W        W20212   8.841  12.704   4.490  0.2015 -0.0816  0.2438
 2009W        W20213   1.855  17.966  15.267 -0.2346 -0.3338  0.0625
 2010W        W20214   3.980   9.251  11.607  0.2424  0.4054 -0.3315
 2011W        W20215   0.251  12.379   1.265  0.1383 -0.1395 -0.5041
 2012W        W20216  17.178   7.626   0.349 -0.0080 -0.2876  0.2875
 2013W        W20217  15.004   8.145  14.329  0.1148  0.0015  0.1373
 2014W        W20218   3.959   9.431  13.235  0.0180  0.0162  0.2820
 2015W        W20219  16.889   8.772   1.698  0.0532 -0.1180 -0.3165
 2016W        W20220  13.088   7.409  10.270  0.2068  0.2657  0.1301
 2017W        W20221   2.135  16.007  10.451 -0.1323  0.0139  0.0948
 2018W        W20222   6.117   0.178  15.159 -0.1238 -0.0548 -0.0888
 2019W        W20223  18.592  10.588   1.320 -0.1018 -0.1472 -0.1821
 2020W        W20224  17.713   2.815   3.717 -0.1719  0.0511  0.1097
 2021W        W20225   7.407  11.722   1.895  0.2918 -0.3206 -0.3494
 2022W        W20226   7.774   2.850   2.789  0.0221 -0.1734  0.1954
 2023W        W20227   0.173   0.909   2.387  0.2176  0.0681 -0.2535
 2024W        W20228  15.221   4.942   0.700  0.0968  0.1096  0.0579
 2025W        W20229  14.655   5.663  12.293  0.0812 -0.1203 -0.0852
 2026W        W20230  17.693  10.873  13.505  0.0096 -0.2093  0.1868
 2027W        W20231   8.650   2.685   4.092  0.0319 -0.0814  0.3016
 2028W        W20232   4.533   4.766  14.684  0.0254 -0.1966  0.2143
 2029W        W20233   3.833   5.395   1.901  0.2050 -0.0177 -0.0158
 2030W        W20234   9.040  12.137   3.392 -0.1461  0.0536  0.0713
 2031W        W20235  13.387   7.022  13.314  0.0836  0.0937  0.1195
 2032W        W20236   7.451  13.440   2.230 -0.2270 -0.0161 -0.3971
 2033W        W20237  17.180   2.698  11.858 -0.2367  0.3527  0.1491
 2034W        W20238   6.863   5.751  12.509  0.0064 -0.1972  0.1108
 2035W        W20239   9.117   8.930  15.467 -0.0785 -0.0253  0.2868
 2036W        W20240   5.008   9.119   5.643 -0.0057  0.3043  0.0630
 2037W        W20241   3.419  10.168  12.852  0.2601 -0.0248  0.0792
 2038W        W20242  10.635   8.164   4.366  0.0146  0.1514 -0.0828
 2039W        W20243  18.057   3.758  10.487 -0.4043 -0.0849 -0.1930
 2040W        W20244   9.120  11.687  14.349  0.1775  0.2304 -0.0564
 2041W        W20245  15.280   1.507  11.326  0.4331 -0.1135 -0.1097
 2042W        W20246   1.006  10.153  13.029  0.1545 -0.0570  0.1728
 2043W        W20247  18.368  11.383  15.404  0.0820  0.3037 -0.0512
 2044W        W20248  11.525   6.861   1.505 -0.1432 -0.0645 -0.1351
 2045W        W20249   5.297  15.527   1.501 -0.1789 -0.1543  0.0233
 2046W        W20250  17.150   3.864  14.328  0.2545  0.2116  0.0391
 2047W        W20251   7.953  16.485   2.623  0.1637  0.0812  0.3201
 2048W        W20252   3.020   5.297  15.091  0.1160 -0.2305 -0.2980
 2049W        W20253   7.953  10.045   2.002  0.2104 -0.5818  0.2817
 2050W        W20254  12.648  14.951   0.922  0.1335  0.0888  0.2270
 2051W        W20255   8.177   7.778   3.579  0.1260  0.0996 -0.1044
 2052W        W20256   9.312   4.678  11.432  0.0124  0.1316  0.0420
 2053W        W20257  15.614   3.360   4.610 -0.1717  0.1948 -0.2204
 2054W        W20258  11.011  11.680   0.382 -0.1060 -0.1721  0.0048
 2055W        W20259   0.688  14.954  13.438 -0.0569  0.0484 -0.3879
 2056W        W20260  16.978  11.760   1.570  0.2315 -0.0772 -0.4144
 2057W        W20261  17.094  16.101  14.936 -0.1757  0.2731  0.3224
 2058W        W20262   5.310  11.067   4.161  0.3121 -0.0828  0.1577
 2059W        W20263   7.359  12.267  15.330 -0.0817 -0.2260 -0.2146
 2060W        W20264   8.798  10.988  12.630  0.2690 -0.0274 -0.0765
 2061W        W20265   6.328   7.991   0.589  0.1153  0.1688  0.0377
 2062W        W20266  12.847  13.754  13.487 -0.2273  0.1999  0.1207
 2063W        W20267  17.135   6.016   4.225  0.0147  0.4264 -0.2071
 2064W        W20268  13.360   1.675  11.667 -0.1657  0.0279 -0.1397
 2065W        W20269   3.078   9.798  14.321 -0.0141 -0.0324  0.3406
 2066W        W20270   9.329  13.875   2.649  0.0549 -0.0305  0.1189
 2067W        W20271   7.201  11.762   2.706 -0.0905  0.0999  0.1676
 2068W        W20272  12.732   9.856  13.627 -0.4557  0.0207 -0.0128
 2069W        W20273   8.346   5.067   0.895 -0.2767  0.2380  0.0328
 2070W        W20274   7.552   0.121  13.638 -0.2629  0.0515  0.0146
 2071W        W20275   0.410  14.363   0.019  0.0626 -0.0674  0.0077
 2072W        W20276  18.012  14.144   4.388 -0.2842  0.1679  0.0343
 2073W        W20277   7.709  13.426  13.701  0.2325  0.0282 -0.4479
 2074W        W20278  18.556   3.696   2.544 -0.1431 -0.0714  0.1140
 2075W        W20279   9.323  17.092  12.615 -0.0694 -0.1759  0.3780
 2076W        W20280  12.689  13.915  11.400  0.2577  0.1928 -0.1391
 2077W        W20281  18.579  12.598  13.209 -0.0201  0.0820 -0.1714
 2078W        W20282   8.325   8.067   0.558  0.0458  0.0178 -0.2775
 2079W        W20283  16.976   7.150   0.634  0.0421 -0.0915  0.2439
 2080W        W20284   4.148   8.982  14.183 -0.0960  0.0256  0.2747
 2081W        W20285   4.397   1.562   2.535  0.2700  0.0021  0.1144
 2082W        W20286   0.032   6.062   1.541  0.1487  0.0347 -0.0731
 2083W        W20287  17.689  16.016   4.107  0.2236 -0.0625 -0.2454
 2084W        W20288  15.055   4.837  11.454 -0.0769  0.0952 -0.2792
 2085W        W20289  15.010  14.809   0.417 -0.2193 -0.0370 -0.0061
 2086W        W20290   4.265  10.113   3.668  0.0871 -0.0294  0.1804
 2087W        W20291   5.933   5.390  15.272  0.0594  0.2236 -0.2827
 2088W        W20292  17.448  16.166  14.075 -0.1964  0.1277  0.1644
 2089W        W20293   8.197   2.720   0.353 -0.0559 -0.0129 -0.2565
 2090W        W20294  17.865  13.550  13.443 -0.2837  0.0835  0.1696
 2091W        W20295   7.952   1.915  12.671  0.1280  0.4153 -0.4055
 2092W        W20296  13.033   0.527   1.249 -0.1457 -0.2004  0.3877
 2093W        W20297   4.132  10.157   5.675 -0.0101  0.3128 -0.0297
 2094W        W20298  12.318   7.589  11.630 -0.3126  0.1791 -0.1371
 2095W        W20299   9.601   3.118   3.324  0.2270 -0.0701  0.1327
 2096W        W20300  17.035   8.133   2.808 -0.2147 -0.0884  0.2457
 2097W        W20301   7.271   0.100  14.186 -0.0693 -0.0749  0.2365
 2098W        W20302   2.270   0.960  13.133  0.1419  0.0367 -0.1241
 2099W        W20303  14.384   1.047  14.228 -0.0660  0.0181 -0.0406
 2100W        W20304   7.816  16.744   3.855 -0.1032  0.0108  0.0663
 2101W        W20305   4.495   9.077  15.053 -0.2708 -0.1802 -0.1609
 2102W        W20306  12.550  18.270  12.237  0.1569 -0.1830 -0.0183
 2103W        W20307  14.057  14.967  12.390  0.2373 -0.3034  0.0588
 2104W        W20308  10.241   6.002   0.114 -0.1580  0.0613  0.1647
 2105W        W20309   6.187  17.093   1.459 -0.0048  0.1067  0.2379
 2106W        W20310   5.821   0.091   0.098 -0.0734 -0.1015 -0.0531
 2107W        W20311   6.338   9.797  14.712 -0.0046  0.0509 -0.1449
 2108W        W20312   6.419   6.170  13.747  0.0428  0.3097 -0.0212
 2109W        W20313   0.246  10.883  13.873 -0.2368 -0.0181  0.1494
 2110W        W20314  12.304  15.322   0.420 -0.3430  0.0568 -0.0799
 2111W        W20315   6.337  13.290  13.173  0.3368  0.1610 -0.2109
 2112W        W20316   4.720   2.237  12.744  0.2458  0.2190 -0.2399
 2113W        W20317  10.592   8.400  12.356  0.0818  0.1296 -0.2673
 2114W        W20318  14.535   1.024   1.781 -0.2734  0.1039 -0.1294
 2115W        W20319  11.873   3.291   1.927  0.3243  0.3282  0.3652
 2116W        W20320  12.325   5.729   2.580  0.1521 -0.4293 -0.1017
 2117W        W20321  11.048  10.852   5.000  0.0685  0.1536  0.1267
 2118W        W20322   4.191   3.345  15.175  0.2440 -0.0369 -0.3522
 2119W        W20323   9.949   6.823   2.989 -0.2960 -0.0460 -0.0894
 2120W        W20324  14.101  18.295   2.783 -0.0222 -0.0112  0.0980
 2121W        W20325   9.269   9.230  14.582 -0.1311 -0.1799  0.1991
 2122W        W20326  10.835   1.588   1.338 -0.6169 -0.0305  0.2965
 2123W        W20327   8.469  11.833  13.239  0.1500 -0.1459  0.2000
 2124W        W20328  10.135  18.465  11.832  0.2003 -0.1013  0.0201
 2125W        W20329   2.202   7.223   3.076 -0.3782  0.1502 -0.1134
 2126W        W20330   3.078   2.370   3.095  0.3270 -0.0890  0.4620
 2127W        W20331  13.210  13.692  13.137 -0.2211  0.1283  0.2729
 2128W        W20332   1.785   2.758  12.904 -0.4926  0.2933  0.1201
 2129W        W20333  10.364  17.970  14.419  0.0938 -0.0048  0.1377
 2130W        W20334  14.773   9.878  12.220  0.0448 -0.2938  0.0706
 2131W        W20335  15.468   7.436   0.869  0.3333  0.1914  0.0332
 2132W        W20336   9.960  14.885  12.566 -0.2996 -0.3012 -0.1160
 2133W        W20337   4.149   6.216   0.843 -0.2468 -0.1260  0.0714
 2134W        W20338   9.070   7.062  13.526 -0.0683  0.0402 -0.0505
 2135W        W20339   4.810  15.265   3.168 -0.0336  0.0171  0.1110
 2136W        W20340  11.737   2.888   1.251 -0.1009  0.1521 -0.0278
 2137W        W20341   4.207   9.884   4.457  0.0775 -0.0690  0.2255
 2138W        W20342   6.033  18.157   2.911 -0.2406 -0.0027  0.1678
 2139W        W20343  14.927   7.095   4.786  0.0086 -0.2182  0.0940
 2140W        W20344  11.846  12.820   2.059  0.1053  0.2265 -0.0901
 2141W        W20345   0.983  13.054  14.461  0.0268 -0.1226 -0.0029
 2142W        W20346   3.395  12.837  13.986  0.1620  0.0054 -0.1949
 2143W        W20347   0.520   3.150   1.859  0.3792 -0.0720 -0.1298
 2144W        W20348   6.540   4.664  11.281  0.0179 -0.2156  0.2658
 2145W        W20349   6.445  16.244   5.013 -0.1627 -0.0823  0.2190
 2146W        W20350  18.461   2.857   1.230  0.0269  0.0912  0.0853
 2147W        W20351  15.591  16.092  13.824 -0.0901  0.0299  0.0817
 2148W        W20352   8.652   3.257  12.286  0.1651 -0.4127  0.2057
 2149W        W20353  15.896   9.139  13.370  0.2274 -0.2474 -0.3057
 2150W        W20354  18.149   6.222   0.578  0.1916  0.3829  0.1356
 2151W        W20355  11.917  11.947   0.864 -0.0322  0.0177  0.2340
 2152W        W20356   1.110   6.935  10.782 -0.1721 -0.1935 -0.1176
 2153W        W20357  13.770   7.847   4.144  0.0047 -0.0925 -0.0206
 2154W        W20358   7.266  13.206  11.238 -0.2693 -0.3346  0.1776
 2155W        W20359  17.058  17.444   0.816 -0.2267 -0.1735 -0.1731
 2156W        W20360   6.930   0.527   2.549 -0.3053  0.1905  0.0827
 2157W        W20361  13.941   1.240  10.281  0.4733  0.2699 -0.1905
 2158W        W20362  11.760   5.561  15.290 -0.1127  0.0140 -0.0068
 2159W        W20363  17.912   7.789   4.828 -0.2622  0.0908  0.2471
 2160W        W20364  14.521   0.312   4.006  0.3511 -0.0770  0.0184
 2161W        W20365   7.438  10.620  11.506 -0.0854 -0.2401 -0.0154
 2162W        W20366   0.222   7.499   5.399  0.2759 -0.0924 -0.2098
 2163W        W20367   2.683   8.945  12.379 -0.0378  0.2788  0.1267
 2164W        W20368   2.823   9.522  13.117 -0.0837 -0.1051 -0.2556
 2165W        W20369   7.091  16.154   2.780  0.4225  0.2767 -0.1680
 2166W        W20370  17.359  16.391  14.627 -0.2666  0.0954 -0.0830
 2167W        W20371  17.530  18.614   0.171  0.1834  0.1075 -0.3038
 2168W        W20372  16.964   2.313   0.123 -0.0013 -0.1703 -0.2426
 2169W        W20373   9.615  14.547   1.614  0.1474  0.0839  0.1394
 2170W        W20374   2.339  14.396   2.519  0.2200 -0.0511 -0.1220
 2171W        W20375  16.552  10.217   4.404  0.0741 -0.4405  0.0340
 2172W        W20376   3.615   2.968   4.205 -0.2138 -0.0197 -0.0648
 2173W        W20377   2.404  11.924   0.369 -0.0409  0.0325 -0.1065
 2174W        W20378  16.289  12.565  11.009 -0.2811 -0.0001  0.1180
 2175W        W20379  12.455  18.348   2.372  0.1557 -0.2264  0.3151
 2176W        W20380   1.589   7.458  13.500 -0.0098  0.0323  0.3785
 2177W        W20381  10.424   0.024  14.860 -0.2026  0.3843 -0.1507
 2178W        W20382   7.310  17.073   0.601  0.0988  0.1513 -0.2315
 2179W        W20383  11.744   3.966   4.426 -0.2647 -0.0868  0.0608
 2180W        W20384   3.765  13.010  15.343 -0.0718  0.0640  0.1218
 2181W        W20385   7.468   8.187  13.891 -0.1755  0.0273 -0.2817
 2182W        W20386  14.856   5.818   2.404  0.0933 -0.2845 -0.0777
 2183W        W20387   5.566  16.511   2.813  0.2766 -0.0533 -0.2709
 2184W        W20388  10.526  13.518   3.821  0.0510 -0.3171 -0.0858
 2185W        W20389   2.745  10.681  12.325 -0.0366 -0.1298 -0.0643
 2186W        W20390   9.240  12.297  14.724 -0.1094  0.1404  0.2184
 2187W        W20391  15.848   7.249   4.032  0.2049 -0.3652  0.0398
 2188W        W20392  12.657   4.311   2.384 -0.1360 -0.1885  0.2715
 2189W        W20393   8.506  16.940   1.427  0.1163 -0.0048 -0.0575
 2190W        W20394   9.399   0.706  14.681  0.1125 -0.0763 -0.1159
 2191W        W20395  18.608   8.973   2.098 -0.0964 -0.0448 -0.2650
 2192W        W20396  10.208  15.296  12.869  0.1978  0.0139 -0.5030
 2193W        W20397  15.503   3.147  15.388  0.2889 -0.1962  0.2521
 2194W        W20398  12.688   5.778  14.034  0.0404  0.1155  0.1804
 2195W        W20399   8.601  13.763  12.016  0.2053  0.1108  0.1816
 2196W        W20400   0.176  11.546   4.532  0.2301  0.2458  0.2787
 2197W        W20401   8.371   9.998  12.805  0.0344 -0.0852 -0.2112
 2198W        W20402  10.429  17.584  10.684 -0.2345  0.1875 -0.3022
 2199W        W20403   7.559  14.715   3.078  0.2241  0.0452 -0.1319
 2200W        W20404   5.392   0.840   0.320 -0.1277  0.3562  0.0187
 2201W        W20405  12.450   7.871  10.424 -0.1551 -0.1497  0.4835
 2202W        W20406  18.322  15.273   1.289  0.0019  0.1141  0.1038
 2203W        W20407  10.341  17.857   1.562  0.0636  0.0421 -0.4183
 2204W        W20408  16.673   9.117  15.354 -0.0431  0.0703  0.2603
 2205W        W20409  15.441  14.532  12.946 -0.0515 -0.0319 -0.3034
 2206W        W20410   7.610  13.096   0.445  0.0163 -0.0324  0.0153
 2207W        W20411  11.018   6.760  13.142 -0.4322  0.0235  0.2982
 2208W        W20412   6.217  16.701   5.230  0.1574 -0.1957 -0.2574
 2209W        W20413  14.399  18.139   0.394  0.1578  0.0203 -0.0222
 2210W        W20414  16.328  16.586   0.730  0.1302  0.1629 -0.1689
 2211W        W20415  10.662   5.881  13.302  0.2044  0.0238  0.0884
 2212W        W20416  11.877  12.720  11.089  0.2321 -0.0831  0.2690
 2213W        W20417  14.853  18.534  13.425  0.1668 -0.1848 -0.0150
 2214W        W20418  11.788   0.521   5.647  0.0152  0.1540 -0.0359
 2215W        W20419   4.361  12.627  13.981  0.2434  0.0596  0.1201
 2216W        W20420   0.559   7.354   3.914  0.0176 -0.0031  0.4504
 2217W        W20421  10.007  11.202   3.340  0.1148 -0.1052 -0.0129
 2218W        W20422  17.791   3.439   2.793 -0.3623 -0.1446 -0.0940
 2219W        W20423  18.127   7.017  12.591  0.0638  0.0381 -0.0986
 2220W        W20424   7.055   9.392  10.450  0.1407  0.1198 -0.1645
 2221W        W20425  18.439   3.129   4.330 -0.0999 -0.1200 -0.1546
 2222W        W20426   0.068  11.659  13.256  0.1447  0.1602  0.0733
 2223W        W20427  16.683  15.606   1.089 -0.1594  0.2209  0.4410
 2224W        W20428   9.181   8.554   0.334  0.0092 -0.2851  0.0751
 2225W        W20429   0.036  14.082  12.888  0.1315  0.1215 -0.3040
 2226W        W20430  16.333   4.499   3.077  0.2294 -0.1357  0.0836
 2227W        W20431   7.215  18.348  13.143 -0.0389 -0.3499  0.4618
 2228W        W20432  16.583   8.563  11.312 -0.1377  0.0671  0.0271
 2229W        W20433  17.771   2.269   3.593  0.1560  0.2974 -0.2422
 2230W        W20434  16.346  14.683   3.410  0.3999 -0.0355  0.3066
 2231W        W20435  16.272   2.629  11.680  0.0827 -0.0580 -0.1576
 2232W        W20436   0.538  13.964   4.716  0.0209 -0.0707 -0.0779
 2233W        W20437   6.639   1.795   2.721 -0.0889 -0.1936 -0.2174
 2234W        W20438  16.803   9.084  13.355  0.1127 -0.0108 -0.1454
 2235W        W20439   5.184  12.385   1.648  0.0432  0.0951  0.5863
 2236W        W20440   1.277  13.106  13.202 -0.0545 -0.0755  0.0993
 2237W        W20441   1.552  10.020  15.186  0.2185  0.2239  0.2136
 2238W        W20442  15.540   5.973   0.385  0.1412  0.0724 -0.1875
 2239W        W20443   3.516   0.631  11.742  0.2667  0.3954 -0.2301
 2240W        W20444   4.453   8.182  13.405 -0.1851  0.0693 -0.0067
 2241W        W20445   8.766   9.439   1.207 -0.0990 -0.0729  0.0443
 2242W        W20446  18.358  15.753  10.491  0.2122 -0.1107 -0.4463
 2243W        W20447   3.454   9.492   3.663 -0.0165 -0.1878  0.1634
 2244W        W20448   5.140  14.657   0.189 -0.0170 -0.0395  0.0605
 2245W        W20449   2.150  18.589   2.834 -0.2939 -0.2458  0.1397
 2246W        W20450  18.654  14.380   4.221  0.3436  0.1668  0.0091
 2247W        W20451   2.018  15.654  13.608 -0.1006 -0.0834  0.0996
 2248W        W20452  17.450  13.931   1.457  0.1112  0.2011 -0.0824
 2249W        W20453  11.722   7.861   2.505 -0.1175 -0.0819  0.2504
 2250W        W20454   0.161   2.217   0.765 -0.2087 -0.0953 -0.4305
 2251W        W20455   7.555  11.595   3.734  0.0809 -0.2091  0.1644
 2252W        W20456   5.168   1.462   1.429 -0.0560  0.2418  0.1468
 2253W        W20457  10.434   9.660  11.264 -0.1519 -0.1781  0.2587
 2254W        W20458   6.061  14.856   1.609 -0.2177  0.1489  0.4167
 2255W        W20459  14.416  10.239  14.625 -0.0171  0.1776 -0.1393
 2256W        W20460   1.810   0.848  12.895 -0.2510 -0.1077  0.3537
 2257W        W20461   1.897  16.477  10.299  0.1907  0.1254 -0.2203
 2258W        W20462   5.130  17.666   0.333 -0.4694 -0.0570 -0.1708
 2259W        W20463   7.205   1.098  10.615  0.0117  0.3266 -0.0393
 2260W        W20464  11.005   1.117   3.921 -0.2598  0.2272 -0.4371
 2261W        W20465  15.966  15.426  15.248  0.1205  0.0907 -0.2217
 2262W        W20466  10.458  13.907  13.618  0.1070 -0.2387  0.1917
 2263W        W20467  13.071  15.988   1.497  0.0363 -0.1652 -0.2131
 2264W        W20468  13.120   1.131  12.090 -0.0217  0.1576  0.0826
 2265W        W20469   0.972  13.355   4.246 -0.0217  0.2021 -0.0085
 2266W        W20470  13.589  13.592  14.401 -0.2772 -0.0336  0.2969
 2267W        W20471  15.999   4.394  12.768 -0.0366 -0.0215  0.3115
 2268W        W20472  17.969   0.735   0.403  0.3982  0.0805  0.0057
 2269W        W20473   9.381   9.173   2.445 -0.0245  0.1431 -0.1184
 2270W        W20474   5.275  11.959  11.113 -0.0016  0.0306 -0.2649
 2271W        W20475  18.253  12.157   3.520 -0.0163  0.3174 -0.0808
 2272W        W20476   6.930   3.031   2.735 -0.0986  0.1115  0.0568
 2273W        W20477  18.259  17.293   3.880  0.0352  0.2235  0.3002
 2274W        W20478  12.875   6.891  13.321  0.1244 -0.0767 -0.1650
 2275W        W20479   6.824  16.266   0.775 -0.2043  0.0915  0.1024
 2276W        W20480   6.872  11.491   4.818 -0.1163 -0.0793  0.0191
 2277W        W20481  12.765   4.297  10.947  0.0659  0.2981 -0.0455
 2278W        W20482   3.201   7.798  11.437  0.1908  0.3135 -0.1546
 2279W        W20483   4.304   6.831  14.677  0.2915 -0.0066  0.2484
 2280W        W20484  14.988  15.972   4.692  0.0078  0.2051 -0.0758
 2281W        W20485  11.019  18.624   1.516  0.0624  0.2367 -0.0195
 2282W        W20486   7.484   4.401   1.296 -0.1506  0.2516 -0.0670
 2283W        W20487   3.697   7.553  11.467  0.2369 -0.3062  0.0625
 2284W        W20488   5.284  13.414   2.768 -0.0420 -0.1164 -0.1333
 2285W        W20489  11.311   9.482   3.034 -0.0990  0.0390  0.1630
 2286W        W20490   6.820   5.256  11.896 -0.1926 -0.1292 -0.1055
 2287W        W20491   6.860   9.744  14.160 -0.0676 -0.1532 -0.0820
 2288W        W20492   5.646  10.122  13.008  0.2162 -0.1800  0.4692
 2289W        W20493  14.343  10.743  10.936  0.2895  0.0950  0.0281
 2290W        W20494  14.668   2.133  12.271  0.0394 -0.3818 -0.0164
 2291W        W20495   9.122   5.290   3.710  0.0053 -0.1135 -0.0310
 2292W        W20496  15.956  11.460   3.876  0.0092  0.0497 -0.2336
 2293W        W20497   6.561  12.273  14.228 -0.1400  0.0510 -0.1319
 2294W        W20498  14.858   7.730  14.864 -0.2552 -0.1588 -0.0785
 2295W        W20499   1.940   3.904   3.156  0.0235 -0.2740 -0.0328
 2296W        W20500  10.642   8.930  13.644 -0.1355  0.1044 -0.1052
 2297W        W20501  15.487   7.112   0.479 -0.0102  0.3754 -0.5265
 2298W        W20502   7.907  13.410   3.335 -0.0581 -0.0975 -0.1625
 2299W        W20503   7.014  15.037   1.935  0.1000  0.1056 -0.2677
 2300W        W20504  18.455   9.935  14.910 -0.1747  0.1533 -0.2029
 2301W        W20505  10.647  11.493   4.073 -0.1752 -0.0485  0.2061
 2302W        W20506  15.351  16.008   3.762 -0.1055 -0.1225  0.0176
 2303W        W20507   8.481  11.988   2.789  0.3353  0.3629 -0.2851
 2304W        W20508  13.548  12.758  12.085  0.2744  0.3594  0.1329
 2305W        W20509   7.863   6.309  13.004 -0.1839 -0.5117  0.0376
 2306W        W20510  16.787   2.674  12.517  0.0767  0.0332 -0.0790
 2307W        W20511   9.042   0.373  12.352 -0.0455 -0.2577  0.0096
 2308W        W20512   8.756  15.169  12.247  0.0082 -0.0019  0.0209
 2309W        W20513   2.755   8.448  15.364  0.3910  0.4107 -0.1646
 2310W        W20514   3.119   5.703   3.317  0.1420  0.0077 -0.0511
 2311W        W20515  18.170   3.936  14.163  0.1786  0.1706 -0.1168
 2312W        W20516  11.484   9.634   4.410  0.1000 -0.1658 -0.1254
 2313W        W20517  16.111  13.465  11.918  0.0242  0.0006 -0.1515
 2314W        W20518   6.103   0.704  15.272  0.5111  0.0051  0.0383
 2315W        W20519   7.884   6.868   1.371  0.0002 -0.2071 -0.2460
 2316W        W20520  17.791   3.036  10.178  0.0302 -0.1864  0.1773
 2317W        W20521   3.891   1.410   1.626 -0.3241 -0.0677 -0.2069
 2318W        W20522  13.057  10.897   2.201 -0.0857  0.0575 -0.0066
 2319W        W20523   6.213  12.988  10.551  0.1049 -0.0207  0.0924
 2320W        W20524   8.528   9.561  11.081 -0.2391 -0.1615 -0.0440
 2321W        W20525   4.312  16.904  10.811 -0.1632 -0.0325 -0.0685
 2322W        W20526  10.094  12.461   1.153  0.1789  0.1291 -0.2977
 2323W        W20527   1.041  16.311   2.400 -0.3176 -0.1300 -0.0240
 2324W        W20528  11.577   7.417   0.516  0.2131  0.1676  0.0785
 2325W        W20529   2.465   2.299   2.247  0.0233 -0.0689  0.2059
 2326W        W20530   7.772   6.133  11.601  0.1352 -0.4027 -0.0026
 2327W        W20531  16.092  12.302   4.240  0.0120  0.3992 -0.1820
 2328W        W20532   4.259  14.223   0.270  0.1368 -0.1786 -0.0247
 2329W        W20533  14.484   8.983   4.517  0.0085 -0.5382 -0.5725
 2330W        W20534   5.161   4.818  13.621 -0.1621 -0.0628 -0.1611
 2331W        W20535  11.961   8.354   0.912  0.2573  0.3395 -0.0379
 2332W        W20536  14.694   3.182  15.385  0.0288  0.2855  0.2571
 2333W        W20537  13.186   3.467   3.179  0.3508 -0.0293  0.0969
 2334W        W20538  13.763  12.762   1.683  0.1409  0.0290 -0.0280
 2335W        W20539  13.294  12.759   0.800  0.0812 -0.3001 -0.0646
 2336W        W20540  14.857   9.566  15.254  0.3762  0.1159 -0.2664
 2337W        W20541  17.600   2.631   2.699 -0.1543 -0.1588 -0.2360
 2338W        W20542   7.516  10.327  14.860 -0.2722  0.2665  0.3389
 2339W        W20543  12.465   1.647   0.836 -0.0155  0.1241 -0.1692
 2340W        W20544   7.205  18.009  11.735 -0.1280  0.0072 -0.0260
 2341W        W20545   2.345  15.282  11.243  0.0610 -0.0842  0.0827
 2342W        W20546   0.091  18.304  13.511 -0.2629 -0.2702 -0.1288
 2343W        W20547  16.061   0.892  11.490  0.0125  0.0590 -0.1242
 2344W        W20548   5.553   2.036   4.176 -0.2317 -0.0730 -0.0080
 2345W        W20549   4.438  18.030   5.496 -0.3975  0.0294 -0.3281
 2346W        W20550  17.518  11.266   4.605 -0.1242  0.0462 -0.0578
 2347W        W20551  13.346   7.958   0.222  0.1063 -0.2444  0.1998
 2348W        W20552   7.423   9.744  11.426  0.2784 -0.1201  0.0487
 2349W        W20553   4.994  12.291   3.017 -0.1619  0.0560  0.0990
 2350W        W20554  17.835   4.763  12.584  0.4232  0.3950  0.1633
 2351W        W20555   6.391  11.770   3.146 -0.0135 -0.1980  0.4093
 2352W        W20556  14.492   6.630  13.379  0.1673  0.1527  0.2026
 2353W        W20557  17.371  14.396   2.510 -0.2238  0.2508  0.0117
 2354W        W20558  11.482   9.675   1.533  0.1997 -0.2598  0.1821
 2355W        W20559  18.215  17.112   1.534 -0.1041  0.1546  0.1471
 2356W        W20560  10.073   9.105  12.872  0.0813  0.0333 -0.1712
 2357W        W20561   5.248  11.838   1.534  0.2392 -0.3408 -0.3270
 2358W        W20562  18.358  15.444   3.796 -0.0483  0.0497 -0.0096
 2359W        W20563  13.602   8.075  14.067 -0.0469  0.0756  0.0252
 2360W        W20564   4.623   8.816  14.220 -0.1036  0.5634  0.3400
 2361W        W20565   1.184  18.310   1.836 -0.3302  0.1606  0.1748
 2362W        W20566   0.838  15.885   2.595  0.0114 -0.4063 -0.2954
 2363W        W20567  10.944   2.133   3.315 -0.0565  0.1689  0.1218
 2364W        W20568  10.570   5.838   0.912 -0.1282  0.0708 -0.0796
 2365W        W20569  13.194   9.332  11.734  0.1048  0.0088  0.0055
 2366W        W20570  10.375   7.748  11.057  0.0443  0.4338 -0.3916
 2367W        W20571   0.407  15.717   4.557  0.1056 -0.1561 -0.3446
 2368W        W20572  18.485  17.371  15.442  0.0438 -0.1521  0.3093
 2369W        W20573  15.891  15.755  12.075  0.0969  0.2317  0.2620
 2370W        W20574   3.378   7.861  14.129  0.3666  0.3335 -0.0850
 2371W        W20575  12.896   3.337   0.030 -0.1483 -0.1228 -0.2193
 2372W        W20576   5.886   6.634  15.137 -0.0952  0.2571  0.0472
 2373W        W20577  16.499   5.059   1.530 -0.1016  0.0322  0.2114
 2374W        W20578  17.808  10.058   0.245  0.1278  0.0442 -0.0164
 2375W        W20579  16.439  11.957  15.056  0.1284 -0.1182 -0.1517
 2376W        W20580   5.508   3.360  14.369 -0.2425  0.0076 -0.0040
 2377W        W20581  13.536  13.516   0.771 -0.1800  0.1048  0.1168
 2378W        W20582   3.404   9.017  13.686 -0.1297  0.3482  0.4347
 2379W        W20583   1.909   4.003   2.463 -0.0827 -0.3134  0.1285
 2380W        W20584   5.129   4.826  15.150 -0.0284  0.2142 -0.1951
 2381W        W20585   8.811   4.002  15.213  0.2160 -0.1859  0.0821
 2382W        W20586   0.164  10.068  11.448  0.1289  0.3816 -0.2462
 2383W        W20587  11.037   7.800  14.478  0.1983 -0.0491 -0.0123
 2384W        W20588   3.913  10.381   2.380  0.0357 -0.1503  0.0567
 2385W        W20589   7.877  10.317  13.304  0.0747 -0.2139  0.2427
 2386W        W20590   3.443   0.168   2.279 -0.2693  0.1851  0.4042
 2387W        W20591   9.645   4.136  12.869  0.5798 -0.1667  0.0603
 2388W        W20592  13.292  13.290  12.879  0.2153 -0.1329 -0.1973
 2389W        W20593  17.911   2.123  11.854  0.2627 -0.1024  0.4180
 2390W        W20594  18.405   7.213   0.979  0.1763  0.0717  0.1958
 2391W        W20595  13.658   7.747   2.368 -0.0877 -0.1006 -0.4143
 2392W        W20596   3.179  13.496   1.177 -0.0541  0.2283 -0.4173
 2393W        W20597  11.859  10.314   1.074  0.1282 -0.0031 -0.2358
 2394W        W20598   1.309  14.342  15.205 -0.2355 -0.0346  0.5673
 2395W        W20599   1.372  15.020  11.202 -0.0342  0.0470  0.0238
 2396W        W20600  13.474   2.379   4.148  0.1519 -0.0499 -0.1275
 2397W        W20601  12.418  14.258   1.854  0.0393 -0.1818 -0.1981
 2398W        W20602   7.481   3.978  14.959  0.3018 -0.1268  0.0627
 2399W        W20603   8.613   8.503   0.560  0.1480 -0.1515  0.0953
 2400W        W20604  11.033   1.248  12.113  0.0146 -0.0075  0.3220
 2401W        W20605  17.646  17.229   2.297 -0.1692  0.1577  0.1907
 2402W        W20606  10.959  13.340  11.989 -0.0346 -0.1070  0.0024
 2403W        W20607   8.534  18.297  14.568 -0.0393 -0.1473 -0.2546
 2404W        W20608  15.127   2.424  12.472 -0.0547  0.0783  0.2718
 2405W        W20609  13.100   2.941   0.603  0.2429  0.0301 -0.1544
 2406W        W20610  17.546  16.703   5.112  0.1037  0.1213  0.0846
 2407W        W20611   0.816   9.594   5.193 -0.0499 -0.0258  0.1493
 2408W        W20612   5.749   6.195  12.021  0.1721 -0.1687  0.2093
 2409W        W20613  11.955   8.215  14.210  0.0037 -0.2204  0.1472
 2410W        W20614  15.854   9.020   1.082 -0.3224 -0.0344  0.4326
 2411W        W20615  16.789   6.973   5.293 -0.2212  0.0335  0.1293
 2412W        W20616   1.950  12.619  14.243 -0.0352 -0.1303 -0.3039
 2413W        W20617  15.572  12.609   3.310 -0.0856 -0.0017  0.2827
 2414W        W20618  17.604   5.322   3.484  0.3638 -0.0267  0.0820
 2415W        W20619   8.227   9.128   3.476 -0.2484  0.2843  0.0242
 2416W        W20620  14.335  14.054   1.792  0.2497 -0.0642  0.0152
 2417W        W20621  14.096   4.796   1.582 -0.2643 -0.0796 -0.1401
 2418W        W20622  11.136  13.298   3.421 -0.2531 -0.0360 -0.0880
 2419W        W20623   3.385   3.955   0.565  0.1759 -0.0542  0.1192
 2420W        W20624   7.402   2.675   0.462  0.1396 -0.4594 -0.1379
 2421W        W20625   7.608   9.902  13.145 -0.0937 -0.1707 -0.0617
 2422W        W20626  18.411   8.308   2.672 -0.1370  0.2004 -0.0269
 2423W        W20627  13.885  17.624   3.535 -0.0718  0.1054  0.0460
 2424W        W20628  12.221   4.409   0.532 -0.0357  0.0537 -0.5294
 2425W        W20629  11.105   7.136  11.563 -0.0306  0.3612  0.0393
 2426W        W20630  12.399   7.043  14.058  0.0855 -0.0896  0.0980
 2427W        W20631   7.991  12.140  13.125 -0.2963 -0.1847 -0.2127
 2428W        W20632   4.438   0.625  15.454 -0.0941 -0.1626 -0.1053
 2429W        W20633  14.276  13.102  12.065  0.1550  0.1125  0.1822
 2430W        W20634  18.663  18.632   4.523  0.1611 -0.0963  0.1345
 2431W        W20635  17.642   2.256   1.510 -0.1027  0.0774 -0.0844
 2432W        W20636   3.498   0.619  13.299 -0.0761  0.3095 -0.1177
 2433W        W20637   1.391   3.252  11.499 -0.0608 -0.4560  0.1666
 2434W        W20638   9.409  11.947  12.110 -0.3239  0.0809 -0.1486
 2435W        W20639   5.323  10.909   2.495  0.1526 -0.3129  0.2684
 2436W        W20640   2.434   2.455  11.822 -0.1450 -0.1533  0.0613
 2437W        W20641   8.714  13.925   1.294  0.2438  0.0135 -0.2952
 2438W        W20642   7.110   9.333   2.617  0.0120  0.0258 -0.2901
 2439W        W20643  15.828   9.578  11.980  0.0571 -0.0407 -0.0283
 2440W        W20644  13.709   1.268   3.785 -0.1473 -0.0130  0.1891
 2441W        W20645  14.238   7.793   0.109  0.2627 -0.0004  0.0521
 2442W        W20646   6.718  13.127  10.580  0.0275 -0.3261 -0.3026
 2443W        W20647   0.325   1.990   2.982 -0.3177  0.1624 -0.1386
 2444W        W20648   4.387   0.925  13.094 -0.0499  0.1213  0.3293
 2445W        W20649   4.561  14.422  12.814  0.0802 -0.2296 -0.0504
 2446W        W20650   8.192   5.601   3.842  0.1480  0.2349 -0.3426
 2447W        W20651   3.775   7.369   0.596  0.0720  0.2679  0.3165
 2448W        W20652  15.458   3.937  13.573 -0.1937 -0.2424  0.2475
 2449W        W20653  11.214   4.523   0.875  0.1997 -0.2287 -0.0772
 2450W        W20654   9.626   8.564   1.031  0.0499 -0.1946  0.1927
 2451W        W20655   7.206   1.761   4.005  0.2135  0.2741  0.3862
 2452W        W20656  17.577   7.661  12.205  0.0826 -0.0863 -0.1679
 2453W        W20657   3.783  14.509  15.141  0.0230  0.1525  0.2196
 2454W        W20658   6.953   7.643   2.501 -0.1732  0.1365  0.3615
 2455W        W20659   7.249   1.217  13.426 -0.1491 -0.1277 -0.0282
 2456W        W20660  11.531  13.692   9.842  0.4293 -0.4753 -0.3749
 2457W        W20661   4.059   0.337  12.511  0.0783 -0.2392 -0.1380
 2458W        W20662   1.298   1.756   0.062  0.1243 -0.0214  0.1743
 2459W        W20663  13.492   1.514   1.821  0.1979 -0.0723 -0.1454
 2460W        W20664   1.146   4.488   0.086  0.2194  0.1790  0.1695
 2461W        W20665   1.421   4.746  12.147  0.1706  0.0497 -0.2225
 2462W        W20666   1.060   5.861   3.038  0.1788 -0.2511  0.1776
 2463W        W20667   0.336   2.127   3.444  0.3192  0.0394 -0.0053
 2464W        W20668   6.732   6.859  13.035  0.2170  0.1876  0.0361
 2465W        W20669   6.581   3.321   3.479 -0.0354  0.0686  0.1661
 2466W        W20670   2.472  15.420  11.720 -0.0077 -0.1214 -0.2725
 2467W        W20671   6.464  12.722   1.599 -0.2386  0.2097  0.0832
 2468W        W20672   7.675  14.719  13.125  0.0212  0.3374 -0.0256
 2469W        W20673  10.055   8.577   0.828  0.1405 -0.0676 -0.2236
 2470W        W20674   5.268   6.943  12.010  0.3665  0.3591 -0.2250
 2471W        W20675   7.254   3.168   4.446 -0.0585  0.2448  0.2310
 2472W        W20676  18.426   7.813  14.880 -0.3064 -0.0046  0.0001
 2473W        W20677   6.629   0.734   2.882 -0.0810 -0.0758 -0.0602
 2474W        W20678   8.536  10.888  11.468  0.1837  0.0905  0.1511
 2475W        W20679  11.293   3.175   1.214  0.0117  0.1113  0.1789
 2476W        W20680   4.218   1.206  10.639 -0.3679 -0.1971 -0.4226
 2477W        W20681  15.695   3.786  15.446 -0.0065 -0.1205 -0.1475
 2478W        W20682   0.907   2.154   2.311 -0.0958  0.0961 -0.0377
 2479W        W20683  15.973  11.840  12.384  0.2029  0.1943 -0.1139
 2480W        W20684   9.962   7.713  13.980 -0.3105  0.0837 -0.0093
 2481W        W20685   1.630   3.595   2.274 -0.0414 -0.1356 -0.3496
 2482W        W20686  10.717   4.077  15.429  0.0060 -0.3565  0.0597
 2483W        W20687  11.532   1.069  13.263 -0.2550  0.1335  0.0161
 2484W        W20688   3.363  13.107   0.892  0.3902 -0.2922  0.0772
 2485W        W20689  15.550   4.608   3.537 -0.0810  0.2489 -0.0509
 2486W        W20690  16.880   8.475   0.365  0.3236 -0.0665 -0.1295
 2487W        W20691   4.760  13.490  12.856 -0.0474  0.0648  0.1041
 2488W        W20692   7.646   0.361  11.652 -0.0704 -0.3336  0.0776
 2489W        W20693  11.493   8.069  12.284  0.0415  0.0474 -0.2631
 2490W        W20694   7.267  13.802   0.492  0.2891  0.1347 -0.2385
 2491W        W20695  18.147  14.614   4.202 -0.1768 -0.3692 -0.2299
 2492W        W20696  13.686  18.159  13.692  0.1191 -0.0391 -0.0557
 2493W        W20697  17.217  17.785   3.477  0.0912  0.1579  0.2683
 2494W        W20698  15.989  15.125   0.546 -0.1376  0.3151 -0.1375
 2495W        W20699   8.464   5.080  13.381  0.0084 -0.3272 -0.0905
 2496W        W20700   2.246   5.480   0.848  0.1928  0.3857 -0.0429
 2497W        W20701   8.114   7.422  13.559  0.1240  0.0899 -0.2512
 2498W        W20702   1.627   3.917  11.605 -0.1924 -0.4271 -0.1611
 2499W        W20703  12.330   1.473  12.644 -0.3333 -0.0687  0.0654
 2500W        W20704   0.748   7.161   4.583 -0.2466 -0.2961  0.1317
 2501W        W20705   0.482   2.497   2.329 -0.0889 -0.0368 -0.0073
 2502W        W20706  12.488  13.054   4.591  0.2374  0.1729  0.0015
 2503W        W20707   0.629   8.530   2.979 -0.1022 -0.1342  0.0528
 2504W        W20708   4.849  11.038   1.072 -0.2481 -0.2606  0.2765
 2505W        W20709  12.709  13.990  14.223 -0.0507  0.1953 -0.3493
 2506W        W20710  16.611  17.508  12.188  0.0605 -0.0482  0.3291
 2507W        W20711  11.728   9.184  11.479  0.3742 -0.0351 -0.1667
 2508W        W20712   5.613  12.431  14.681 -0.0975  0.1071  0.1553
 2509W        W20713   5.544  10.266  14.855  0.0196  0.4067 -0.0601
 2510W        W20714   9.853   6.511   3.991  0.1051 -0.3048  0.1090
 2511W        W20715  17.087   7.620   0.809  0.1204  0.0882  0.2065
 2512W        W20716   7.523  17.131   0.110 -0.1697  0.4445 -0.0156
 2513W        W20717  13.355   4.177  12.284 -0.0809  0.1441  0.2014
 2514W        W20718  16.234   9.530   4.149 -0.2348  0.0498 -0.2159
 2515W        W20719   8.831   5.207   1.352 -0.1444 -0.1263  0.2760
 2516W        W20720   3.389  11.922  11.743 -0.0765 -0.2483  0.4305
 2517W        W20721   4.724  17.045   3.549 -0.2511 -0.1848  0.1392
 2518W        W20722   0.338   1.305   4.768 -0.0259  0.1511 -0.1214
 2519W        W20723  13.125  11.037  14.366 -0.1741 -0.2750  0.0614
 2520W        W20724  17.570   9.270  13.320 -0.0639  0.0025 -0.1910
 2521W        W20725   9.396  16.526   2.952 -0.1867 -0.4338  0.1340
 2522W        W20726  13.334   7.462  11.444 -0.2272  0.1212  0.1092
 2523W        W20727  18.149   8.538   1.703 -0.1378  0.2644 -0.3043
 2524W        W20728  11.200   3.501  12.724 -0.2233 -0.2870 -0.0368
 2525W        W20729   0.455   4.733  11.016  0.1427 -0.4050 -0.2069
 2526W        W20730  11.748   9.383   0.981  0.1350  0.1531 -0.2182
 2527W        W20731   5.616   9.676   2.013 -0.3017  0.2879  0.1517
 2528W        W20732  11.031  14.946  13.230  0.0154  0.3171 -0.0623
 2529W        W20733   0.098   0.415   1.993 -0.1272 -0.1937 -0.0093
 2530W        W20734  17.626   0.018   1.114  0.0553 -0.3216  0.3645
 2531W        W20735  18.475  18.118   1.192 -0.3481 -0.0779 -0.0749
 2532W        W20736  14.430   2.252  13.217 -0.2645  0.2619 -0.1929
 2533W        W20737   4.802   2.852   3.685 -0.0993  0.1122 -0.0959
 2534W        W20738   3.731   6.242  14.398 -0.1473  0.0078 -0.0358
 2535W        W20739  18.456   3.134  13.993  0.0006  0.5020 -0.3407
 2536W        W20740  14.467   8.630  13.608  0.2336  0.1869 -0.2857
 2537W        W20741  13.266  12.156  12.766 -0.3767 -0.2161 -0.0090
 2538W        W20742   9.247  16.011   1.157 -0.1852 -0.1355 -0.0176
 2539W        W20743  12.037  11.254  13.347  0.0889 -0.0771  0.1906
 2540W        W20744  12.364   4.103  13.965 -0.0382  0.0400  0.1454
 2541W        W20745  17.929  16.827   2.374  0.1013 -0.3013 -0.2526
 2542W        W20746   3.614   3.147  12.598 -0.0998  0.2477  0.1560
 2543W        W20747   3.272  15.156   3.332 -0.1790 -0.2046 -0.0188
 2544W        W20748   5.738  13.792  10.659  0.3569 -0.1773  0.0240
 2545W        W20749   6.974  17.994  12.791  0.1460 -0.0286 -0.2609
 2546W        W20750   8.243   8.383   1.534 -0.3394  0.2254  0.5836
 2547W        W20751  12.769  10.659  14.385  0.3149  0.0499 -0.0215
 2548W        W20752   4.142  11.839   0.729 -0.2787 -0.2920 -0.0396
 2549W        W20753   0.212  17.288   2.125  0.0790 -0.1324 -0.1571
 2550W        W20754   1.244   1.864   3.522 -0.1216 -0.1956 -0.0786
 2551W        W20755  14.536   9.299  11.786  0.1988 -0.5084  0.1516
 2552W        W20756  13.527  10.774  12.203  0.1504 -0.3722  0.1684
 2553W        W20757  15.195   7.540   1.855  0.1053  0.3758 -0.1051
 2554W        W20758  13.779   5.633   4.371 -0.0793  0.3468 -0.0990
 2555W        W20759  15.810   6.151  12.530 -0.0388  0.0891 -0.0811
 2556W        W20760   6.517   8.138  12.967 -0.4219  0.2592  0.3075
 2557W        W20761   7.414   1.321   1.803 -0.0829  0.0667 -0.2270
 2558W        W20762   1.724   6.385  15.417  0.1676 -0.2373 -0.3653
 2559W        W20763   5.531  12.483  12.438 -0.1265 -0.1766 -0.0307
 2560W        W20764  17.574   1.289   2.539 -0.1199 -0.0639  0.3012
 2561W        W20765  10.649   5.334   0.855  0.1329  0.0761 -0.1453
 2562W        W20766   7.669  13.015  14.312  0.1170  0.0788 -0.1809
 2563W        W20767  12.425  11.769  12.331 -0.0022  0.0502 -0.0496
 2564W        W20768  17.711   8.143   5.137  0.0599 -0.0857 -0.0362
 2565W        W20769  17.046   6.814  13.361 -0.1730  0.0473  0.0291
 2566W        W20770   6.220   5.772  11.248 -0.0576 -0.1412 -0.0573
 2567W        W20771   7.465  10.157   2.200 -0.1229  0.3679  0.2153
 2568W        W20772  14.442   6.586   4.443 -0.0691 -0.3139 -0.0088
 2569W        W20773   3.059   0.859  12.996  0.0929  0.2869 -0.0487
 2570W        W20774   3.745  11.083   0.092  0.0889 -0.2471  0.2930
 2571W        W20775  10.001  16.521  12.873  0.4089  0.1192  0.0439
 2572W        W20776  16.176  14.781   2.894 -0.1317  0.2835  0.2593
 2573W        W20777   7.725   2.541  13.983  0.1383 -0.0640  0.3014
 2574W        W20778   1.409   9.552   1.492  0.1580  0.2491  0.2262
 2575W        W20779   3.628  16.933   0.552 -0.2333  0.2527  0.2646
 2576W        W20780  14.483  16.961   4.521 -0.3813  0.1862 -0.2732
 2577W        W20781  17.940   8.823  15.330  0.1290 -0.4904  0.0693
 2578W        W20782   4.448  15.199  13.296 -0.1408  0.0965 -0.2196
 2579W        W20783  11.138   3.267   0.755 -0.2039  0.4166  0.0104
 2580W        W20784   6.386   9.008   4.469 -0.3197 -0.1685  0.4075
 2581W        W20785   9.843  12.078   0.969 -0.0261 -0.1215 -0.0323
 2582W        W20786  10.880  12.479   1.377 -0.1774  0.1054  0.2832
 2583W        W20787  16.563   4.454  14.473  0.2253 -0.0307 -0.0290
 2584W        W20788  14.564   8.713   4.148 -0.1339 -0.3368 -0.1781
 2585W        W20789   7.930   8.054  14.123  0.0023  0.0208  0.2596
 2586W        W20790  16.739   2.831   0.122 -0.0106 -0.4099 -0.0742
 2587W        W20791  16.332   2.988   0.441 -0.0369  0.2235  0.0091
 2588W        W20792   3.498  11.437   3.429  0.0232  0.0074 -0.0974
 2589W        W20793  11.846   4.992   4.348  0.0336  0.0177 -0.0956
 2590W        W20794   5.371  17.352   1.175  0.1316 -0.0998  0.2339
 2591W        W20795  11.791   1.645   3.468 -0.2517  0.0690  0.2396
 2592W        W20796   4.941   6.956  12.360  0.0686  0.1073 -0.1096
 2593W        W20797  17.874  16.831  12.297  0.1147 -0.2892 -0.2485
 2594W        W20798   4.174  17.825   0.896  0.0447 -0.0644 -0.2148
 2595W        W20799  12.538   8.190  13.652 -0.1927 -0.0772 -0.2224
 2596W        W20800   5.954   2.760  13.779  0.0372  0.0457  0.2449
 2597W        W20801   6.574  16.841  15.331  0.0285  0.3766 -0.0008
 2598W        W20802  10.354  16.030  14.598 -0.0772 -0.1391 -0.0256
 2599W        W20803   6.577   8.901   1.441 -0.0978 -0.1444  0.3654
 2600W        W20804   0.791   7.026   2.130  0.0135 -0.2397 -0.1920
 2601W        W20805   5.797   9.843  14.767  0.0940 -0.1163 -0.2442
 2602W        W20806   8.874   3.551   5.108  0.0816  0.3245 -0.0391
 2603W        W20807  11.174   2.372   2.441  0.0466 -0.0535  0.0350
 2604W        W20808   8.628   8.489   2.427  0.3006  0.1439 -0.2555
 2605W        W20809   9.943  15.130   0.827  0.1875  0.0047  0.0711
 2606W        W20810  11.527   7.122  12.938  0.1179  0.1921  0.2672
 2607W        W20811   1.370   1.872  13.725  0.0784  0.1734 -0.2290
 2608W        W20812   2.869   6.200  13.279 -0.0601  0.3026  0.1325
 2609W        W20813  12.545  14.345   3.342 -0.1301  0.1874 -0.2156
 2610W        W20814  13.728  17.750  13.460  0.0252 -0.0353  0.1089
 2611W        W20815   0.639   2.695  11.081  0.2075  0.1867 -0.2294
 2612W        W20816  11.557   5.668   1.102  0.0931  0.0282 -0.3544
 2613W        W20817  12.051  14.422  10.855 -0.0295 -0.2419 -0.1941
 2614W        W20818  17.605  16.636  11.359  0.0968 -0.5518 -0.0642
 2615W        W20819   4.439   6.008   0.470 -0.2677  0.0992  0.0510
 2616W        W20820  14.540   7.249   2.671  0.2568  0.3172 -0.1130
 2617W        W20821  12.637   7.066   3.135 -0.0351 -0.3008 -0.4247
 2618W        W20822  17.379   1.576   3.087  0.0972  0.2422 -0.1498
 2619W        W20823   9.928  12.683   1.608  0.3688 -0.0825  0.0299
 2620W        W20824   8.282   6.005  15.137 -0.1225 -0.1818  0.1687
 2621W        W20825  18.646  11.196   1.903  0.2554 -0.3067 -0.2209
 2622W        W20826   0.719  14.332  15.130  0.0453  0.0541 -0.0231
 2623W        W20827   3.027   0.649  11.611  0.0445 -0.0466 -0.1212
 2624W        W20828  18.448  15.933   4.040 -0.0105 -0.2791 -0.1946
 2625W        W20829  10.720  11.474  14.383 -0.0815  0.1057 -0.1185
 2626W        W20830  14.995  16.205  11.305  0.0873  0.2231 -0.1498
 2627W        W20831   7.271  13.821   9.723  0.1474 -0.0181  0.3395
 2628W        W20832  16.772  13.083   1.157  0.0963  0.4543  0.3133
 2629W        W20833   0.350   2.033   4.020 -0.0606  0.2517  0.1102
 2630W        W20834  15.416  11.224   0.433 -0.2627  0.1223  0.0035
 2631W        W20835   9.834   9.420   2.594 -0.2400  0.0478  0.0336
 2632W        W20836  11.729  11.575  13.683  0.0261 -0.1271  0.0732
 2633W        W20837  12.457   5.269  14.232  0.2934  0.1034  0.0089
 2634W        W20838   7.287  11.760  13.901 -0.0492  0.3762  0.3002
 2635W        W20839   1.353   5.894  13.190 -0.0707  0.1344 -0.1987
 2636W        W20840  17.551   0.532   4.380 -0.2621  0.1047 -0.0606
 2637W        W20841  15.586   1.634   3.888 -0.1450  0.0644  0.1110
 2638W        W20842   0.565  17.462  12.377  0.0664  0.5193 -0.1427
 2639W        W20843  10.877  17.986   4.830  0.2975  0.2153  0.0182
 2640W        W20844  13.290   1.928  14.032 -0.0298 -0.2626  0.3020
 2641W        W20845  12.078  11.318  13.932 -0.1863 -0.1589 -0.2801
 2642W        W20846  16.924   9.318   5.046 -0.0233  0.1196  0.1146
 2643W        W20847  15.146   8.733   0.106  0.0175 -0.0107  0.0239
 2644W        W20848  16.964   1.572   2.068  0.1592 -0.1543  0.0183
 2645W        W20849   8.555   5.539  13.030 -0.1493 -0.2829  0.0333
 2646W        W20850   8.239  10.717   1.391  0.1115 -0.2048  0.0215
 2647W        W20851  18.172   7.389  14.766  0.2405  0.2013  0.0808
 2648W        W20852   0.330  14.316   2.425  0.2852 -0.1172  0.0130
 2649W        W20853   3.921  18.677  11.486  0.0178 -0.0583 -0.2015
 2650W        W20854   7.507  16.700  12.835  0.0430 -0.1077  0.1022
 2651W        W20855   7.265  15.897   1.382  0.1317  0.0839  0.0738
 2652W        W20856   4.339  16.950  11.347 -0.0934 -0.0703 -0.1591
 2653W        W20857   2.235  10.452   2.294 -0.0287 -0.0912  0.1166
 2654W        W20858  18.564   0.925  13.690  0.0222 -0.0951  0.1635
 2655W        W20859   4.335  10.524   1.879  0.4231 -0.1193  0.3645
 2656W        W20860   7.493   6.519   0.943  0.1491  0.1902  0.2012
 2657W        W20861  12.863   1.889   0.543 -0.1004 -0.0896 -0.1343
 2658W        W20862   7.696   5.482   1.981  0.1145  0.1320  0.1388
 2659W        W20863  10.961   7.230  12.080  0.1635 -0.2604  0.1482
 2660W        W20864   5.456   2.227   2.022  0.2096  0.3077 -0.0869
 2661W        W20865   7.679  10.978  12.403  0.1845 -0.0803 -0.1264
 2662W        W20866   2.539   1.390  12.872  0.0700 -0.2029 -0.2345
 2663W        W20867  18.374   2.496   0.233 -0.0812  0.0340  0.0480
 2664W        W20868   2.954  11.327   1.065  0.0119  0.1898  0.1623
 2665W        W20869   8.484   9.349   2.662 -0.0431 -0.0343  0.1140
 2666W        W20870  18.177  14.014  14.217  0.1731 -0.0656 -0.0796
 2667W        W20871  18.281  11.655   0.898 -0.5290  0.2744 -0.2191
 2668W        W20872  18.542   9.896  13.638  0.1282 -0.2373 -0.3447
 2669W        W20873   3.166  18.608   1.419  0.0383  0.0829 -0.0448
 2670W        W20874  11.624   1.618  11.216 -0.2468 -0.0522  0.2481
 2671W        W20875  18.458  12.586  15.246  0.1181 -0.0813 -0.0543
 2672W        W20876  17.669  12.126  12.386  0.2211  0.0665  0.2341
 2673W        W20877   6.644   4.343   5.594  0.0321 -0.1003  0.1436
 2674W        W20878   4.518   9.902  12.077  0.2888 -0.1474 -0.1300
 2675W        W20879  14.644  17.126  14.239  0.0426 -0.3149  0.2038
 2676W        W20880  17.513   2.834  14.533  0.1227 -0.4458  0.1872
 2677W        W20881  15.125   7.815   4.030 -0.0243 -0.0903  0.2461
 2678W        W20882   6.109   8.496   0.273  0.1048 -0.2118 -0.1557
 2679W        W20883   0.380   3.061   0.913 -0.0448 -0.0409  0.2453
 2680W        W20884  18.660   4.975   3.287 -0.0197 -0.1558  0.2631
 2681W        W20885  14.852   8.805  14.549  0.0463  0.3844 -0.1037
 2682W        W20886  12.000  14.198   1.603  0.3858  0.0693 -0.0053
 2683W        W20887  15.017  16.564   0.782  0.1367 -0.0708  0.1354
 2684W        W20888  16.838   8.104   0.874 -0.0784  0.2054 -0.0792
 2685W        W20889   7.688   4.717  11.954  0.0859 -0.0217  0.0438
 2686W        W20890   5.812   1.645   0.181  0.0488  0.2621 -0.0409
 2687W        W20891   6.859   5.265  12.557 -0.2080 -0.4389  0.0373
 2688W        W20892  10.057  11.033  12.133 -0.0323 -0.0464 -0.0004
 2689W        W20893  15.850   8.174  15.247  0.1829 -0.1331 -0.2473
 2690W        W20894  13.777   6.219   0.983 -0.0604  0.3163 -0.4176
 2691W        W20895   3.571   4.644  12.219 -0.1097 -0.3704 -0.1978
 2692W        W20896   7.287  10.147  12.796 -0.2376  0.2319  0.1676
 2693W        W20897  10.126   5.831   9.779  0.2612 -0.0567 -0.0802
 2694W        W20898  16.648   8.326   2.300 -0.0477  0.2587  0.1074
 2695W        W20899   8.083   9.210  13.354  0.3307 -0.2394 -0.0484
 2696W        W20900   5.736   0.958  12.023  0.1233  0.3188 -0.3342
 2697W        W20901  14.189   1.070  14.658 -0.3018  0.0411  0.0804
 2698W        W20902  17.399  12.423  11.488 -0.0319  0.1261 -0.0151
 2699W        W20903   1.512   2.819   3.704  0.2288 -0.1038  0.2277
 2700W        W20904   2.382   9.166   2.577 -0.2889  0.0624  0.0321
 2701W        W20905  17.872   7.478   1.071 -0.2156  0.1578 -0.3935
 2702W        W20906   2.657   5.915  15.266  0.1040 -0.0765  0.1821
 2703W        W20907  12.252   1.353   2.267  0.0520  0.1396 -0.1322
 2704W        W20908  10.036   2.440   3.859  0.2311  0.0941  0.2045
 2705W        W20909  13.522   0.244  13.045  0.1447 -0.1238 -0.1735
 2706W        W20910  11.682  18.530   1.764 -0.0122  0.0832  0.0259
 2707W        W20911  13.748   7.561  14.314 -0.2051 -0.4628 -0.0017
 2708W        W20912   1.794   0.228  11.078 -0.0446  0.1142  0.0765
 2709W        W20913  18.381   2.905  13.281  0.2453  0.0599 -0.1158
 2710W        W20914  11.540  17.447   4.151  0.1031  0.0183 -0.1280
 2711W        W20915   3.883   8.337   2.340 -0.0438  0.1646  0.1885
 2712W        W20916  15.947  15.038   4.518  0.0777 -0.0831  0.1670
 2713W        W20917  12.308   2.745  14.329 -0.0188 -0.0208 -0.0471
 2714W        W20918   1.456   2.805   0.719  0.1679  0.1521  0.2889
 2715W        W20919  11.536   1.428  11.860 -0.0556  0.2035 -0.0559
 2716W        W20920   9.610   3.485  13.577 -0.2825  0.0490  0.1017
 2717W        W20921  18.170  13.959  12.204 -0.0542  0.1038  0.0617
 2718W        W20922   8.586  10.385   0.075 -0.2630  0.0449 -0.2022
 2719W        W20923  17.845  14.195   0.700 -0.0238  0.0605 -0.1843
 2720W        W20924  17.991   6.435   4.331 -0.2825 -0.2306 -0.0512
 2721W        W20925  12.122   8.877  15.046  0.0976 -0.1786 -0.1759
 2722W        W20926  10.685  15.948  13.609  0.0351  0.0163 -0.1235
 2723W        W20927   4.695  14.715   3.890 -0.0925  0.0648  0.2613
 2724W        W20928   4.718   1.403   0.393  0.1060 -0.3148 -0.1437
 2725W        W20929   9.407   9.436  13.215 -0.0138  0.0041 -0.1838
 2726W        W20930  10.602  11.006  14.304  0.2428 -0.2179 -0.1819
 2727W        W20931   9.877  18.057   4.032  0.0033 -0.0270 -0.4228
 2728W        W20932  17.190   1.548  12.069  0.2301  0.0287 -0.0742
 2729W        W20933   8.554   6.281  12.385  0.2608 -0.3067 -0.3373
 2730W        W20934   8.705  18.053   0.072 -0.3975  0.2987 -0.2426
 2731W        W20935   6.959  18.307   0.571  0.2304  0.1015 -0.3001
 2732W        W20936  14.964   1.341   1.676  0.1286 -0.0741 -0.2406
 2733W        W20937  14.722   5.512   0.559 -0.0513 -0.2012 -0.2158
 2734W        W20938   8.526  13.227  10.606  0.0214  0.0702 -0.1469
 2735W        W20939   1.089   7.011  14.778 -0.3850  0.1430  0.0427
 2736W        W20940  18.410   2.443  11.049 -0.2480  0.3355  0.0109
 2737W        W20941  17.413   2.520   1.061 -0.1496  0.1042  0.3177
 2738W        W20942   2.324  18.057  10.126  0.0357  0.1238 -0.0682
 2739W        W20943  12.137  12.594  12.380 -0.2074  0.1761 -0.0840
 2740W        W20944   1.451   0.963   1.413  0.2122  0.0311  0.1571
 2741W        W20945   9.555  14.900   5.634  0.0412  0.0722 -0.3212
 2742W        W20946   0.628   0.516   2.677 -0.0978  0.1820 -0.0001
 2743W        W20947   3.000  15.046  12.551  0.2090  0.0354  0.0130
 2744W        W20948   5.381  16.614   1.996 -0.2430  0.1294  0.2223
 2745W        W20949   4.676  17.168   1.995 -0.5500 -0.0173 -0.0547
 2746W        W20950  10.250   2.670   2.778  0.1234 -0.1059 -0.2672
 2747W        W20951   2.287   2.500  13.902  0.0718  0.1354  0.0657
 2748W        W20952   5.591   2.472   2.853  0.0655  0.0053 -0.2926
 2749W        W20953   6.930  10.447   1.994  0.1472  0.3330 -0.2581
 2750W        W20954  15.645  11.361   1.857  0.0688  0.4251 -0.2683
 2751W        W20955  12.881   1.071   2.952  0.1254  0.0506  0.0089
 2752W        W20956   0.897  13.046  12.405  0.0651 -0.0179 -0.1146
 2753W        W20957   7.798  17.710  15.078 -0.0245  0.0174  0.0773
 2754W        W20958  15.505  14.814   4.624  0.0550 -0.1334  0.0847
 2755W        W20959  13.914  13.995  12.963 -0.2233 -0.1882  0.1968
 2756W        W20960   7.425  17.379  11.549  0.0067 -0.1836 -0.3410
 2757W        W20961   3.737   5.847   2.614 -0.0340  0.1926 -0.1121
 2758W        W20962  15.090  13.184  11.362 -0.0524  0.4148 -0.0230
 2759W        W20963  11.245   4.065  14.899 -0.0107 -0.1620  0.1586
 2760W        W20964   5.682   2.576  11.766 -0.0706 -0.0387 -0.2139
 2761W        W20965   5.773  10.302   0.759  0.1822  0.2225  0.0638
 2762W        W20966   4.869  14.718   3.012  0.3470 -0.1742  0.2450
 2763W        W20967  14.578   0.323  11.745 -0.1415  0.0051 -0.4099
 2764W        W20968   9.284  13.050  12.745  0.2115  0.2241 -0.2962
 2765W        W20969  12.008  13.974  13.458  0.1307  0.1738  0.2165
 2766W        W20970   9.327   2.235  12.760 -0.0164  0.0813 -0.1095
 2767W        W20971   6.680   8.961   0.911 -0.0814 -0.3386 -0.0936
 2768W        W20972  10.512   5.340  15.433 -0.1728  0.1521  0.1375
 2769W        W20973   5.765   0.354  11.477  0.5489  0.0695  0.1680
 2770W        W20974   3.107   0.396   1.211  0.1748 -0.1482  0.0771
 2771W        W20975  10.489   5.500   1.323 -0.0587  0.1921 -0.0527
 2772W        W20976   1.853  13.188   2.394 -0.2649  0.1398  0.1530
 2773W        W20977   0.897   3.075  13.915 -0.0855 -0.1114  0.2023
 2774W        W20978  11.283  11.005   4.339  0.0237 -0.0690  0.2490
 2775W        W20979   0.134   5.014   1.765 -0.0379 -0.1545  0.1096
 2776W        W20980  14.825   8.985   0.446  0.3436  0.2335 -0.1107
 2777W        W20981  17.669   0.418   3.378 -0.1235  0.1491 -0.1408
 2778W        W20982   1.311   6.618   0.162 -0.0483  0.1579  0.1420
 2779W        W20983  15.403   8.233   2.542 -0.0386  0.2619  0.4532
 2780W        W20984   1.012  15.290  11.609  0.0307  0.0207  0.1340
 2781W        W20985   2.294   4.140  14.803 -0.4768  0.2608  0.0145
 2782W        W20986  17.225   3.516   3.620  0.1183 -0.1129  0.2887
 2783W        W20987   4.834  16.138   2.559  0.2515  0.0823 -0.3977
 2784W        W20988   4.264  17.333  12.781 -0.1384  0.1042  0.1057
 2785W        W20989   4.758   9.778  11.619  0.0727 -0.1993 -0.0179
 2786W        W20990   9.431  13.830  12.477 -0.2726  0.1239  0.0999
 2787W        W20991   7.137   1.363   3.617  0.0143 -0.2419  0.1607
 2788W        W20992   8.021   0.028  11.606  0.1235  0.4683  0.0378
 2789W        W20993   8.282  14.204  11.099 -0.0367  0.1388  0.3493
 2790W        W20994   2.118  12.492  14.753 -0.0258  0.0880  0.1315
 2791W        W20995   5.613   6.229  13.300  0.0194  0.0500  0.0554
 2792W        W20996   1.218   5.015   0.884  0.0278  0.0156 -0.1041
 2793W        W20997  12.130   8.823  11.479  0.0453  0.0582 -0.3623
 2794W        W20998  16.912   8.405   4.918  0.1748  0.3098 -0.1046
 2795W        W20999  12.554  11.901   0.169 -0.0471 -0.0905 -0.0974
 2796W        W21000  11.206   5.331  13.069  0.0919 -0.0037  0.0160
 2797W        W21001  16.606  14.624   4.228 -0.1952  0.0846  0.0275
 2798W        W21002  11.695  14.236   3.733 -0.1077 -0.2763 -0.1764
 2799W        W21003  17.082   1.769   4.408 -0.2389  0.1809 -0.2025
 2800W        W21004  10.292   0.609   0.224 -0.2769  0.6102 -0.1189
 2801W        W21005   1.601  11.653  13.469  0.1979  0.2599 -0.0829
 2802W        W21006  13.724  12.920   3.543 -0.1575  0.1290  0.1788
 2803W        W21007   9.156   3.740  11.650 -0.2637  0.6456  0.0671
 2804W        W21008  13.036   8.452  13.462  0.2670 -0.1189  0.1648
 2805W        W21009  18.560   7.836   3.721  0.0044  0.0110 -0.0772
 2806W        W21010  17.946  11.804   3.334  0.0092  0.2015  0.0671
 2807W        W21011   9.255  15.948  12.199  0.0721 -0.2381 -0.1435
 2808W        W21012   6.587   9.712  15.150  0.0701 -0.1219  0.1201
 2809W        W21013   5.223   4.399   3.743  0.1354 -0.0035  0.1715
 2810W        W21014  11.657   7.972  13.225 -0.0653  0.0099  0.0334
 2811W        W21015   0.363  17.072   0.018  0.0313  0.1605 -0.0230
 2812W        W21016   1.996   3.856  13.389 -0.0786 -0.0546  0.2136
 2813W        W21017  16.498   8.046   3.694 -0.0136  0.0145  0.0892
 2814W        W21018   1.550   9.047   2.165  0.0448 -0.2348 -0.3460
 2815W        W21019   1.150   7.906   0.653 -0.2872  0.0321  0.0324
 2816W        W21020  10.459   8.345   3.944 -0.0624 -0.0060 -0.1420
 2817W        W21021   2.943   2.177  13.381 -0.0012  0.1855  0.3352
 2818W        W21022  13.289   2.208  13.656 -0.3729 -0.1539 -0.0929
 2819W        W21023  15.296   2.383   2.580 -0.1690 -0.0038  0.0858
 2820W        W21024   7.000   1.653  15.006 -0.0346  0.2729 -0.0015
 2821W        W21025   1.010   2.887   1.098 -0.0081 -0.2474  0.0066
 2822W        W21026  16.986  10.695   4.146  0.1518  0.2365 -0.0651
 2823W        W21027   8.821   4.927   4.056 -0.0942 -0.0407  0.0873
 2824W        W21028  10.849  10.065   1.916 -0.1844  0.2491 -0.0516
 2825W        W21029   2.677   6.664  10.996 -0.2148 -0.0597 -0.0302
 2826W        W21030   8.072  13.901   3.236  0.0626  0.3215 -0.4661
 2827W        W21031   3.812  15.752  11.753 -0.1295  0.3706 -0.2180
 2828W        W21032   0.682  10.180  11.591 -0.0523  0.0269 -0.4776
 2829W        W21033   9.430  14.173  11.950 -0.1698  0.1224 -0.1868
 2830W        W21034   2.849   7.634   1.677 -0.0360  0.2737 -0.3731
 2831W        W21035  12.703  17.910   2.959  0.1541  0.3110  0.2753
 2832W        W21036  11.212   5.869  11.385 -0.1172  0.0253  0.3172
 2833W        W21037  12.976  14.262   3.764 -0.0743 -0.0203  0.1564
 2834W        W21038  14.566   7.541   0.615 -0.2970  0.1872 -0.1027
 2835W        W21039   1.771   9.191   1.757 -0.0857 -0.3007 -0.1891
 2836W        W21040   3.096   2.734   1.949  0.2753 -0.0117  0.1360
 2837W        W21041   6.581   5.340   4.687 -0.1070 -0.0339  0.1193
 2838W        W21042   5.586  10.554   0.330 -0.1055 -0.0508 -0.2456
 2839W        W21043  16.660  10.342  10.581 -0.2185 -0.1847 -0.0948
 2840W        W21044   9.383   1.621  11.317  0.3277 -0.1489 -0.0487
 2841W        W21045  14.216   1.155   3.537  0.1377 -0.3568 -0.0892
 2842W        W21046   1.118   3.116  12.149  0.1207  0.1235  0.0890
 2843W        W21047   6.305   1.908  12.455  0.0510 -0.1323  0.2468
 2844W        W21048   1.874   6.334   2.922  0.0649 -0.3251 -0.1572
 2845W        W21049   4.586  15.688   2.349  0.3326 -0.0813 -0.1345
 2846W        W21050  14.792   7.087  11.433 -0.1511 -0.0637 -0.0293
 2847W        W21051   7.753   3.982   1.239 -0.4756 -0.3969  0.1862
 2848W        W21052  13.075  14.280  14.304 -0.0412 -0.1679  0.3890
 2849W        W21053  12.088  13.226  11.188  0.0883 -0.0465 -0.1001
 2850W        W21054  17.751   5.737  14.424  0.2374 -0.3438  0.0868
 2851W        W21055   7.756   8.586  10.446 -0.1326  0.2434 -0.1590
 2852W        W21056   4.027   4.891   2.965 -0.0643 -0.2638 -0.1704
 2853W        W21057  15.915  11.946  14.294 -0.0897  0.1782 -0.0033
 2854W        W21058   4.843  16.895   0.422 -0.2211 -0.1346 -0.0571
 2855W        W21059  10.475  12.659  14.294 -0.1542  0.0254  0.0737
 2856W        W21060  15.438  15.318   1.213  0.3058 -0.1856 -0.0443
 2857W        W21061   5.670  10.169  12.062 -0.2871  0.1581 -0.0061
 2858W        W21062  14.909   5.778  10.816 -0.1083 -0.0697  0.0076
 2859W        W21063  15.503   0.174   0.433 -0.1689 -0.1416 -0.1189
 2860W        W21064  12.046  14.563  11.423  0.1902  0.2755 -0.2641
 2861W        W21065  13.165   7.060   4.673  0.0844  0.2958  0.0823
 2862W        W21066  17.770  17.713   4.762 -0.1610 -0.0572 -0.1742
 2863W        W21067  13.875   1.053  12.752 -0.1938  0.3215  0.1064
 2864W        W21068  11.637   0.994  15.170  0.2601  0.1201  0.3249
 2865W        W21069   7.799  10.770  11.950 -0.3372 -0.0234 -0.0498
 2866W        W21070  12.467   2.508   2.555  0.2692  0.0267  0.0634
 2867W        W21071   2.811  17.565  15.377  0.0592 -0.0618  0.0719
 2868W        W21072  10.074  12.771   3.152  0.1399  0.1436 -0.1086
 2869W        W21073   6.464   6.141   5.080 -0.2759  0.2529 -0.0535
 2870W        W21074  16.136  10.251  12.266  0.1541  0.3729  0.1195
 2871W        W21075   4.441  18.385  13.604 -0.0467 -0.0835 -0.0570
 2872W        W21076   3.710   9.576   2.817 -0.2920  0.1027 -0.4456
 2873W        W21077  11.524   5.978  15.361  0.0704 -0.0199 -0.1464
 2874W        W21078   9.513   9.212   1.690  0.0159  0.0425 -0.1005
 2875W        W21079  12.139   0.595  12.826  0.1970 -0.1047  0.3667
 2876W        W21080   0.048  11.253  13.022 -0.1286 -0.0457  0.0303
 2877W        W21081   7.792  14.676   2.135  0.2983 -0.0669  0.3461
 2878W        W21082  12.087   7.169  11.460 -0.0523 -0.1661 -0.0088
 2879W        W21083  11.868   3.863  13.953 -0.0725  0.0664  0.1825
 2880W        W21084  11.292   1.652   3.443  0.3088 -0.0099  0.2767
 2881W        W21085  14.396   0.387   2.039  0.0007 -0.0888 -0.1025
 2882W        W21086  12.443  10.693   0.221 -0.4570  0.1567 -0.1396
 2883W        W21087  17.252  10.920  13.723  0.2666 -0.0103 -0.2306
 2884W        W21088   4.211   4.026   2.886 -0.1500  0.3605  0.1749
 2885W        W21089  11.135   1.580   4.010 -0.2914  0.2459  0.0069
 2886W        W21090   3.729  13.280  14.908  0.5429  0.2128  0.1842
 2887W        W21091   9.655  14.879   3.032 -0.1282 -0.1081  0.1292
 2888W        W21092   2.476   8.108   4.431 -0.2539 -0.1921  0.1387
 2889W        W21093   2.603  10.234   4.345  0.1305  0.4616  0.1659
 2890W        W21094   9.798   5.008   2.940 -0.0288 -0.2831  0.1345
 2891W        W21095   0.478  18.371  12.659 -0.3554 -0.1374 -0.0847
 2892W        W21096  15.598   4.676   1.719 -0.2715 -0.1910  0.1639
 2893W        W21097   8.944  16.323  12.594 -0.1905 -0.0848  0.3832
 2894W        W21098   6.034   1.530   4.368 -0.0926 -0.0076 -0.0665
 2895W        W21099   6.636  13.114   1.942 -0.0099  0.5329 -0.2003
 2896W        W21100   8.672  17.363  13.068 -0.0404  0.2270 -0.0867
 2897W        W21101   3.869   3.138   2.239  0.0779 -0.3000  0.2374
 2898W        W21102   5.878   1.549  12.571 -0.0340 -0.0362  0.0459
 2899W        W21103   1.083  15.066   1.353 -0.0209 -0.0155 -0.2626
 2900W        W21104   5.499  16.242  14.457 -0.2324 -0.1517  0.0731
 2901W        W21105  10.399  12.120  11.755  0.0809 -0.1927 -0.2906
 2902W        W21106   8.595   3.306   3.713 -0.2663 -0.0641 -0.0959
 2903W        W21107   7.806  14.373   3.418 -0.0036  0.0224 -0.4185
 2904W        W21108   7.965   7.308   0.089  0.2428 -0.1252  0.3722
 2905W        W21109   4.703  11.209  14.611 -0.0085  0.0514 -0.0858
 2906W        W21110  10.798   8.036   4.855 -0.1322 -0.1948  0.1426
 2907W        W21111  18.174  10.212   4.236 -0.2600  0.1735 -0.3332
 2908W        W21112   6.988   6.695   0.891  0.0206  0.0838  0.1086
 2909W        W21113   6.154   9.003  11.970  0.0659 -0.4363 -0.1471
 2910W        W21114  12.603   2.614   4.003 -0.0378 -0.0917  0.2522
 2911W        W21115   8.783  15.978   2.959 -0.1534  0.2365 -0.1339
 2912W        W21116   6.738   8.509  13.286  0.1466  0.0051 -0.0612
 2913W        W21117   7.118  15.682   0.329  0.3547  0.1222 -0.2315
 2914W        W21118   3.094  17.682  14.851 -0.0711 -0.0754  0.3237
 2915W        W21119   8.119  11.543  12.992  0.1134 -0.1872 -0.2412
 2916W        W21120   1.977  10.253  12.970 -0.0023 -0.2338 -0.1101
 2917W        W21121   0.994   4.239   1.331 -0.5503 -0.0341  0.0780
 2918W        W21122  13.149   7.987  14.787  0.4105 -0.0508  0.1814
 2919W        W21123   0.237   7.951   5.666  0.1382 -0.1281 -0.0528
 2920W        W21124  16.807  15.265   1.593  0.3086  0.1868 -0.2213
 2921W        W21125  17.418   6.203   1.302 -0.2268 -0.0343  0.1062
 2922W        W21126  14.969  14.567   1.252  0.2239 -0.0029 -0.0021
 2923W        W21127  10.046   1.146   2.983 -0.2450  0.3561 -0.0676
 2924W        W21128  12.788  15.295  14.972 -0.1264  0.2627 -0.1762
 2925W        W21129   5.609   4.174   3.508 -0.3784  0.0835 -0.0247
 2926W        W21130  12.454   2.089  10.686  0.3384  0.1849 -0.0150
 2927W        W21131  11.638   6.869   5.262 -0.4219  0.0843 -0.0248
 2928W        W21132   9.206  11.476   2.735 -0.2002  0.3890  0.1518
 2929W        W21133   9.665  16.414   0.397 -0.0929 -0.2319  0.0664
 2930W        W21134  11.852   7.367  13.907 -0.1995  0.3472 -0.2431
 2931W        W21135  16.338   0.922  11.036 -0.0020  0.0962 -0.4059
 2932W        W21136   9.498  15.959   0.217 -0.0968  0.0046 -0.0558
 2933W        W21137   0.379   6.834  15.368  0.0711 -0.1297 -0.1275
 2934W        W21138   7.978   2.068  13.341  0.1209 -0.0757 -0.1166
 2935W        W21139  14.691  14.418   1.647 -0.1819 -0.1580  0.1021
 2936W        W21140   3.088   2.042   4.921  0.3035 -0.1577  0.0997
 2937W        W21141   6.718   5.353   0.441  0.1266 -0.0733 -0.1235
 2938W        W21142  15.526  15.059   2.580  0.4481  0.2081 -0.0487
 2939W        W21143   3.030  16.795  13.481  0.1632 -0.0325 -0.2936
 2940W        W21144  12.446   2.281  13.037 -0.0047  0.0781 -0.2015
 2941W        W21145  16.560   4.138   2.714  0.1447 -0.4675  0.0344
 2942W        W21146  18.429  18.349  12.191 -0.2826 -0.0260  0.1527
 2943W        W21147   5.043  15.226  13.415  0.0659  0.2483  0.2811
 2944W        W21148  17.200   3.328  11.559  0.0738 -0.0678 -0.0924
 2945W        W21149  15.189  13.377   0.721 -0.1322  0.3628  0.2000
 2946W        W21150  14.427   7.434  11.720  0.1062 -0.1342 -0.0898
 2947W        W21151  16.973  13.607  13.398  0.0654  0.0231  0.0526
 2948W        W21152  15.714   0.836   3.414  0.2090 -0.0275  0.1638
 2949W        W21153  18.090  14.396  11.571  0.2340 -0.1599 -0.0618
 2950W        W21154   9.049  16.119  11.233 -0.0570  0.0640  0.3850
 2951W        W21155   8.733   6.617  12.677 -0.0073  0.0276 -0.1534
 2952W        W21156   8.575   3.328  10.636 -0.1240  0.2353 -0.1177
 2953W        W21157  13.392  10.033  14.648 -0.1680 -0.3008 -0.0682
 2954W        W21158  10.505   2.466  14.690  0.0967  0.0849 -0.2347
 2955W        W21159  13.766   1.946  11.651 -0.1414 -0.0482  0.2698
 2956W        W21160  13.507  12.454  14.573  0.2757  0.1787 -0.3089
 2957W        W21161   7.631   8.578  13.017 -0.1041  0.0875  0.0480
 2958W        W21162   0.175   7.792  10.878 -0.0605  0.1213 -0.1888
 2959W        W21163  15.183  14.370  12.427 -0.1644 -0.1551  0.1562
 2960W        W21164   6.262  16.418  11.730  0.1322  0.2434  0.1359
 2961W        W21165  11.015  13.556   3.861 -0.1417 -0.2095 -0.2781
 2962W        W21166   5.715  16.711   3.366 -0.3592 -0.0764  0.0305
 2963W        W21167   8.508  13.690  10.936 -0.1952  0.0499 -0.1739
 2964W        W21168  10.301  13.174  10.411  0.5351  0.1901  0.2207
 2965W        W21169   7.990  10.762   4.109 -0.1702 -0.2751 -0.0736
 2966W        W21170  14.545   3.057   4.117  0.3500  0.2378 -0.1039
 2967W        W21171   5.359  14.963   2.956 -0.0810  0.0419  0.1038
 2968W        W21172   0.165   8.596   3.451  0.0792  0.0531  0.0936
 2969W        W21173  15.423  18.068  12.108 -0.2534 -0.0820 -0.4143
 2970W        W21174   5.835  17.041   2.761 -0.0382  0.0433 -0.0884
 2971W        W21175   9.195  18.041   2.862  0.1713  0.4699  0.1921
 2972W        W21176   2.037   3.240  15.005  0.0283 -0.0027 -0.0394
 2973W        W21177   7.715  15.978   0.965  0.1568 -0.1826 -0.0232
 2974W        W21178  15.237   7.602   3.227  0.1517  0.0506  0.0233
 2975W        W21179   1.064  17.846  13.803  0.1385 -0.0581  0.0456
 2976W        W21180  18.631  14.279  13.928 -0.2274 -0.0087  0.0593
 2977W        W21181  10.243   7.295  13.973 -0.4943 -0.2376  0.1279
 2978W        W21182  18.307   1.923  12.317  0.1874 -0.1584  0.0104
 2979W        W21183  17.908  13.552  12.546  0.0451 -0.2480 -0.1176
 2980W        W21184  16.148  12.756  11.425 -0.2124  0.0252 -0.0202
 2981W        W21185  11.326  14.306  11.907 -0.0366  0.0995  0.3369
 2982W        W21186  15.287   6.570  11.829 -0.0942 -0.1281  0.2977
 2983W        W21187   3.249   7.244  13.014  0.0541  0.2113 -0.1317
 2984W        W21188  11.184   2.299   0.724 -0.0839  0.3961 -0.0977
 2985W        W21189  15.248  17.344  14.341 -0.0160  0.1729 -0.0987
 2986W        W21190   1.254  17.376   0.701 -0.0826 -0.2283  0.0955
 2987W        W21191   8.396  16.395  12.327  0.0557 -0.1098  0.0849
 2988W        W21192  11.583  13.100  12.494 -0.0376  0.0767 -0.0220
 2989W        W21193  10.192  18.476   0.794 -0.0386  0.0901  0.0394
 2990W        W21194  13.177  11.828  11.905 -0.2796 -0.0452 -0.0517
 2991W        W21195  18.574  13.290  14.556 -0.0147 -0.0717 -0.1511
 2992W        W21196  15.251  16.162   2.758  0.2174 -0.0451  0.0397
 2993W        W21197  14.346  16.811  12.720 -0.1517  0.0870  0.1505
 2994W        W21198   7.219   6.138  11.888  0.0915 -0.0448  0.2490
 2995W        W21199   2.903  17.829   2.065 -0.1702 -0.0932 -0.4043
 2996W        W21200   4.957  12.761  13.951  0.1621 -0.2580  0.2748
 2997W        W21201  11.720   8.115  14.642 -0.0137  0.1525 -0.0856
 2998W        W21202   4.711   5.137   2.299  0.1329 -0.3475  0.2581
 2999W        W21203  10.290  11.151   0.853  0.2119 -0.1973  0.2057
 3000W        W21204   9.821   0.240  10.664  0.3091  0.0497  0.5505
 3001W        W21205   6.229   5.113  12.638 -0.0757  0.1639 -0.2863
 3002W        W21206   9.095  15.650   3.210  0.3955  0.1456 -0.0748
 3003W        W21207   8.181  16.727   4.698 -0.1770 -0.0537  0.3408
 3004W        W21208   7.346  12.150   0.360  0.1555 -0.1918 -0.0395
 3005W        W21209  15.772   7.313  14.811 -0.3017  0.2237  0.1045
 3006W        W21210   2.175   9.145  11.715  0.0271  0.3991  0.3113
 3007W        W21211   1.336  13.807   2.696  0.0925 -0.0880  0.0871
 3008W        W21212   3.799   6.817   0.480 -0.0208  0.1456 -0.2710
 3009W        W21213   4.765  17.488  11.902 -0.1135 -0.2129 -0.0690
 3010W        W21214   1.614   7.475   2.584  0.0968  0.1515  0.1501
 3011W        W21215   7.493   3.719   1.637  0.0762  0.0973  0.0999
 3012W        W21216  18.620   5.292  15.306 -0.0013  0.0018  0.0626
 3013W        W21217  13.490   8.542   0.924 -0.2286 -0.0257 -0.2255
 3014W        W21218  11.681  11.353   1.153  0.3442  0.0033 -0.1533
 3015W        W21219  18.184   6.715   3.265 -0.0218  0.2748  0.0478
 3016W        W21220   2.173   5.877  10.956 -0.4046 -0.0090  0.4797
 3017W        W21221   3.230   8.764   2.863 -0.0621  0.3256  0.0248
 3018W        W21222  18.444   9.496   1.283  0.1493  0.1476 -0.0036
 3019W        W21223  10.843  17.943  11.777  0.2733 -0.2160 -0.0251
 3020W        W21224   1.865   4.946   1.630 -0.2023 -0.1405  0.1438
 3021W        W21225   7.394  13.190   3.453 -0.0874  0.1189 -0.1834
 3022W        W21226  13.878  16.346  13.996  0.0020 -0.0277  0.0789
 3023W        W21227   4.042  18.340  13.274  0.2655  0.1270  0.0979
 3024W        W21228   2.338  11.622  14.688  0.0150 -0.0576 -0.0195
 3025W        W21229   5.351   7.263  12.439 -0.0286  0.2535 -0.0322
 3026W        W21230   8.456  12.995  11.578  0.0210 -0.1396 -0.1111
 3027W        W21231   8.695   2.442   0.112 -0.0700  0.2158 -0.0395
 3028W        W21232   4.280   8.905   4.376  0.2917  0.0837 -0.1543
 3029W        W21233  12.603   2.864   3.540 -0.2694  0.0971 -0.3553
 3030W        W21234  18.256  11.522  13.205  0.0595  0.1899 -0.1080
 3031W        W21235  12.285  15.415  11.412  0.1010  0.1283 -0.1143
 3032W        W21236  15.326   2.685  13.746 -0.5587  0.3272 -0.0397
 3033W        W21237   2.072   0.177   4.175  0.3038  0.3889 -0.1726
 3034W        W21238   3.390  14.330   1.422 -0.0529 -0.1333 -0.1198
 3035W        W21239   8.000  13.614  14.738 -0.0951 -0.1246  0.3418
 3036W        W21240   1.548  18.086  14.426  0.0985 -0.1693  0.0901
 3037W        W21241   8.933   1.122   0.433 -0.0487 -0.1778 -0.1261
 3038W        W21242   8.190   8.426  13.697  0.2194  0.0676 -0.2488
 3039W        W21243   1.403   1.482   1.697 -0.1319  0.0415 -0.2441
 3040W        W21244   1.976   5.846   1.020  0.1163 -0.3918 -0.0108
 3041W        W21245  13.193   2.569   0.239 -0.0790 -0.0683  0.0738
 3042W        W21246   9.139   6.352  13.674 -0.1431 -0.5208 -0.0835
 3043W        W21247  10.360   7.050  14.515  0.2292 -0.0572  0.1443
 3044W        W21248   2.957   9.487  10.516  0.1433  0.0369 -0.0522
 3045W        W21249   2.593  18.383  15.445  0.1324  0.0003  0.2248
 3046W        W21250   5.416   8.911  15.430  0.0058  0.3199 -0.2338
 3047W        W21251  15.996   0.246   4.529 -0.0031 -0.2141  0.3453
 3048W        W21252   9.011   9.102   3.865  0.0356  0.0219 -0.1018
 3049W        W21253  10.951  14.305   1.413 -0.2609  0.1188  0.0599
 3050W        W21254   8.534   4.258   3.592 -0.1107  0.0784 -0.1165
 3051W        W21255  10.873   0.646  13.626  0.0016  0.1063  0.0362
 3052W        W21256   5.305   7.534   0.426  0.1362  0.2404 -0.1039
 3053W        W21257  15.920   4.209   3.360 -0.2031  0.1830  0.0845
 3054W        W21258  17.279   8.340  12.818  0.3540  0.3711 -0.0743
 3055W        W21259   2.272   4.784  13.629  0.3287 -0.0970  0.1725
 3056W        W21260   8.515   0.010   2.056  0.0092 -0.0976  0.0079
 3057W        W21261   4.422  16.283  13.051  0.2206  0.2593 -0.1034
 3058W        W21262   0.301  17.043  14.298 -0.1331 -0.3389  0.2632
 3059W        W21263  12.325  10.003  13.798  0.0890 -0.1338 -0.2255
 3060W        W21264  14.731   6.301   1.779 -0.0025  0.3491  0.0191
 3061W        W21265   7.550  10.360   1.733 -0.0376  0.0236  0.2215
 3062W        W21266  10.471  16.434  14.308 -0.4386 -0.1068  0.1516
 3063W        W21267  17.972   7.913   3.300 -0.0478 -0.2057  0.0897
 3064W        W21268  12.357  10.646  15.209  0.1678 -0.0518  0.0547
 3065W        W21269   3.867   2.259  11.945 -0.1068  0.1450 -0.1609
 3066W        W21270   7.751   6.615  11.619  0.0218  0.1584 -0.0740
 3067W        W21271  15.758  14.213   2.507 -0.1987 -0.0744 -0.0927
 3068W        W21272  14.629  13.902   3.709  0.0659  0.3801 -0.1124
 3069W        W21273   4.424   5.941   4.179  0.1909 -0.0700  0.2041
 3070W        W21274  16.754   7.676   2.076 -0.1837  0.3442  0.0148
 3071W        W21275   2.906   9.092  13.783 -0.3772 -0.2746  0.0455
 3072W        W21276   3.793   2.429  12.960 -0.4228  0.2667 -0.0421
 3073W        W21277  11.916  10.018  12.515 -0.2865  0.1499  0.0264
 3074W        W21278   8.781  11.399   4.474  0.1525  0.0251  0.1346
 3075W        W21279   0.054  18.074  12.472 -0.2183 -0.2026 -0.1533
 3076W        W21280  15.481   5.216   3.475 -0.0383  0.0993 -0.1127
 3077W        W21281   9.168   8.150  11.281 -0.1881  0.0801  0.0097
 3078W        W21282   5.966   4.641   2.230 -0.1694 -0.0629 -0.0386
 3079W        W21283   9.295   7.739  12.311 -0.0459 -0.1384  0.0247
 3080W        W21284   7.626   3.108  10.855  0.0023  0.0824 -0.0722
 3081W        W21285  12.693  17.672   1.238  0.0053 -0.1094 -0.2016
 3082W        W21286  10.583  18.435  14.501  0.0212  0.0799  0.0901
 3083W        W21287  16.606  17.215   4.238 -0.0659  0.0393  0.1929
 3084W        W21288   0.285  15.486   1.107 -0.1889 -0.0229 -0.1415
 3085W        W21289  18.480   7.475   2.013 -0.2861  0.3351  0.1001
 3086W        W21290   8.455  15.520  12.399 -0.0464  0.1318  0.1181
 3087W        W21291  12.159  18.676  14.545 -0.1673 -0.0605  0.0108
 3088W        W21292  10.418   8.051  10.405  0.0986  0.1729 -0.1987
 3089W        W21293  14.023  13.554   1.152  0.1565  0.1797 -0.1773
 3090W        W21294  12.313   9.058  13.678  0.2534  0.2753  0.0107
 3091W        W21295   7.038  11.011  10.735 -0.0743 -0.0982 -0.1145
 3092W        W21296  17.758  18.589  14.466  0.1098  0.2503 -0.0652
 3093W        W21297   4.631  12.300   2.365  0.0747 -0.1774  0.2944
 3094W        W21298   6.168  12.732   3.572  0.0821 -0.1908  0.0644
 3095W        W21299   8.198  11.762  14.033 -0.1864  0.0114  0.1555
 3096W        W21300  11.980   0.680  13.349 -0.3129 -0.4359 -0.1190
 3097W        W21301  16.591   8.412  13.619  0.1539  0.2963  0.0504
 3098W        W21302  10.372  17.991   3.923 -0.1882  0.1445  0.2178
 3099W        W21303  13.267   1.493  14.240 -0.1486  0.1878 -0.0799
 3100W        W21304   5.293  13.097   0.551  0.0497  0.2201 -0.0931
 3101W        W21305   1.039  17.717   2.006 -0.2447  0.3978  0.0643
 3102W        W21306   3.862   6.743  14.543  0.0951  0.2378  0.0900
 3103W        W21307   6.430  12.983  11.514 -0.0379  0.2282  0.1679
 3104W        W21308   9.092   4.443   0.920 -0.1341  0.2873  0.0988
 3105W        W21309   6.716   8.106   1.994 -0.0298  0.0581 -0.1288
 3106W        W21310   3.451  12.109  10.969  0.1138  0.0915  0.1234
 3107W        W21311  16.104   9.756  12.745 -0.1566  0.0070 -0.3555
 3108W        W21312   4.788  14.896   4.333  0.0206  0.3059  0.2449
 3109W        W21313  18.030   9.368  14.237 -0.1465  0.0446  0.0776
 3110W        W21314  17.171  15.195  14.174  0.1009 -0.1548 -0.1569
 3111W        W21315  16.443  10.459   1.737  0.0614 -0.1097  0.2485
 3112W        W21316  18.089   0.582   4.159  0.0643  0.2686 -0.0389
 3113W        W21317   2.525   1.195  15.360  0.1216 -0.0188 -0.1018
 3114W        W21318   5.575   0.028  14.799  0.0288 -0.0311  0.0969
 3115W        W21319   4.346   5.309   1.027  0.1770 -0.1095  0.1969
 3116W        W21320   3.083   1.317  13.208  0.0058 -0.4090  0.1364
 3117W        W21321   3.092  13.747  12.453  0.0272 -0.2006 -0.2500
 3118W        W21322  13.824   3.152   4.414  0.2993 -0.2863  0.0564
 3119W        W21323   7.709   3.830  13.553 -0.2954  0.1357 -0.3159
 3120W        W21324   6.567   6.236   4.511 -0.0734  0.1961  0.0153
 3121W        W21325   2.771   6.510   0.486  0.0374  0.0007 -0.0738
 3122W        W21326  17.394  11.345  14.639 -0.0503 -0.1189 -0.0471
 3123W        W21327   1.407   1.105  13.595 -0.1903  0.1333 -0.0257
 3124W        W21328  17.431  14.445   1.508 -0.0373 -0.0719 -0.0385
 3125W        W21329   4.634   4.046   1.112  0.0928 -0.3640 -0.0425
 3126W        W21330  14.721   3.388   3.352  0.4346 -0.0704 -0.1804
 3127W        W21331  11.830  12.498  12.836  0.1980  0.2756 -0.0873
 3128W        W21332   2.549  14.781  12.597 -0.3058  0.0536 -0.4013
 3129W        W21333   3.709  16.601   0.898  0.3280 -0.0826  0.2965
 3130W        W21334  17.687  14.685   3.984  0.0834  0.0905 -0.1547
 3131W        W21335  17.112  17.185  13.505  0.4108 -0.0687  0.0972
 3132W        W21336   1.252   5.685   2.234 -0.4659  0.0299  0.1993
 3133W        W21337   8.812   1.907  14.866 -0.1155  0.1032 -0.0907
 3134W        W21338  18.038   7.831  13.046  0.3195  0.0085 -0.0946
 3135W        W21339  13.893  16.205  11.593 -0.1111 -0.2202  0.0587
 3136W        W21340   8.088  10.771  13.360  0.0971 -0.4601  0.1681
 3137W        W21341  11.810  17.412   1.708  0.0252 -0.1318 -0.0824
 3138W        W21342   5.446  11.918  14.640 -0.3243 -0.1544 -0.0090
 3139W        W21343   9.466   1.713   3.755  0.1000 -0.0322 -0.0091
 3140W        W21344   8.141   9.937   0.648  0.2517 -0.0618 -0.3414
 3141W        W21345  18.451  16.128  15.277 -0.2743 -0.3092 -0.2068
 3142W        W21346   8.645   5.123   2.285  0.0900 -0.1658 -0.0561
 3143W        W21347  18.192  12.646   3.357  0.3751  0.0363 -0.1755
 3144W        W21348  17.213  17.216  14.360  0.0335 -0.0407  0.1547
 3145W        W21349   6.457   9.683  12.455 -0.0918  0.0388  0.2339
 3146W        W21350   8.111   1.202   3.852  0.0717  0.0626 -0.3383
 3147W        W21351   3.427  13.101  11.094 -0.0845  0.2828 -0.1097
 3148W        W21352   7.860   4.100   0.130  0.0946 -0.1221 -0.1684
 3149W        W21353  11.145  17.094  14.228 -0.2054  0.2034  0.0635
 3150W        W21354  18.277  12.455  11.990  0.1091  0.1576  0.1360
 3151W        W21355   5.104   4.569   2.807 -0.1526 -0.0309  0.2408
 3152W        W21356   8.612   0.467  12.120  0.0062 -0.1816 -0.1401
 3153W        W21357   2.438  17.873   2.515  0.0867  0.1574 -0.3157
 3154W        W21358   6.891   3.109   1.005 -0.2949  0.2068  0.1675
 3155W        W21359   1.551  17.019   1.936  0.2246  0.0720  0.0165
 3156W        W21360  10.546  17.534  12.820  0.1184  0.0074 -0.1137
 3157W        W21361   1.402   4.746   1.352  0.0135  0.2130  0.0981
 3158W        W21362   3.773  10.518   0.023  0.0001  0.3579 -0.2251
 3159W        W21363  18.322   0.154  15.161 -0.1578  0.4200 -0.0003
 3160W        W21364   0.862   3.947   4.471  0.2406  0.0537  0.2553
 3161W        W21365  17.036  10.707  14.183 -0.0208 -0.0507 -0.0950
 3162W        W21366  17.076  16.361   0.357  0.3247  0.2465  0.0213
 3163W        W21367  15.498   9.929  11.020 -0.2769 -0.1715 -0.3647
 3164W        W21368  12.168   8.667  13.050 -0.1241 -0.3008 -0.2152
 3165W        W21369   6.095   3.763  11.157  0.2213 -0.1442 -0.3303
 3166W        W21370  10.089   3.336  14.667 -0.0456 -0.0222  0.0665
 3167W        W21371  14.639   5.328   1.633 -0.2451  0.1998 -0.0826
 3168W        W21372  18.128  12.372  14.983  0.0494 -0.0220  0.3498
 3169W        W21373  10.835  10.084   2.869 -0.0477 -0.0377  0.0095
 3170W        W21374  17.994   9.011  12.314 -0.3660  0.0250  0.4926
 3171W        W21375   2.431  11.661   1.817 -0.1750 -0.0386  0.1772
 3172W        W21376   6.454  17.555   1.642 -0.2336 -0.1264 -0.3227
 3173W        W21377  11.920  17.813   3.887 -0.3204  0.0661 -0.0011
 3174W        W21378   3.187  18.296   2.283  0.0453  0.0894  0.1754
 3175W        W21379   6.748  17.125  13.732  0.1629 -0.0753  0.0030
 3176W        W21380   3.732   1.791   3.150 -0.1115  0.2739 -0.1631
 3177W        W21381  17.390   5.757   3.220  0.0850 -0.2693 -0.1408
 3178W        W21382   4.041   2.314  13.763  0.1397 -0.1695  0.0461
 3179W        W21383   4.647   4.470  13.443 -0.1918 -0.2487 -0.1415
 3180W        W21384   3.446   4.030  11.484 -0.1339  0.0002 -0.0732
 3181W        W21385   1.447   6.382   1.872 -0.0100  0.0474  0.0146
 3182W        W21386  18.628  13.980  11.981  0.0306  0.1700  0.2313
 3183W        W21387  17.247  12.848  15.172 -0.0252 -0.0751 -0.3444
 3184W        W21388  15.089   8.282  11.230 -0.0128 -0.1060 -0.4388
 3185W        W21389   6.827   7.289  14.055  0.1661 -0.2494 -0.0171
 3186W        W21390  12.407   8.315  14.345 -0.1843 -0.2071 -0.0843
 3187W        W21391  17.466  11.061   5.052  0.3711  0.0148 -0.1641
 3188W        W21392   5.765   6.705  12.097  0.1029 -0.2823  0.2234
 3189W        W21393  13.114   7.163   1.801 -0.0702 -0.0947 -0.2816
 3190W        W21394  13.822  13.104   0.892 -0.1772  0.0176  0.1505
 3191W        W21395  17.209   1.141  15.278  0.1076  0.1112  0.1994
 3192W        W21396   5.988  16.239  14.249  0.3094 -0.0129  0.0468
 3193W        W21397  14.701  17.270  13.601  0.4057  0.1199  0.0191
 3194W        W21398   6.460  13.055  13.782 -0.0646  0.0850 -0.1439
 3195W        W21399  11.565  11.028   3.548  0.1291 -0.0193 -0.0737
 3196W        W21400  16.641   0.608   2.372 -0.0823  0.3374 -0.0390
 3197W        W21401   8.231   1.420  12.581  0.0048 -0.1011 -0.0939
 3198W        W21402  13.172  11.081   4.488  0.0282  0.0310 -0.4290
 3199W        W21403   9.597  10.570  14.617  0.0832  0.1154  0.1873
 3200W        W21404   4.363  12.701  13.032 -0.1447 -0.1792 -0.0021
 3201W        W21405  12.076   2.956   1.638 -0.1914 -0.0882  0.0298
 3202W        W21406   6.076  11.287   2.065 -0.0579  0.1228  0.3045
 3203W        W21407  13.071   2.192   1.213  0.0540 -0.0291 -0.1487
 3204W        W21408  10.824   5.983   3.294 -0.1950  0.0908  0.1764
 3205W        W21409  11.284   4.081   4.308 -0.2352 -0.0778 -0.0206
 3206W        W21410   1.038  16.024  13.073 -0.3300 -0.0429  0.1417
 3207W        W21411  14.778  13.086  13.805 -0.0536 -0.1475  0.4281
 3208W        W21412   7.754  15.544   0.575  0.0504  0.0255  0.2328
 3209W        W21413  13.707   5.229   1.438 -0.2390 -0.1787  0.2922
 3210W        W21414  12.979   4.710   1.020  0.0541 -0.0692 -0.5147
 3211W        W21415   9.356   3.291   1.503  0.3987  0.1293 -0.3939
 3212W        W21416  18.646   0.578  15.225  0.0384  0.2147  0.1176
 3213W        W21417   0.275  10.251   9.709  0.1805 -0.2193  0.2439
 3214W        W21418   5.233  15.593  10.515  0.1213 -0.1306 -0.1637
 3215W        W21419  11.625   0.558   1.091  0.1808  0.0635  0.0360
 3216W        W21420  14.525  11.670  12.950 -0.1779  0.0838  0.0845
 3217W        W21421   4.679  13.851   1.519  0.0185 -0.1916  0.1299
 3218W        W21422   6.443  10.184  15.130 -0.0730  0.2624 -0.1134
 3219W        W21423  13.728   6.961  11.062  0.0591  0.0598 -0.0599
 3220W        W21424   6.035  13.619   0.088  0.1675  0.1383 -0.1659
 3221W        W21425  16.178   5.813  12.813 -0.0438 -0.2058  0.3044
 3222W        W21426  15.746  15.824   5.020 -0.0971  0.1235  0.0675
 3223W        W21427  14.157  17.442   1.143  0.1238  0.0475  0.2999
 3224W        W21428  11.986   0.389   1.970  0.0971 -0.0335 -0.0423
 3225W        W21429  18.460   1.533   0.071 -0.1484 -0.0095 -0.0412
 3226W        W21430   4.475   8.483   1.255 -0.2114  0.0108 -0.0890
 3227W        W21431  11.763   4.771  14.891 -0.1084  0.1254  0.0553
 3228W        W21432   5.226   8.519  13.010 -0.1720  0.1111  0.1068
 3229W        W21433   7.548   6.473  13.914  0.0407  0.0931 -0.2958
 3230W        W21434   0.570  18.136  10.941 -0.0324 -0.1570 -0.1090
 3231W        W21435   4.508   0.514  13.316 -0.3203 -0.0875  0.0785
 3232W        W21436  10.987   6.246  14.263 -0.1059  0.0081  0.3072
 3233W        W21437  14.447  18.623  11.418  0.1410 -0.2998 -0.1242
 3234W        W21438  12.650   4.625  13.366  0.3202  0.0703 -0.0223
 3235W        W21439   4.024   1.783  13.593  0.1096  0.1013 -0.1031
 3236W        W21440   8.942   9.296  13.169  0.0060  0.0695  0.0156
 3237W        W21441   6.427   7.083   4.628  0.3987 -0.2731 -0.1502
 3238W        W21442   9.787   2.650  14.934  0.1724  0.0639 -0.0413
 3239W        W21443   5.476  13.976   2.723 -0.1816 -0.1761 -0.1348
 3240W        W21444   2.083   6.647  14.421  0.1728 -0.2075 -0.0313
 3241W        W21445  16.940   4.321   3.617  0.1823  0.3058 -0.0286
 3242W        W21446   3.631   2.933   4.944  0.0887  0.3858 -0.0036
 3243W        W21447  15.558  11.678   0.700 -0.3097  0.0060  0.1295
 3244W        W21448  12.159   4.936   2.230 -0.0824 -0.0755  0.1961
 3245W        W21449  11.643  13.285   1.135  0.0935  0.0099 -0.0456
 3246W        W21450   0.309   2.171  12.959 -0.2326 -0.2826  0.3701
 3247W        W21451  16.907   1.233  11.099  0.0092 -0.1664 -0.2118
 3248W        W21452   9.849   2.610   0.015  0.0272  0.1045 -0.0628
 3249W        W21453   8.163   5.909   1.358  0.1525 -0.0485  0.1789
 3250W        W21454  16.207  18.072   2.107 -0.0172 -0.2772  0.1771
 3251W        W21455  14.833  17.065  11.848  0.2521  0.3201  0.2477
 3252W        W21456  18.291  11.526   0.420 -0.1442  0.3264 -0.1033
 3253W        W21457   8.928  15.852  14.299  0.0707 -0.1168 -0.1235
 3254W        W21458  17.641   6.798  15.008  0.2733 -0.3141 -0.2593
 3255W        W21459   0.312  15.243   4.836  0.1128 -0.2730 -0.0160
 3256W        W21460   1.104   4.069  11.589 -0.0849 -0.0804  0.2348
 3257W        W21461   4.401   4.627   2.315 -0.0250  0.4095  0.3313
 3258W        W21462  17.123  17.319  11.898 -0.1124 -0.0037 -0.0808
 3259W        W21463   8.773   5.463   0.908 -0.1176 -0.2217 -0.1804
 3260W        W21464   1.429   3.935  14.018 -0.1301  0.0508 -0.1119
 3261W        W21465  17.003   2.349  14.686  0.2250 -0.0111 -0.3359
 3262W        W21466  18.136  15.319  14.356  0.1962 -0.0302  0.1056
 3263W        W21467   2.890  14.521   1.940  0.4399  0.0928  0.0431
 3264W        W21468  11.751  12.792   1.406  0.0096 -0.0039  0.2002
 3265W        W21469   6.550  18.506   4.795  0.0197 -0.0137  0.1742
 3266W        W21470   4.310   8.417   1.926  0.1115 -0.0906 -0.2836
 3267W        W21471  10.447   0.855   4.126  0.0692 -0.0243 -0.0475
 3268W        W21472  10.644   5.993   2.761  0.0717 -0.0231 -0.1524
 3269W        W21473   0.040  12.160   2.680  0.1044  0.0775  0.2062
 3270W        W21474   3.114   5.448  10.766  0.1371  0.4850  0.2197
 3271W        W21475   3.736   2.594   4.492  0.0889  0.2471 -0.1013
 3272W        W21476   9.583   2.790  12.173  0.4207  0.1189  0.0488
 3273W        W21477  15.111   2.676  12.896  0.0849 -0.1721  0.2317
 3274W        W21478   9.696   8.348  14.858  0.2059 -0.0482 -0.0368
 3275W        W21479   2.611  14.300  12.419 -0.0865 -0.2364  0.0550
 3276W        W21480   0.822   5.236  11.624 -0.1129  0.0762  0.2282
 3277W        W21481  11.497   6.362  14.506 -0.2439  0.0304 -0.1787
 3278W        W21482  15.898   6.354   4.457 -0.0699 -0.0534  0.2578
 3279W        W21483   4.552   1.763   4.018 -0.0264  0.1889 -0.2653
 3280W        W21484  15.219  13.093  13.583 -0.0497  0.1018 -0.1233
 3281W        W21485   9.474   4.946  13.554  0.1145  0.1898  0.0125
 3282W        W21486  17.482  14.993  14.526  0.1595 -0.0890  0.3759
 3283W        W21487  16.145  11.991   2.412  0.0249 -0.0255  0.2903
 3284W        W21488   6.334   2.803   1.567 -0.0315 -0.0074  0.1995
 3285W        W21489   4.866   4.484  14.874 -0.2028 -0.3466  0.2691
 3286W        W21490  18.154  10.483   3.575  0.0198 -0.2345  0.2631
 3287W        W21491  13.327   2.160  15.332 -0.0614  0.1094  0.2774
 3288W        W21492  11.753   5.323   0.292 -0.1187  0.0987  0.2177
 3289W        W21493   6.973  16.684   0.482 -0.0084  0.0621 -0.2205
 3290W        W21494  18.066   5.734   1.383 -0.1111  0.1848 -0.0455
 3291W        W21495  12.403   7.084  13.310 -0.1802 -0.1408 -0.0439
 3292W        W21496   8.551  13.028   2.814 -0.1411  0.1385  0.0848
 3293W        W21497  13.556  18.397  11.910 -0.0089  0.1593  0.0987
 3294W        W21498   6.982  13.129  12.111  0.0672 -0.0156  0.1917
 3295W        W21499   1.052   1.066  10.043  0.1219  0.4535  0.2040
 3296W        W21500   8.638   9.839   2.548  0.5634 -0.2969 -0.1022
 3297W        W21501   6.149   4.376  12.246  0.4456  0.0744 -0.1163
 3298W        W21502  10.438  11.227   3.024  0.1408  0.0694  0.1866
 3299W        W21503   6.977   2.155   2.842  0.2074 -0.2654  0.0102
 3300W        W21504   9.982   8.935   1.674  0.0740 -0.2330  0.1583
 3301W        W21505   1.782  17.700   3.203  0.3535 -0.0265 -0.0332
 3302W        W21506  13.192   5.080   1.248 -0.1141  0.1307  0.1145
 3303W        W21507  16.348   3.502   0.575  0.2145 -0.0132 -0.2056
 3304W        W21508   2.643   0.335  14.515 -0.0138  0.2130 -0.1102
 3305W        W21509  15.584  15.934   1.329 -0.0647  0.1261 -0.1733
 3306W        W21510   3.912   2.149   4.723  0.0933 -0.1814 -0.2019
 3307W        W21511  10.465   6.031  14.103 -0.0448 -0.3298  0.1867
 3308W        W21512   5.317  11.426  13.716  0.4641 -0.3342  0.0163
 3309W        W21513   5.846  13.863   2.435 -0.0159 -0.0865 -0.1862
 3310W        W21514   5.857   4.534  14.710  0.1566  0.1034 -0.2136
 3311W        W21515  11.387  11.844  14.063  0.1870  0.1596  0.4113
 3312W        W21516  18.011  12.871   0.281  0.0365 -0.1505 -0.0524
 3313W        W21517  13.478   7.408   4.416 -0.0969  0.1089 -0.1185
 3314W        W21518   4.785  10.780  14.352  0.4175  0.0156  0.1014
 3315W        W21519  14.914   5.890  11.900 -0.1572 -0.1222 -0.0530
 3316W        W21520   3.236  10.415  13.756  0.0624 -0.0405  0.1389
 3317W        W21521  11.346   8.820   1.596 -0.0164 -0.0643 -0.0903
 3318W        W21522   3.392   0.118  14.325 -0.1578 -0.3597 -0.0945
 3319W        W21523  17.168  14.666  11.518  0.2182 -0.1829 -0.0305
 3320W        W21524  11.758  15.777  15.346  0.1610  0.2338 -0.0998
 3321W        W21525   1.524   4.632   1.864 -0.1533  0.2108  0.3974
 3322W        W21526  17.715  17.792  12.303 -0.0858 -0.0024 -0.0284
 3323W        W21527  17.698   0.800   2.595  0.1647  0.3753 -0.1905
 3324W        W21528   1.460  15.353   3.426 -0.0817  0.1109  0.1275
 3325W        W21529  13.924  13.245  14.541 -0.1621 -0.0273 -0.0628
 3326W        W21530  10.273   8.847  11.538  0.1538  0.2535  0.0008
 3327W        W21531  15.537   1.147   2.271 -0.0074 -0.1371 -0.2356
 3328W        W21532   0.595  10.686   9.756 -0.3768  0.1899  0.0711
 3329W        W21533  12.088   3.500  12.718  0.0514 -0.0405 -0.0264
 3330W        W21534   8.686  15.298  14.250  0.2799 -0.2037 -0.0169
 3331W        W21535   6.430  11.978  13.772  0.3529 -0.1679  0.1467
 3332W        W21536   7.542  14.223   2.114 -0.0689 -0.2387  0.1346
 3333W        W21537  14.934   6.358   0.836  0.0867  0.0653 -0.1503
 3334W        W21538   0.883  16.698   1.341  0.1546 -0.1117  0.2511
 3335W        W21539   0.106   8.317  13.140  0.1597 -0.1534  0.5174
 3336W        W21540   8.607  15.015   0.711  0.4322 -0.0677  0.0538
 3337W        W21541  11.751   0.088  14.163 -0.0427 -0.2007  0.0711
 3338W        W21542  16.936   3.165  12.122  0.0851  0.0269  0.1728
 3339W        W21543  15.103   3.968   0.061  0.0016  0.0760  0.0660
 3340W        W21544   2.992   1.978  14.294 -0.1710 -0.1588  0.4663
 3341W        W21545  18.012   8.949   4.259 -0.2855 -0.0012  0.0771
 3342W        W21546   5.350  14.925   2.064  0.1583  0.0844 -0.0100
 3343W        W21547  10.640   2.063   1.470  0.1773 -0.1556  0.1503
 3344W        W21548   9.894  12.531   4.756 -0.1704  0.1752  0.0529
 3345W        W21549   2.316   0.300  12.338 -0.2964  0.1492  0.0917
 3346W        W21550   3.107   1.376  11.117 -0.0352 -0.1702  0.0750
 3347W        W21551  15.733  14.067   0.278  0.1246  0.1245 -0.0433
 3348W        W21552   2.647   8.407   3.509  0.1968 -0.2373 -0.0095
 3349W        W21553  13.248   8.253   1.197  0.0648  0.0178 -0.0883
 3350W        W21554   2.655   3.421   0.012 -0.2236  0.1710 -0.0218
 3351W        W21555   4.360  10.481   4.302 -0.0192  0.1755 -0.0192
 3352W        W21556  14.599   4.574   0.909  0.1832 -0.0877 -0.1334
 3353W        W21557  11.972   5.016   3.570  0.0009 -0.0937 -0.1201
 3354W        W21558   0.106  15.746   0.685 -0.0788 -0.0278 -0.1623
 3355W        W21559  11.522   7.300  11.935 -0.1416  0.0927 -0.1279
 3356W        W21560  11.363   4.758  11.998 -0.3228 -0.0490 -0.1826
 3357W        W21561   8.072   4.444   2.046 -0.0853 -0.0112  0.0374
 3358W        W21562   7.211   5.983  12.800 -0.2383 -0.1084 -0.0960
 3359W        W21563   6.423   8.380   2.327  0.0611 -0.4477  0.1154
 3360W        W21564  12.211   4.863  12.330  0.0438  0.1790 -0.2874
 3361W        W21565   4.608  17.511  13.649  0.0482 -0.4224  0.2411
 3362W        W21566  16.074   2.865  12.072  0.0347  0.2614 -0.1615
 3363W        W21567  13.973   5.866  14.378 -0.0034  0.1687 -0.1918
 3364W        W21568  12.135   0.501  11.609 -0.1266  0.2394  0.1062
 3365W        W21569  12.090   9.929  15.254 -0.2783  0.1592  0.1023
 3366W        W21570  18.166   1.041   2.603  0.0610  0.3884  0.0459
 3367W        W21571   0.477  12.785   2.131 -0.1909  0.0981 -0.2247
 3368W        W21572  14.988  15.900  14.642 -0.2578 -0.2493 -0.2163
 3369W        W21573  17.763  14.204  10.302  0.0498 -0.2598 -0.0268
 3370W        W21574  17.961  16.442   4.954 -0.0173  0.1592  0.1237
 3371W        W21575   8.478   4.034   3.088  0.1384  0.0163  0.1155
 3372W        W21576  11.838   2.702  15.464 -0.0727  0.0313 -0.0035
 3373W        W21577   2.387   4.743  11.340 -0.0953 -0.1049 -0.2454
 3374W        W21578   3.326  14.481  11.403  0.1778  0.1121 -0.0573
 3375W        W21579  15.838   9.012   2.666  0.3248  0.2822  0.0641
 3376W        W21580  13.103  15.189  14.383 -0.1597  0.1647 -0.0371
 3377W        W21581  14.433  13.974  11.156  0.1684 -0.1146 -0.0461
 3378W        W21582  17.482   6.886  13.620  0.1662 -0.2196 -0.0332
 3379W        W21583   1.270   1.438  13.946 -0.1509  0.2484  0.1166
 3380W        W21584   6.137  16.535  10.543  0.4162  0.4549  0.3475
 3381W        W21585   6.584  11.777   2.667 -0.1352  0.0374  0.3128
 3382W        W21586  16.808  17.703   1.208  0.2115 -0.1086 -0.1102
 3383W        W21587   8.967   9.108  11.812 -0.3636 -0.0355 -0.0087
 3384W        W21588  15.029   0.395   4.104  0.1661 -0.2667  0.2002
 3385W        W21589  15.391   5.278  14.130 -0.2466 -0.1592  0.0510
 3386W        W21590  16.500  11.683   1.253 -0.2148  0.1792  0.1078
 3387W        W21591   3.874  10.965   4.915 -0.1032 -0.1533  0.1321
 3388W        W21592  11.953  11.783   2.023 -0.0021  0.0396 -0.5417
 3389W        W21593  11.898  12.258  11.233  0.0556 -0.5564  0.2519
 3390W        W21594   9.183  13.484  13.828  0.0213  0.1676  0.1423
 3391W        W21595   8.270  10.881  14.723  0.1976 -0.2512  0.1868
 3392W        W21596  17.473  12.146   2.809 -0.1127  0.1765  0.2177
 3393W        W21597  13.352  12.780   4.902  0.0415 -0.0293  0.0732
 3394W        W21598  12.970  14.237  12.784  0.0919  0.1724  0.1950
 3395W        W21599  12.208   3.685   2.929  0.1864 -0.3968 -0.0753
 3396W        W21600  16.463  16.262  11.558 -0.4436 -0.1183  0.1679
 3397W        W21601  16.022  16.098  14.633 -0.1638 -0.0351 -0.2829
 3398W        W21602  10.386   7.780   2.358  0.2846  0.0897  0.0908
 3399W        W21603   3.184  16.844   0.340 -0.1554 -0.1672 -0.2290
 3400W        W21604  13.741  12.442  12.462  0.1208  0.2075 -0.3546
 3401W        W21605  18.155  11.289  12.661 -0.0447 -0.1324 -0.2153
 3402W        W21606   6.712  11.315   4.351 -0.1125  0.0105 -0.0877
 3403W        W21607   5.047   5.877  14.458  0.1412 -0.3128  0.0013
 3404W        W21608   6.883  12.295  12.876 -0.1053 -0.2953  0.1501
 3405W        W21609  10.037   3.907   3.624 -0.2514  0.5928 -0.0926
 3406W        W21610  15.820   1.250  12.711 -0.2142 -0.0709  0.1741
 3407W        W21611   6.605   3.387   0.184  0.1842  0.0405  0.1466
 3408W        W21612  14.787  17.163  14.750  0.2225  0.0538  0.2877
 3409W        W21613   4.492   8.273   3.303  0.0244  0.1470  0.2662
 3410W        W21614   7.486   0.332   1.501 -0.1869 -0.1798 -0.1718
 3411W        W21615  18.115  16.598   4.407 -0.2904 -0.2207  0.0556
 3412W        W21616  16.278   2.115  12.538 -0.1521  0.0430  0.2258
 3413W        W21617  12.612  16.705   0.310 -0.1530  0.2288  0.0437
 3414W        W21618   5.161  18.375   3.500  0.1722  0.0343  0.2446
 3415W        W21619   4.679   5.357   4.573  0.1856  0.1883 -0.1890
 3416W        W21620  17.914   6.706  12.179 -0.0559  0.2412 -0.0227
 3417W        W21621  15.740   3.369   2.391 -0.0640 -0.0917 -0.0740
 3418W        W21622  12.020  17.179  13.375 -0.2329  0.0166  0.1322
 3419W        W21623   5.354   5.982   4.341 -0.0393  0.1415 -0.1268
 3420W        W21624   4.424   1.128   2.760  0.2719  0.2965 -0.0090
 3421W        W21625   3.447  13.690  14.712  0.0706  0.0629 -0.0402
 3422W        W21626   4.725   9.275   1.549 -0.3290 -0.1673 -0.1025
 3423W        W21627  10.806  14.301  11.949 -0.3454 -0.2326  0.0342
 3424W        W21628   6.166   8.599   3.285 -0.0603 -0.2746 -0.2325
 3425W        W21629   9.598   0.826   2.556  0.1429 -0.0015 -0.0509
 3426W        W21630  13.136  16.381  13.027 -0.1744 -0.1257  0.0505
 3427W        W21631   2.181   9.380  13.296  0.1310  0.0282 -0.0748
 3428W        W21632  12.391   5.505  13.644  0.3877  0.0088 -0.1980
 3429W        W21633   2.253   1.004   0.918 -0.3024  0.3746 -0.1542
 3430W        W21634  13.675  14.480   0.087  0.1644  0.2948  0.0436
 3431W        W21635  11.985  16.060  13.989 -0.2150 -0.1362  0.0077
 3432W        W21636  12.089   4.219  14.344  0.1190 -0.3158 -0.1315
 3433W        W21637  17.920  16.823   0.343  0.2523 -0.3356  0.0544
 3434W        W21638  12.812  14.025   1.258  0.1178 -0.1998 -0.1229
 3435W        W21639  16.016  17.087  11.288 -0.1074  0.0024  0.0187
 3436W        W21640   0.789  11.809   2.131 -0.1060 -0.0192  0.3051
 3437W        W21641  16.597  13.043   2.404  0.0804 -0.0318 -0.0353
 3438W        W21642  15.674  11.383  10.201 -0.0720 -0.0585  0.0645
 3439W        W21643   2.149  16.837  12.942 -0.0542  0.1952  0.0089
 3440W        W21644  13.261   7.443  13.541  0.0299 -0.2424 -0.1176
 3441W        W21645   1.038   8.312  13.569  0.0316  0.0225 -0.0447
 3442W        W21646   5.547  12.036   3.117  0.3607  0.3395 -0.0069
 3443W        W21647  14.821   2.063  14.145  0.1659 -0.0220  0.1302
 3444W        W21648   4.164  18.253  14.452  0.0626 -0.0639 -0.0550
 3445W        W21649  14.143   6.787   0.295  0.0437 -0.2932 -0.0380
 3446W        W21650  17.109  13.283  12.081  0.1772 -0.0683  0.0379
 3447W        W21651  10.830   7.946   2.514  0.0714 -0.2367 -0.3747
 3448W        W21652   4.143   5.781  11.420  0.2338  0.2077  0.5421
 3449W        W21653   1.343  13.139   2.368 -0.4006  0.2694 -0.0775
 3450W        W21654  11.176  12.113   2.291 -0.2588  0.1081  0.0619
 3451W        W21655  13.038  11.244   3.034  0.0916 -0.0880 -0.1625
 3452W        W21656   8.442   3.273  14.508  0.1166  0.0391 -0.0840
 3453W        W21657   7.597   2.510   0.936 -0.1057  0.5170  0.1116
 3454W        W21658   1.766  15.996  13.088 -0.2190  0.2882 -0.0216
 3455W        W21659   0.610   6.888   2.596  0.1404 -0.3230 -0.0423
 3456W        W21660   7.117  15.052   4.264 -0.3178 -0.3508 -0.0666
 3457W        W21661  14.747  12.784  11.580 -0.1074 -0.1104 -0.1430
 3458W        W21662  12.585  10.996   1.170  0.1342 -0.1254 -0.0609
 3459W        W21663  17.645   6.486  11.717 -0.1105 -0.1620 -0.0244
 3460W        W21664   1.185  12.378  14.120  0.2685 -0.1007 -0.0836
 3461W        W21665   5.429   7.288  13.013  0.3161  0.3893 -0.4031
 3462W        W21666  15.482   0.732  14.879 -0.1262 -0.1824  0.1867
 3463W        W21667   0.262  18.403  12.156 -0.1378  0.1198 -0.0976
 3464W        W21668   7.647  14.111  15.417 -0.0518 -0.1539  0.1486
 3465W        W21669  18.353   2.976  11.021  0.1383 -0.1065  0.0012
 3466W        W21670   0.388   2.530  12.426  0.1242 -0.1727  0.2685
 3467W        W21671  15.278   1.837   3.185 -0.6270  0.0978  0.2994
 3468W        W21672   2.220  14.062   1.277  0.0441 -0.1449 -0.5854
 3469W        W21673   4.438  17.762   4.055 -0.0672  0.0412 -0.1091
 3470W        W21674   9.047   9.345   9.839  0.2250 -0.0956 -0.2438
 3471W        W21675   5.873   7.908   4.286 -0.0593  0.0160  0.1680
 3472W        W21676  18.096   3.856   2.817  0.0533 -0.2079 -0.3467
 3473W        W21677  18.008  15.812  14.364 -0.1596 -0.0408  0.0279
 3474W        W21678   7.765  13.984   1.381 -0.0793  0.2068  0.1232
 3475W        W21679   1.515   3.716   1.027 -0.0019  0.1231  0.2532
 3476W        W21680  15.075   0.172  11.529  0.2361 -0.2338 -0.1031
 3477W        W21681  17.672  17.936  11.322  0.2404  0.1116  0.0307
 3478W        W21682  14.173   9.036  13.884 -0.3888 -0.2892 -0.1033
 3479W        W21683  18.522  10.635   2.856 -0.1039 -0.5705  0.0407
 3480W        W21684   6.413  14.777  11.121 -0.0468  0.0817 -0.1102
 3481W        W21685   6.041   3.405  13.196 -0.0935 -0.0307  0.0452
 3482W        W21686   6.187   0.893   2.656  0.1504 -0.0619  0.0818
 3483W        W21687   2.619  10.309   2.674  0.1491  0.1640  0.0530
 3484W        W21688   9.018  12.134  11.332  0.3277  0.0981  0.1743
 3485W        W21689  14.384   4.214  14.433 -0.1505 -0.0626  0.4187
 3486W        W21690   3.927   0.443  13.472 -0.1539  0.0738  0.1222
 3487W        W21691   4.431   3.144   1.733  0.0648 -0.0240  0.2032
 3488W        W21692  12.437   7.379   4.770 -0.0044  0.0800 -0.0133
 3489W        W21693   3.453  14.614   0.088 -0.2503 -0.0942  0.3638
 3490W        W21694  14.853   7.806  13.993 -0.2867  0.0480 -0.0237
 3491W        W21695  10.774   3.864   2.429 -0.0784  0.1170 -0.0235
 3492W        W21696   8.617  16.544  13.584 -0.1298  0.2176 -0.0290
 3493W        W21697  12.929   7.162   0.809 -0.0833 -0.1536  0.1991
 3494W        W21698   9.156  14.453   4.074 -0.0041 -0.0168  0.0798
 3495W        W21699   9.245  11.713  13.299  0.0137 -0.2666  0.0303
 3496W        W21700  13.406  17.818   3.315  0.1243 -0.2255 -0.1862
 3497W        W21701   8.260  13.363  14.380  0.0729 -0.3475 -0.1088
 3498W        W21702  16.607  14.159   3.954 -0.1597  0.0806  0.2587
 3499W        W21703  10.380  16.272   3.874 -0.1057 -0.1449 -0.0632
 3500W        W21704   0.748   9.534  10.956 -0.2387  0.1193  0.0816
 3501W        W21705   8.453  16.392  12.844  0.0347 -0.2135  0.0054
 3502W        W21706   8.723   2.665   1.584 -0.0877  0.1352 -0.0454
 3503W        W21707  10.852  16.084   3.664  0.0505 -0.3144 -0.1078
 3504W        W21708  10.200  18.341   3.603 -0.5618 -0.1841 -0.2601
 3505W        W21709  15.557  14.196  14.871  0.1978  0.0494  0.1414
 3506W        W21710   1.226   8.213   1.097 -0.1070  0.2626  0.0053
 3507W        W21711  14.038  12.801   1.284  0.0374 -0.1535  0.1163
 3508W        W21712   7.045   8.351   0.180  0.1851  0.0421  0.0996
 3509W        W21713   2.763  10.307  10.279 -0.2273  0.0332  0.3394
 3510W        W21714  17.393  14.016  12.913 -0.1953  0.0053 -0.3640
 3511W        W21715   6.133  12.303   1.890 -0.0871  0.1664  0.3675
 3512W        W21716  17.607   9.584  12.323  0.0766  0.0929  0.2733
 3513W        W21717   5.680  14.600  14.194 -0.1115  0.0339  0.3324
 3514W        W21718  16.930   9.576  11.274  0.1865 -0.0747 -0.0521
 3515W        W21719  14.610   0.457   0.170  0.0649 -0.0126 -0.2556
 3516W        W21720  14.770  13.385  10.791 -0.0385 -0.0020  0.0728
 3517W        W21721  13.158  16.482  11.893 -0.2353 -0.1360 -0.2661
 3518W        W21722   0.016   5.504  12.308 -0.2462  0.0769 -0.0108
 3519W        W21723  10.408  18.344   3.026  0.1950  0.1769  0.1780
 3520W        W21724  17.162   1.994   1.332 -0.5688  0.2587 -0.0434
 3521W        W21725   1.918  13.993  14.891  0.1283 -0.0458 -0.4297
 3522W        W21726   9.463   7.690   3.485  0.0200  0.0102 -0.1572
 3523W        W21727   0.904  11.565  14.281 -0.0806 -0.0051  0.3296
 3524W        W21728  16.352  13.706  14.293  0.1513  0.1435  0.1931
 3525W        W21729   6.385  15.863  14.321  0.2801  0.0935 -0.1179
 3526W        W21730  17.407  10.236   1.944  0.0949  0.3080  0.1848
 3527W        W21731   2.863  14.443   1.450 -0.0015 -0.6144  0.0429
 3528W        W21732  16.654  11.063  13.610  0.3240 -0.2935 -0.0342
 3529W        W21733  11.475   1.226  14.269  0.0205  0.1055  0.1221
 3530W        W21734   2.925   2.525  11.919 -0.0773 -0.1509 -0.1001
 3531W        W21735  10.074   5.463   0.763 -0.0034  0.1703  0.0841
 3532W        W21736   0.662   9.686  11.415  0.0401  0.3182  0.1647
 3533W        W21737   1.366  13.415   0.850 -0.3632 -0.2001 -0.1023
 3534W        W21738   2.677  12.414   3.657  0.0797 -0.1396  0.3735
 3535W        W21739  18.668   2.460   3.573  0.1631  0.0726  0.1799
 3536W        W21740  18.066   0.992  13.435 -0.1319  0.0476 -0.4466
 3537W        W21741  12.207   0.576   2.904 -0.0076  0.1064 -0.4311
 3538W        W21742  14.544   3.504   3.859 -0.1310  0.1924  0.1540
 3539W        W21743   8.598   6.449   2.918 -0.0102  0.3498  0.1348
 3540W        W21744   2.032   1.070  14.008 -0.0735  0.3763 -0.1010
 3541W        W21745   2.348   5.684   1.308  0.2995  0.0815 -0.0526
 3542W        W21746   9.200  12.362  13.344 -0.1175 -0.1320 -0.1449
 3543W        W21747   1.261  13.658   3.914  0.3346 -0.2857  0.2336
 3544W        W21748  14.051   8.940   1.510 -0.1448  0.1004 -0.2252
 3545W        W21749  15.274  13.326  12.164  0.0004  0.1026 -0.1779
 3546W        W21750  15.774  11.528   0.206 -0.0097 -0.2228 -0.2700
 3547W        W21751  17.224  18.317  10.762  0.0254 -0.1898  0.2949
 3548W        W21752  11.044  10.563   0.572  0.2457 -0.1968 -0.3938
 3549W        W21753  18.170   2.571   2.769  0.1545  0.3786 -0.1635
 3550W        W21754   1.917   0.422   4.565  0.4098 -0.0679  0.1268
 3551W        W21755   1.199  10.281   0.016  0.0339  0.0169 -0.0345
 3552W        W21756  16.721  12.449  12.420  0.0204 -0.0401  0.1981
 3553W        W21757  17.545  13.887   2.449 -0.1304 -0.2039 -0.1975
 3554W        W21758  17.239  16.718   4.399  0.0252 -0.0301 -0.0881
 3555W        W21759  15.961  17.502   0.750 -0.0589 -0.0136 -0.0429
 3556W        W21760  15.098   6.919  14.890 -0.2148  0.0565  0.2159
 3557W        W21761  13.268   4.600   2.069  0.0371  0.0677 -0.1599
 3558W        W21762   8.355   1.934  14.177 -0.0240 -0.0066 -0.0130
 3559W        W21763   3.249   5.132   3.127  0.3382  0.3874  0.1002
 3560W        W21764   6.774   8.710   0.452 -0.2350  0.0389  0.1227
 3561W        W21765  13.896   6.819  13.432 -0.2366  0.0038  0.0942
 3562W        W21766   4.127   2.711  12.018 -0.2889 -0.0072  0.2092
 3563W        W21767   7.940   7.684  15.083 -0.2832  0.3823 -0.1974
 3564W        W21768  15.317   5.502   0.468 -0.1758  0.1248 -0.1109
 3565W        W21769  18.335   7.215   0.237 -0.1689  0.3108  0.0245
 3566W        W21770  12.006  18.142  13.550  0.2327  0.0044  0.2376
 3567W        W21771  12.361   9.577   3.925 -0.1577 -0.1595 -0.1169
 3568W        W21772  18.539   4.791   0.760 -0.4843 -0.0405  0.4418
 3569W        W21773   3.544  13.569   3.033  0.3140  0.0783 -0.0068
 3570W        W21774   1.914   1.333   1.857 -0.0115  0.3091  0.1063
 3571W        W21775   9.201  10.312   4.581 -0.0784  0.1407 -0.0070
 3572W        W21776   2.488  17.286   2.647 -0.0223 -0.2043 -0.3048
 3573W        W21777   7.233  13.447  12.992 -0.3826 -0.2732 -0.1510
 3574W        W21778   1.751  11.819   2.144 -0.1659  0.0524  0.1686
 3575W        W21779   6.899  10.201  13.901 -0.0578 -0.3043  0.2393
 3576W        W21780   6.763   4.876   2.801 -0.0598  0.1255  0.1553
 3577W        W21781   2.943  12.441  12.307  0.1598 -0.2805  0.0447
 3578W        W21782   5.160  18.650   0.778  0.0165  0.1374 -0.0943
 3579W        W21783   8.339  10.210   2.788  0.0064  0.0125  0.1384
 3580W        W21784  18.524   8.960   4.124  0.0135 -0.3009  0.0550
 3581W        W21785  18.232  16.631  14.106  0.1907  0.0072 -0.1764
 3582W        W21786   5.963  14.223  10.852 -0.0151  0.0886  0.3683
 3583W        W21787   9.059  12.792  15.376 -0.1930 -0.1472  0.0559
 3584W        W21788   8.272  14.896   0.183 -0.1734 -0.0890  0.1165
 3585W        W21789   6.162  17.456  10.951  0.7612 -0.2528  0.1975
 3586W        W21790  15.220   0.883  13.771  0.2056 -0.0568  0.3326
 3587W        W21791   0.669  10.681   1.771  0.1153 -0.3516  0.0122
 3588W        W21792  15.246  12.729  15.310 -0.0417  0.1453 -0.0590
 3589W        W21793  10.212  17.894   2.816 -0.0646 -0.3285  0.2428
 3590W        W21794   7.441   8.865  13.386 -0.0510 -0.0425 -0.0755
 3591W        W21795   7.708   3.550   0.890 -0.0005  0.0153 -0.0955
 3592W        W21796   8.544  15.534   0.744  0.0908  0.1029  0.1764
 3593W        W21797  15.511  15.594  15.449  0.1236 -0.2287 -0.0375
 3594W        W21798  15.341   6.057   3.701  0.2101 -0.3384  0.2440
 3595W        W21799   5.196   0.340  13.024 -0.0410 -0.2888  0.1231
 3596W        W21800   7.075   3.319  13.392  0.0527  0.1137  0.3028
 3597W        W21801   1.316   0.338   3.338 -0.2759 -0.0871  0.0165
 3598W        W21802  13.410   3.520   4.475  0.1074  0.0162 -0.1860
 3599W        W21803   1.952  15.961  10.981 -0.0920 -0.0701  0.1678
 3600W        W21804  13.135   6.414   3.379  0.0595 -0.1949  0.1061
 3601W        W21805   9.171   7.674   0.339 -0.2259  0.1091 -0.3755
 3602W        W21806  16.263   4.610   5.112  0.0276  0.2453 -0.0577
 3603W        W21807   8.003  16.531   1.574  0.0400  0.0432 -0.0556
 3604W        W21808  10.005   4.266   0.818  0.0663  0.1974 -0.3165
 3605W        W21809   2.567   4.584  14.665  0.3845  0.2100  0.1501
 3606W        W21810   4.199   7.343   4.491  0.3355 -0.2417 -0.2103
 3607W        W21811  15.794  10.077   4.817 -0.0095 -0.2719 -0.0730
 3608W        W21812  10.734  15.309   2.645  0.2419 -0.1212  0.0505
 3609W        W21813   9.479  16.572  14.057  0.5139  0.0231  0.0883
 3610W        W21814   3.206   7.775  13.008  0.1705 -0.2995  0.0602
 3611W        W21815   6.240   5.289  12.147  0.0398  0.0388 -0.2107
 3612W        W21816   7.368  18.360  11.249 -0.2178  0.1873 -0.4021
 3613W        W21817  11.585   7.769  13.746 -0.1293  0.2846  0.2888
 3614W        W21818  16.625   4.064   3.222  0.0565  0.2900  0.2039
 3615W        W21819  16.079  10.543  14.304  0.1576 -0.0084 -0.0689
 3616W        W21820   4.093   2.115   3.852 -0.1417 -0.1658  0.0357
 3617W        W21821   4.262  12.588   1.627  0.0961  0.0024 -0.1281
 3618W        W21822  12.754  17.022   4.660  0.1477 -0.1580 -0.2355
 3619W        W21823  16.112  14.104   4.051  0.1314  0.0547 -0.0821
 3620W        W21824   7.908   0.932   4.786 -0.0674 -0.4637 -0.0009
 3621W        W21825   3.703   5.136   1.451 -0.2117 -0.1824  0.1387
 3622W        W21826   5.922  11.893  13.794 -0.0065 -0.0525 -0.1332
 3623W        W21827   3.041  11.856  13.157  0.3356  0.4335 -0.0930
 3624W        W21828   2.303  14.997   2.682 -0.1057 -0.0956 -0.2771
 3625W        W21829  17.904   4.835   1.518 -0.0416  0.0380 -0.3259
 3626W        W21830   5.508   1.302   0.439 -0.0239  0.1116 -0.1771
 3627W        W21831  11.858   4.606   1.874 -0.2447  0.3342  0.0413
 3628W        W21832  11.429   5.425  13.523 -0.1188  0.1433  0.1773
 3629W        W21833   7.155  13.257  14.323  0.3976  0.1294  0.3866
 3630W        W21834   4.903  17.028  13.721 -0.1112  0.0283  0.0681
 3631W        W21835   2.044   5.996   4.221 -0.0644  0.1015 -0.0263
 3632W        W21836   1.099   8.259  11.536  0.0581  0.0337  0.2070
 3633W        W21837   0.691   0.989   2.441  0.1674  0.1534 -0.1495
 3634W        W21838  10.938   0.167  11.574 -0.0334 -0.0113 -0.0535
 3635W        W21839   5.152   2.494  10.976 -0.0262 -0.2936 -0.1340
 3636W        W21840  13.759   4.285   2.024  0.3310  0.0794  0.3195
 3637W        W21841  18.482   3.964   4.447 -0.1775  0.3461  0.0652
 3638W        W21842  13.295  17.956  11.850  0.3019 -0.4585  0.1185
 3639W        W21843   1.269  13.707  11.712 -0.0735 -0.1229 -0.1115
 3640W        W21844   8.212  15.672   1.944 -0.2741 -0.3240  0.0251
 3641W        W21845   1.650  14.032   3.006  0.3566  0.0993 -0.0194
 3642W        W21846  16.833  15.898   1.710  0.1870 -0.0776  0.0024
 3643W        W21847   9.407  14.621  14.371 -0.4456  0.0684 -0.1661
 3644W        W21848  10.052  16.571   2.240 -0.2616  0.0191 -0.2234
 3645W        W21849  18.315   8.648  13.472 -0.1103  0.1537 -0.0196
 3646W        W21850   5.284   1.151   2.507 -0.2267  0.2410  0.0418
 3647W        W21851   5.535  18.201   2.043  0.1246  0.1531  0.1001
 3648W        W21852   4.319  17.930  13.473 -0.4208  0.1149 -0.1015
 3649W        W21853  10.857   8.513  13.146  0.1058  0.1757 -0.0453
 3650W        W21854   4.295   1.417  13.257  0.0600 -0.0995 -0.3395
 3651W        W21855  18.295   9.774  10.543 -0.0118 -0.0106 -0.3821
 3652W        W21856  16.683  13.093  15.357 -0.4023  0.0064  0.1629
 3653W        W21857   4.377  12.008   4.654  0.0193  0.1356  0.4348
 3654W        W21858   5.613  16.591   0.726  0.3747  0.1875 -0.0233
 3655W        W21859   2.434   3.525   1.860  0.2486 -0.0794  0.1919
 3656W        W21860  12.504  15.877  11.148  0.4463 -0.0137 -0.0870
 3657W        W21861   0.024  11.829  14.528  0.2014 -0.0321 -0.2338
 3658W        W21862   3.004  18.222   5.062 -0.2636  0.0027  0.0522
 3659W        W21863  16.928  18.033  13.078  0.3371  0.0852 -0.3231
 3660W        W21864  16.243  16.261  15.111 -0.0997 -0.0281 -0.1018
 3661W        W21865  18.309  11.074  14.972 -0.0157 -0.1654  0.2514
 3662W        W21866   9.304  10.050   3.167 -0.0284  0.1161 -0.0048
 3663W        W21867   7.264  16.105  13.464 -0.0301 -0.1832 -0.2982
 3664W        W21868   7.653   2.237  14.350 -0.0110  0.3157 -0.1051
 3665W        W21869   1.620   9.962   2.099 -0.0173 -0.0210  0.1977
 3666W        W21870   5.812  12.459   0.929 -0.2431  0.0703  0.0712
 3667W        W21871   0.695  13.531   0.266 -0.0613  0.0958  0.2231
 3668W        W21872   4.929  10.145   2.568 -0.1720 -0.0777 -0.0820
 3669W        W21873  17.826  12.127  14.240  0.2795  0.0052  0.1461
 3670W        W21874  17.231  12.490   0.593 -0.1303  0.0657  0.2234
 3671W        W21875  15.424  13.246  15.339 -0.2445 -0.0056  0.0355
 3672W        W21876  10.159   5.170   2.067  0.2098  0.1211 -0.0512
 3673W        W21877  18.419  11.162  14.049 -0.0148  0.0699 -0.1734
 3674W        W21878   0.297  13.279   5.324 -0.3377  0.4370 -0.0191
 3675W        W21879   6.456  14.588   9.724 -0.2788  0.1629 -0.1629
 3676W        W21880  15.077   4.807  14.831 -0.2592  0.1758  0.1206
 3677W        W21881   2.937   7.104   3.229  0.3046  0.2721  0.1187
 3678W        W21882   9.942   8.794  12.297 -0.1154  0.1580  0.1981
 3679W        W21883  17.152  11.736   3.030  0.2879  0.2157  0.1874
 3680W        W21884   6.423   3.662   3.111 -0.1498  0.1917 -0.1033
 3681W        W21885   0.153   7.288   0.164 -0.1904  0.0065 -0.1098
 3682W        W21886  11.590  16.186  10.946 -0.1024  0.1447 -0.0759
 3683W        W21887   2.936   1.653   2.578 -0.1346  0.0764  0.0246
 3684W        W21888   2.773  15.511   1.938  0.1729 -0.1926 -0.2629
 3685W        W21889   1.785  10.123   3.078 -0.2769  0.3604 -0.1586
 3686W        W21890  13.091  10.176  11.166 -0.0348 -0.0255 -0.2826
 3687W        W21891  15.726   4.378  13.639  0.1634  0.2280  0.4494
 3688W        W21892   9.509   7.042   1.486 -0.0345 -0.0197 -0.3701
 3689W        W21893   8.597   4.035   4.107 -0.2314 -0.0914  0.2950
 3690W        W21894   8.810  14.817  10.971  0.0169  0.0377  0.0521
 3691W        W21895   5.064   8.990  14.276 -0.1070  0.2179  0.0628
 3692W        W21896  12.884   4.821  14.221 -0.2865 -0.3106 -0.0378
 3693W        W21897   8.870   3.060  14.688  0.1813  0.2440 -0.0328
 3694W        W21898  16.789   8.441   3.660 -0.3927  0.0558  0.1168
 3695W        W21899   8.542   6.863  15.432  0.1226  0.0815 -0.0628
 3696W        W21900   1.534  16.724  13.980 -0.2759 -0.2086 -0.1872
 3697W        W21901  16.165   3.233  15.170 -0.3961 -0.0594  0.0409
 3698W        W21902  16.035  18.549  11.491 -0.0665 -0.0050  0.0994
 3699W        W21903  17.026   7.403   2.563  0.2901 -0.0996 -0.0028
 3700W        W21904   9.980  13.461   3.890  0.0642  0.0516  0.0548
 3701W        W21905  18.517  17.215   0.428 -0.1612  0.1754 -0.3901
 3702W        W21906  12.179  11.897  14.715  0.0646 -0.3963 -0.1445
 3703W        W21907   1.460  17.984   5.560 -0.3450  0.2841 -0.2180
 3704W        W21908   6.681   7.687  12.959  0.0020 -0.2031  0.0173
 3705W        W21909  10.270   1.493  12.411 -0.2054  0.2269  0.1303
 3706W        W21910  13.505   2.528   1.046  0.1300  0.0442 -0.0337
 3707W        W21911  17.201   9.921  14.076  0.0670  0.1640 -0.2026
 3708W        W21912   8.796   3.381   0.494  0.1169 -0.0288 -0.2042
 3709W        W21913   5.849  14.299   2.631 -0.0818 -0.0261 -0.1715
 3710W        W21914   1.353  11.223   1.614  0.0011 -0.0893 -0.2934
 3711W        W21915  16.938   5.631  10.569 -0.0521 -0.2613 -0.0541
 3712W        W21916  10.413  16.822  14.586  0.0008 -0.2863  0.2781
 3713W        W21917   1.814   9.728   1.690 -0.3061  0.0244 -0.1876
 3714W        W21918   8.129  12.434   2.002  0.1316 -0.1261 -0.4966
 3715W        W21919   7.040   5.573  14.387 -0.0587  0.1711  0.1315
 3716W        W21920   0.625   1.061   0.271 -0.1254  0.2034 -0.5769
 3717W        W21921   1.912  18.652  14.856  0.0900 -0.2994  0.1649
 3718W        W21922   6.047  11.780   1.955  0.1926 -0.3826  0.2195
 3719W        W21923   7.314   5.345   3.917  0.3093  0.4131  0.0564
 3720W        W21924  13.006   1.223  10.776 -0.0912 -0.0634  0.3813
 3721W        W21925   7.841   8.786   0.371  0.0922 -0.4201 -0.0406
 3722W        W21926  12.358  10.172   0.224  0.0980  0.0477 -0.0128
 3723W        W21927  15.531  13.467   5.618  0.4083  0.0536  0.1836
 3724W        W21928   3.047   2.289   3.910  0.0427  0.0466 -0.0214
 3725W        W21929  15.447   9.292  12.242 -0.1740 -0.0483  0.0361
 3726W        W21930  12.595  11.650   5.677 -0.2794  0.0940  0.0377
 3727W        W21931   4.118  16.608   4.372 -0.0989 -0.2025  0.1553
 3728W        W21932   8.029   6.127   0.177 -0.1794 -0.1739 -0.2846
 3729W        W21933  16.307   3.971  12.742 -0.0821  0.1488 -0.1224
 3730W        W21934   5.217  13.307   0.074  0.2663  0.0454  0.0226
 3731W        W21935   4.736   4.974  10.440 -0.0110 -0.1065  0.1538
 3732W        W21936   8.840  10.735  14.038  0.0744  0.1340 -0.1572
 3733W        W21937  15.043   3.090  11.773 -0.1224 -0.0248 -0.1615
 3734W        W21938  16.250   7.107  10.859 -0.1261  0.0954  0.0205
 3735W        W21939   4.100   5.713   0.730  0.0310 -0.1468 -0.5557
 3736W        W21940  13.844   7.697   4.725 -0.1682  0.1233 -0.0816
 3737W        W21941  15.810   0.969   1.062 -0.2142 -0.2288 -0.1067
 3738W        W21942   4.515   8.016  10.996  0.0789 -0.0670  0.1560
 3739W        W21943  12.817  17.275  13.395 -0.1085  0.0206 -0.0619
 3740W        W21944  15.609   6.918   2.634  0.2905 -0.2351  0.0589
 3741W        W21945  11.600  13.899   1.902  0.0882  0.1567 -0.1837
 3742W        W21946   7.094   8.800  13.065 -0.0287 -0.2406 -0.2563
 3743W        W21947  16.719  13.853  11.326  0.1068  0.0675 -0.1356
 3744W        W21948   3.462   0.432  10.141  0.1061  0.2339 -0.1147
 3745W        W21949   1.497  14.120  13.392  0.1431 -0.2135 -0.1605
 3746W        W21950  12.053  11.028  10.957 -0.0838  0.0901 -0.0191
 3747W        W21951  10.075   4.922   0.087  0.2785  0.4697 -0.1088
 3748W        W21952  12.356  10.738   0.736 -0.2117 -0.6489  0.1210
 3749W        W21953   8.634   2.930   0.401  0.0124  0.0236  0.1245
 3750W        W21954  12.985   9.894   0.768  0.0282 -0.0222 -0.0541
 3751W        W21955   3.873  12.974   0.986 -0.3362 -0.0087  0.1470
 3752W        W21956  14.451  14.180   2.316  0.0503 -0.0312 -0.1576
 3753W        W21957   6.681  14.225   1.887  0.1889  0.2320  0.1018
 3754W        W21958   1.672  14.617  12.433  0.0536  0.0942 -0.2754
 3755W        W21959  17.109   1.678  11.162  0.0369 -0.1465  0.1043
 3756W        W21960   6.589  10.139  10.964  0.1223 -0.1454  0.1352
 3757W        W21961  15.699   2.436   1.421 -0.0251  0.0365  0.1630
 3758W        W21962   1.071   0.653  14.862 -0.1962 -0.1559 -0.2717
 3759W        W21963   6.746   5.033   2.306  0.1066 -0.0882 -0.5260
 3760W        W21964  18.495  14.720  11.583  0.0887 -0.0282  0.1622
 3761W        W21965   6.092   4.556   1.724 -0.4367  0.0976 -0.1906
 3762W        W21966   6.107  11.238  13.271 -0.2359  0.0978  0.0403
 3763W        W21967   2.956   1.168  14.181 -0.0116 -0.0307  0.0477
 3764W        W21968  12.853   0.803   3.462 -0.0927 -0.0726 -0.0717
 3765W        W21969   6.364   0.385   2.504  0.4203  0.4135  0.3211
 3766W        W21970   9.096   4.032   0.613 -0.0861  0.0068  0.1077
 3767W        W21971  14.718  14.581   2.613 -0.0467  0.4522  0.1748
 3768W        W21972  12.945  11.821  12.355 -0.0652 -0.0671  0.0473
 3769W        W21973   7.301  12.069   3.635  0.0518  0.0264  0.1650
 3770W        W21974   2.627   7.041  15.163 -0.0318 -0.0248  0.0225
 3771W        W21975  13.754   5.364  12.632  0.0187  0.2582 -0.0219
 3772W        W21976   9.028  11.391  10.908  0.1191 -0.2823  0.0652
 3773W        W21977  12.422   2.819  12.184 -0.1596 -0.2271 -0.1324
 3774W        W21978   4.301   1.912   4.887 -0.0859  0.0332 -0.0940
 3775W        W21979  11.022   8.416   2.316  0.0708 -0.0337 -0.2253
 3776W        W21980   3.331   5.274   3.596  0.1219 -0.0111 -0.0187
 3777W        W21981  11.239   0.057   1.966  0.3576 -0.0813  0.0728
 3778W        W21982  15.453   9.323   2.158  0.1985  0.2559 -0.3461
 3779W        W21983  14.207  11.572   1.556 -0.0420  0.0362  0.2634
 3780W        W21984   1.812   7.620   1.465  0.1335  0.0949  0.0748
 3781W        W21985   9.534   6.903   2.725  0.0061  0.1033 -0.0833
 3782W        W21986   9.217  14.022   4.638  0.2169  0.1483  0.2311
 3783W        W21987   5.765  17.824  10.378 -0.2298  0.0802  0.1611
 3784W        W21988  17.329   5.619  13.537  0.1079  0.2248  0.1712
 3785W        W21989  13.227  16.524   3.192 -0.1645  0.3437  0.3437
 3786W        W21990  16.010  12.611   4.648 -0.0999  0.2419  0.2410
 3787W        W21991  10.154   2.838  14.663 -0.1667  0.0787 -0.0710
 3788W        W21992  14.185  10.645  14.305  0.4154  0.2374 -0.0697
 3789W        W21993  14.989  10.642   2.863  0.2397  0.1949 -0.0520
 3790W        W21994   0.835   7.530  14.013  0.2523  0.1221  0.1518
 3791W        W21995  12.226  18.104  12.664  0.3655  0.0857 -0.1137
 3792W        W21996  14.427  11.013  14.430  0.0926 -0.0039 -0.1957
 3793W        W21997   0.648  17.435   2.342  0.0617  0.1826 -0.1896
 3794W        W21998   8.283   5.374  13.912  0.0280  0.0680  0.0800
 3795W        W21999   9.760   4.414   1.858 -0.2168 -0.0196 -0.0105
 3796W        W22000  18.396   6.812  13.476 -0.2734  0.1482 -0.1775
 3797W        W22001   2.704   0.968   2.992  0.0620 -0.0096  0.0356
 3798W        W22002  16.827   4.560  13.723 -0.1390  0.0185  0.0128
 3799W        W22003  10.804   3.163  15.326  0.2489 -0.0312  0.2654
 3800W        W22004   4.289  14.478   9.723  0.0246  0.2963 -0.2289
 3801W        W22005   7.725  11.366  12.709  0.4829  0.0964 -0.0191
 3802W        W22006   5.230   2.373  11.932 -0.1992  0.1850 -0.2156
 3803W        W22007  11.828   4.216  11.387  0.0911  0.0769  0.3691
 3804W        W22008  12.703   9.192  12.595 -0.2932  0.2477  0.0759
 3805W        W22009  18.401  14.216  14.781  0.0742 -0.0964 -0.0068
 3806W        W22010   2.496  12.612  15.027 -0.0811 -0.2088  0.3001
 3807W        W22011  17.477  10.092   1.022 -0.4453  0.0098  0.0910
 3808W        W22012   4.282  15.678  10.899  0.2858  0.3315 -0.5987
 3809W        W22013   3.850  17.520  11.376  0.0638  0.0035  0.4289
 3810W        W22014   0.315   8.872   0.152  0.1536 -0.0251  0.3067
 3811W        W22015  17.008   9.272   4.407 -0.0680  0.2091  0.0650
 3812W        W22016   7.047   8.980   1.286  0.4476  0.0942 -0.0970
 3813W        W22017  17.187  11.214   1.736  0.1406 -0.2007  0.0767
 3814W        W22018  15.093  15.541  11.190 -0.5033 -0.0278  0.1885
 3815W        W22019  15.724  16.683   4.881  0.1474  0.0875 -0.0273
 3816W        W22020  16.976   8.865  15.032 -0.0272  0.0721 -0.4329
 3817W        W22021   1.439  15.821  11.923 -0.0315 -0.3894 -0.3836
 3818W        W22022   4.000   7.560   2.100  0.0332 -0.0223 -0.1566
 3819W        W22023   5.365  16.278   4.173  0.1805  0.2748 -0.2652
 3820W        W22024   6.548   0.828  13.160 -0.2268  0.0736 -0.1683
 3821W        W22025  16.753   6.338  13.442 -0.4853  0.4121 -0.0056
 3822W        W22026  13.198   6.160   4.138 -0.1425  0.5320  0.1613
 3823W        W22027   5.470   8.365  13.679  0.1556 -0.1071 -0.1271
 3824W        W22028   2.037   5.953  12.022  0.0523 -0.1019  0.2338
 3825W        W22029   5.889  16.190  14.775  0.2728  0.0703 -0.0437
 3826W        W22030  17.972   0.262  14.181 -0.2219 -0.0370  0.0093
 3827W        W22031   2.927   3.162  14.633 -0.3886  0.0486 -0.2622
 3828W        W22032   9.021  12.083   0.459  0.1647  0.0328  0.0676
 3829W        W22033  13.570  18.681  14.390 -0.0928  0.0386 -0.2847
 3830W        W22034  16.262  13.505   2.026 -0.2160  0.0668  0.1546
 3831W        W22035  13.899  11.970   3.244 -0.0301 -0.0041 -0.0421
 3832W        W22036  13.278   8.515   2.650  0.1218  0.3786 -0.1633
 3833W        W22037   7.724  16.756  14.974  0.1965  0.1879  0.0790
 3834W        W22038   9.612  14.641  15.375  0.0139  0.2433  0.2905
 3835W        W22039   8.723   0.051  14.654  0.1097  0.0121 -0.1998
 3836W        W22040  14.540  18.084  12.757 -0.1425 -0.0576 -0.2250
 3837W        W22041  12.784   1.711   3.600 -0.1510  0.0213  0.2392
 3838W        W22042   1.402  10.963   3.564 -0.0058  0.1066  0.0003
 3839W        W22043   8.595  15.988  12.545 -0.0343 -0.4241  0.2919
 3840W        W22044   4.514  12.713   0.220 -0.0754 -0.3963 -0.2360
 3841W        W22045  16.956  13.397   0.830  0.0751  0.1655  0.1164
 3842W        W22046   2.790  16.475  12.129  0.2037 -0.1578  0.0959
 3843W        W22047  12.517   1.271   2.735  0.2848 -0.0951  0.5371
 3844W        W22048   4.134  14.782  11.187  0.0634  0.0657 -0.0095
 3845W        W22049   3.401  12.602   4.650 -0.0980  0.1539  0.1327
 3846W        W22050  17.167  10.022   1.461 -0.3738  0.0644 -0.1706
 3847W        W22051  13.358   4.037  13.097  0.3193  0.1063  0.0628
 3848W        W22052  12.939   0.468   4.403  0.2136 -0.2181 -0.0966
 3849W        W22053  15.826  15.398   2.519  0.0885 -0.0207  0.1632
 3850W        W22054   6.651  12.618   1.009 -0.3648 -0.5474 -0.0488
 3851W        W22055  12.104   5.553  13.129  0.1545 -0.0745  0.0426
 3852W        W22056  10.739   1.126   0.062 -0.0888 -0.0382  0.0186
 3853W        W22057   5.527  18.419   1.623 -0.2791  0.0290 -0.0106
 3854W        W22058   1.258   0.552  13.612  0.1651  0.2751 -0.2568
 3855W        W22059  18.210  14.577  10.972  0.2174  0.0224 -0.1457
 3856W        W22060   2.533   1.822   1.053 -0.1449  0.0081 -0.5545
 3857W        W22061  13.363   2.015  12.508  0.0112 -0.4038  0.1118
 3858W        W22062   0.723   3.819   2.258 -0.1782 -0.0090  0.1106
 3859W        W22063   1.489  13.239  11.700 -0.1038 -0.3219 -0.3509
 3860W        W22064   2.960  10.445   1.571 -0.0094  0.0610  0.0429
 3861W        W22065   3.916  18.465  14.829 -0.2061 -0.2159 -0.1120
 3862W        W22066  14.375   4.264  13.874  0.1075 -0.2311 -0.0542
 3863W        W22067  17.543   4.165   0.007 -0.2664 -0.4500 -0.0399
 3864W        W22068   4.305  10.389  11.110 -0.0480 -0.0808 -0.3166
 3865W        W22069  17.241  13.093  14.082 -0.4002  0.1045 -0.0068
 3866W        W22070  17.142   9.769  14.709 -0.0496 -0.4875 -0.0779
 3867W        W22071  14.620  16.168   1.396  0.0806  0.1071 -0.1780
 3868W        W22072   0.825  15.563  12.723 -0.0674 -0.4026  0.3371
 3869W        W22073   1.636  13.138   5.506 -0.3373 -0.0678 -0.2190
 3870W        W22074   0.650  13.517  11.035  0.1468 -0.1186 -0.0002
 3871W        W22075   6.893  12.025   3.035 -0.2022 -0.2187 -0.0988
 3872W        W22076  18.457  12.342  14.277 -0.1035  0.0493 -0.2074
 3873W        W22077  17.779  16.243   3.600 -0.1037  0.1719 -0.2256
 3874W        W22078  18.008   9.885  11.566 -0.1613  0.0992 -0.0424
 3875W        W22079  17.340   7.912   1.526  0.0981 -0.1218 -0.0305
 3876W        W22080  11.512   4.504   4.317  0.1080 -0.2220 -0.2607
 3877W        W22081   0.734  16.925  13.561 -0.0935  0.1127  0.1833
 3878W        W22082   0.520   8.042   1.804  0.0051  0.0498 -0.0035
 3879W        W22083   8.247  17.755  12.281  0.0343  0.0172  0.0050
 3880W        W22084   5.908   1.494  11.300 -0.2377 -0.0072 -0.0434
 3881W        W22085   4.027   9.753  14.456 -0.3947  0.0719  0.0609
 3882W        W22086  17.155  16.240   2.245  0.1296  0.3477 -0.2098
 3883W        W22087   9.759  16.869   2.549  0.3226 -0.0398 -0.1829
 3884W        W22088  14.307  12.968  14.340  0.1815 -0.0556  0.3437
 3885W        W22089   6.552  10.488   4.469  0.3021 -0.1171  0.0723
 3886W        W22090   4.548  16.388  12.602 -0.0517  0.1768  0.1142
 3887W        W22091   2.219  12.310  11.172 -0.0903 -0.2060  0.1851
 3888W        W22092  15.056  12.452   4.091  0.2269  0.1765  0.1792
 3889W        W22093   4.471   5.123   3.072 -0.0390 -0.0137  0.1523
 3890W        W22094  13.379  13.189   4.635 -0.1385  0.0340 -0.4883
 3891W        W22095  15.978  18.107   4.742 -0.1570 -0.4629  0.0039
 3892W        W22096   8.693   7.048   3.105  0.1256  0.2160  0.0713
 3893W        W22097  15.003  11.478   3.556 -0.1252  0.0702 -0.0290
 3894W        W22098  13.083   1.569   2.589  0.1843 -0.1237  0.3984
 3895W        W22099   5.423  12.353  11.901  0.2771  0.1557  0.3222
 3896W        W22100   6.515  16.066  13.394 -0.1506  0.1664  0.1708
 3897W        W22101  13.498  18.415   3.876  0.3482 -0.1120  0.0620
 3898W        W22102   1.560  11.556   0.141 -0.0697 -0.1031  0.0771
 3899W        W22103   0.391   7.545  13.698  0.2297  0.0426  0.2316
 3900W        W22104   6.235  16.954   4.506 -0.0860 -0.0193  0.2615
 3901W        W22105  17.457  12.047   1.899  0.0973  0.1036 -0.3868
 3902W        W22106   0.267   8.743   2.393 -0.1632 -0.1576 -0.1461
 3903W        W22107   3.986   5.973   4.421 -0.2596  0.1484  0.0015
 3904W        W22108   6.190  15.667  12.840 -0.4113  0.2257 -0.0899
 3905W        W22109  15.722  10.877   1.404  0.0585  0.0039 -0.2735
 3906W        W22110   8.538  16.931  15.310 -0.2180 -0.2646 -0.0692
 3907W        W22111   2.688  12.903   5.523 -0.1812 -0.1111  0.3581
 3908W        W22112  11.998   6.378  12.084  0.0857 -0.2845 -0.0779
 3909W        W22113   1.368  15.169   2.957 -0.2222 -0.1030  0.1824
 3910W        W22114   4.231   1.769  11.719  0.0219 -0.4447 -0.0671
 3911W        W22115   8.354   4.043  15.455  0.0232 -0.1267 -0.0716
 3912W        W22116   2.011   2.187  12.052 -0.3433  0.1185 -0.1888
 3913W        W22117   6.555  15.304  12.875  0.1777 -0.3426  0.3031
 3914W        W22118  14.001  11.073   3.089  0.1449 -0.2794  0.1414
 3915W        W22119   6.585  12.212  11.248  0.0574  0.4149 -0.0263
 3916W        W22120  17.992   1.181  10.140 -0.1282  0.2197 -0.0751
 3917W        W22121   5.546  16.967  11.883  0.2138 -0.1313  0.3209
 3918W        W22122   5.121  17.766   3.394  0.2538  0.1647 -0.1597
 3919W        W22123   5.393  17.369  14.404  0.0026  0.1056  0.0788
 3920W        W22124  18.050   8.176  12.628  0.1391  0.0144 -0.0196
 3921W        W22125  11.174   4.197   2.827 -0.2943  0.1001  0.0542
 3922W        W22126  12.826  12.168   4.210 -0.3252 -0.3111 -0.0636
 3923W        W22127   8.065   9.793   0.012 -0.0851  0.0758  0.0582
 3924W        W22128  14.050   0.425   4.128  0.0292  0.0453 -0.2277
 3925W        W22129   0.771  14.704  12.433 -0.1447 -0.0118 -0.0972
 3926W        W22130  13.085   1.221   0.087 -0.0458 -0.2084  0.1333
 3927W        W22131   6.302  18.370   4.398 -0.2269  0.0132  0.3727
 3928W        W22132   9.906   5.263  12.282 -0.2222 -0.0989 -0.1684
 3929W        W22133  15.397   2.793   1.729 -0.1741 -0.3048 -0.0901
 3930W        W22134   2.403   9.225   0.619  0.0466  0.0370  0.2661
 3931W        W22135  13.953   5.934  11.580  0.2519  0.1444 -0.0503
 3932W        W22136  17.317  16.322  12.962 -0.1682 -0.2042  0.0198
 3933W        W22137   0.359  16.084   2.622 -0.2244 -0.1344  0.2710
 3934W        W22138   3.801  13.052  10.740 -0.1737  0.1563  0.0426
 3935W        W22139   9.165  17.088  12.119 -0.1669  0.4121 -0.2302
 3936W        W22140  17.719   1.260   3.273 -0.4830  0.1995 -0.0158
 3937W        W22141   4.037   2.766   3.081  0.2131  0.0156 -0.1170
 3938W        W22142   7.523   2.168  12.913  0.0112 -0.1389  0.0731
 3939W        W22143  13.130   4.739   2.607 -0.0512  0.1689 -0.0932
 3940W        W22144  15.376   9.858   4.432  0.0669 -0.0926 -0.1526
 3941W        W22145   2.495  17.549  12.569 -0.2569  0.0426  0.1087
 3942W        W22146  16.092  18.223   3.512  0.1758 -0.0500 -0.0018
 3943W        W22147   1.070  14.205  14.738  0.0590  0.3374  0.2343
 3944W        W22148   1.623  10.546   2.798 -0.0781  0.1752  0.0811
 3945W        W22149  17.358  18.312  13.778 -0.1591  0.1550 -0.2011
 3946W        W22150  18.265   7.726   0.274  0.3535  0.0905  0.3034
 3947W        W22151   9.092  11.087   3.144  0.1189  0.0581  0.0056
 3948W        W22152   4.167  12.210   1.194 -0.0700  0.0401 -0.2767
 3949W        W22153   1.249  17.634   4.086 -0.2541  0.1491 -0.0787
 3950W        W22154  13.058  17.138  12.539  0.0610  0.1752 -0.3908
 3951W        W22155   5.088   2.330   1.135  0.1300  0.0650 -0.2824
 3952W        W22156  12.536  14.879   2.240  0.2281 -0.1435 -0.1081
 3953W        W22157   6.395   9.048   1.892  0.2864  0.2855  0.1145
 3954W        W22158   4.468   0.553  12.715  0.0762  0.2014  0.3862
 3955W        W22159  11.884   8.438  11.234 -0.1219 -0.2456  0.0491
 3956W        W22160  12.412   9.948  11.758  0.2873 -0.1425  0.0741
 3957W        W22161  17.208   2.809   4.399  0.0284  0.0779 -0.1787
 3958W        W22162   2.301  10.322   1.283  0.5537 -0.0443  0.0100
 3959W        W22163   7.452  13.579   4.463  0.0208 -0.0348  0.0247
 3960W        W22164  17.412  15.067   4.330  0.1812 -0.0628 -0.1527
 3961W        W22165   7.805  17.750  13.560 -0.1613 -0.3189 -0.0901
 3962W        W22166   9.159  13.121   2.089 -0.0978 -0.4897  0.1990
 3963W        W22167   0.021   8.790  15.200  0.4871  0.0697  0.3791
 3964W        W22168  18.262   1.139   4.322  0.2774 -0.2468  0.1043
 3965W        W22169   7.165   8.193  14.741 -0.0542  0.2351 -0.0293
 3966W        W22170   9.744   4.834  11.047 -0.2785  0.3577  0.2989
 3967W        W22171  16.517   4.104   0.256  0.3511  0.0267  0.0020
 3968W        W22172  11.711  16.318   1.760  0.0375  0.0212 -0.0154
 3969W        W22173   0.482   9.765   3.201 -0.0836 -0.1760  0.1090
 3970W        W22174   7.746   0.768   1.225 -0.1504  0.1242 -0.4341
 3971W        W22175  10.812  11.220   1.238 -0.0453  0.0458  0.0843
 3972W        W22176   8.282   6.972  13.456 -0.0623  0.1536 -0.1210
 3973W        W22177   9.907  14.340  12.653  0.3324 -0.2345  0.0888
 3974W        W22178   2.443  10.517   1.798 -0.0045  0.0919 -0.0224
 3975W        W22179  17.824   1.980  14.382 -0.0839 -0.1265  0.1162
 3976W        W22180   8.565  10.529  15.070  0.4365  0.1162 -0.0115
 3977W        W22181   5.721   5.355   0.679  0.0658 -0.0613 -0.0076
 3978W        W22182  15.474  16.925   2.265  0.5670  0.0944 -0.1859
 3979W        W22183  14.959  14.119  15.009 -0.1776 -0.0858  0.3161
 3980W        W22184  18.199   9.968   2.775  0.2131  0.0743  0.0059
 3981W        W22185  18.609  10.674  11.553  0.1423 -0.3894 -0.1664
 3982W        W22186   1.318   6.526  13.959 -0.3418 -0.0953  0.2139
 3983W        W22187   1.287   1.609   4.389  0.0087 -0.1186 -0.2125
 3984W        W22188   4.687  11.411  13.956  0.1523 -0.1968  0.3137
 3985W        W22189  17.993   4.383   1.500 -0.1905  0.0183  0.2125
 3986W        W22190   1.242  18.442  12.097 -0.1904 -0.0544 -0.0787
 3987W        W22191  11.703  15.378   2.097 -0.2869 -0.1882  0.2699
 3988W        W22192   2.753   5.702   0.932 -0.0936  0.1862 -0.0755
 3989W        W22193  15.442  11.772   2.411  0.2328 -0.2158  0.2731
 3990W        W22194  14.845  15.552   3.048  0.3272 -0.0512  0.0691
 3991W        W22195  10.822   5.755   0.176 -0.1688  0.2826 -0.0756
 3992W        W22196  14.211   3.938  15.224  0.2034  0.2592  0.3950
 3993W        W22197  12.156  12.583  14.063 -0.0707  0.1040 -0.2528
 3994W        W22198   2.029   8.298   4.072  0.1582 -0.0341 -0.2198
 3995W        W22199   2.884  14.627   2.401  0.0448 -0.0846  0.1854
 3996W        W22200  16.326  11.696   4.162  0.1712  0.0710 -0.0582
 3997W        W22201   2.692   7.702  11.491 -0.0486  0.4305  0.0460
 3998W        W22202  11.952   2.002  14.649 -0.0608  0.1531  0.0693
 3999W        W22203   4.724  11.815   2.336  0.0692  0.3269 -0.0818
 4000W        W22204  10.968  18.528  12.072 -0.3133  0.2314  0.0384
 4001W        W22205   4.097  12.217  13.028 -0.1326 -0.0828 -0.0508
 4002W        W22206  17.810  16.368  12.739  0.2216 -0.2742  0.2158
 4003W        W22207   4.547   4.164  11.639  0.1109  0.0155  0.0958
 4004W        W22208  14.291  16.768  10.865  0.4923 -0.1431 -0.0434
 4005W        W22209   6.574   6.515  11.589 -0.0340  0.0820 -0.0408
 4006W        W22210  17.638  15.504  12.334  0.0837 -0.2976  0.0630
 4007W        W22211  16.543   1.468  14.316 -0.0604  0.3882 -0.1244
 4008W        W22212   9.294   3.706  15.442  0.0384  0.3405  0.2951
 4009W        W22213   5.316  11.633  12.688 -0.1871 -0.1688  0.3481
 4010W        W22214  18.619  10.142  12.808 -0.1151 -0.1206  0.0401
 4011W        W22215   3.501   0.328  11.331  0.1933 -0.0602  0.1172
 4012W        W22216  10.791  13.381   4.291 -0.1818 -0.2229 -0.0625
 4013W        W22217  10.072   0.708   2.699 -0.2797  0.2129  0.0356
 4014W        W22218  14.866  18.424   0.380 -0.0173  0.0871  0.3036
 4015W        W22219   5.972   3.757  11.660  0.0079  0.0463 -0.1175
 4016W        W22220   4.781  18.120   3.260 -0.1219 -0.2453 -0.0424
 4017W        W22221  10.929   3.454   2.126 -0.1786 -0.0625 -0.0114
 4018W        W22222   8.929  14.565   0.762  0.0486  0.2490  0.0321
 4019W        W22223   5.290   8.381  11.566  0.1463  0.1953 -0.1522
 4020W        W22224  11.043   6.296   4.966  0.0290 -0.2860  0.0099
 4021W        W22225   5.611  15.998  11.762 -0.0233 -0.0858 -0.0968
 4022W        W22226   0.675   4.721   0.091  0.0231  0.0479  0.1632
 4023W        W22227  11.997  14.199  12.021  0.1323 -0.4960  0.0624
 4024W        W22228   8.889  10.483  12.459 -0.3745  0.0944  0.2623
 4025W        W22229  11.750  10.155   0.105  0.0634  0.3249 -0.1879
 4026W        W22230  13.521  14.774  15.210 -0.0026  0.0448  0.1065
 4027W        W22231   8.943   1.855   3.764  0.2636 -0.1607 -0.1137
 4028W        W22232   4.918  13.815  11.443 -0.0327  0.0660 -0.0885
 4029W        W22233  11.690   8.017  15.112 -0.2532  0.0292  0.2616
 4030W        W22234  11.411   0.993   1.017  0.0274 -0.3899 -0.2170
 4031W        W22235   4.976   0.547  12.071  0.0261  0.0840  0.2722
 4032W        W22236   9.331  10.042   0.028 -0.1420 -0.1995  0.2280
 4033W        W22237   3.010  10.075  10.677  0.0481 -0.0174  0.2305
 4034W        W22238  14.884   3.618  14.197  0.1133 -0.1580  0.1759
 4035W        W22239   1.029  16.685  14.938 -0.3130 -0.2251 -0.0952
 4036W        W22240  13.983  12.943  15.414  0.2421 -0.2236 -0.0401
 4037W        W22241   7.444  10.060   0.884  0.2455  0.1291  0.0023
 4038W        W22242   7.855   0.514   2.718  0.1528 -0.2387 -0.0050
 4039W        W22243  15.731  12.146   4.606  0.1002 -0.1894  0.1210
 4040W        W22244  13.958   4.254  11.690  0.1216 -0.2744  0.0048
 4041W        W22245  17.007   3.430   1.033  0.0135  0.1354  0.2310
 4042W        W22246  13.379   0.988   3.331 -0.3521 -0.0828  0.0043
 4043W        W22247   9.012   3.852   2.963 -0.0911 -0.1656  0.0459
 4044W        W22248  10.676  10.743  11.050 -0.0432  0.0752 -0.3255
 4045W        W22249   4.668   7.829  11.878 -0.1010 -0.1422 -0.0991
 4046W        W22250   2.617  10.070   2.225 -0.0811 -0.0741 -0.1281
 4047W        W22251   8.426  18.443   4.154 -0.0071  0.3131 -0.0777
 4048W        W22252  16.885  10.930  11.493 -0.1466  0.1317 -0.0143
 4049W        W22253   0.018   2.349   2.570 -0.3864  0.0276  0.1812
 4050W        W22254  13.087  11.343  11.712  0.3091 -0.2221  0.0499
 4051W        W22255   4.494   5.510  13.614 -0.1587 -0.1466 -0.1286
 4052W        W22256  10.524  15.541  11.357  0.0275  0.1639  0.0542
 4053W        W22257  13.692  11.578  13.809 -0.0956  0.0202  0.1618
 4054W        W22258  15.976  17.825   3.793 -0.1762  0.0631  0.1231
 4055W        W22259   8.793   8.656  11.623 -0.0597  0.2742 -0.2192
 4056W        W22260  15.050   0.152   0.033 -0.1739  0.0881  0.2464
 4057W        W22261  10.490   1.617   1.717 -0.1976  0.1103 -0.3715
 4058W        W22262   0.464  13.011  14.374 -0.0229  0.1268 -0.0431
 4059W        W22263  17.506   0.030  13.055  0.0912 -0.2373 -0.0150
 4060W        W22264  16.502   5.292   2.709  0.0852  0.1299 -0.3085
 4061W        W22265   8.987  11.440  14.848  0.1270 -0.1104  0.2707
 4062W        W22266   3.012   7.496  12.634 -0.0963 -0.1238  0.1269
 4063W        W22267   5.972  11.716   4.432 -0.1811 -0.2999  0.1429
 4064W        W22268  12.373  10.373  13.444 -0.0356  0.0119  0.3832
 4065W        W22269  10.573  14.087   3.534 -0.1131 -0.2354 -0.3668
 4066W        W22270  10.264  12.665   0.585  0.1692 -0.3323  0.4083
 4067W        W22271   1.940  14.538  11.966 -0.1754  0.0983 -0.0024
 4068W        W22272  11.663   0.741  14.150 -0.1909 -0.4500  0.3344
 4069W        W22273  14.336  13.991  13.348  0.2148 -0.0994 -0.3904
 4070W        W22274  11.229  12.670   4.458 -0.1453  0.0422  0.1420
 4071W        W22275  12.684  15.014  11.114  0.3923  0.2316  0.1767
 4072W        W22276  11.628   9.525  12.192 -0.0055 -0.3543  0.2894
 4073W        W22277  18.305   2.502   3.238  0.0726 -0.2129  0.1027
 4074W        W22278  18.456  15.217  11.698 -0.0029  0.3056 -0.0306
 4075W        W22279  15.115  14.636  10.976 -0.0946  0.2523 -0.0795
 4076W        W22280   6.115  14.404   0.691 -0.2356  0.2186 -0.2185
 4077W        W22281   2.699  13.622   2.904  0.1598  0.1300 -0.2791
 4078W        W22282  15.919   5.950   4.073 -0.0886 -0.1857  0.0794
 4079W        W22283   1.420   6.206   3.259 -0.2205 -0.0314  0.1866
 4080W        W22284   2.625  17.562   3.792  0.1458  0.1291 -0.1017
 4081W        W22285  12.406   3.898   1.227  0.0502 -0.0035 -0.0153
 4082W        W22286   0.248   1.654  11.587  0.0349 -0.3302 -0.1580
 4083W        W22287  15.736   3.753   3.307 -0.0094 -0.1805 -0.1565
 4084W        W22288  18.257   1.138   3.416 -0.2076  0.3394 -0.1395
 4085W        W22289  18.364  18.158   3.534  0.4303 -0.2363  0.0444
 4086W        W22290  15.723   8.492   1.520  0.2735 -0.1191  0.0720
 4087W        W22291  18.693  17.376   3.272  0.0427  0.1846 -0.0292
 4088W        W22292   0.252   1.594   3.286 -0.1047 -0.0486 -0.0660
 4089W        W22293  12.420   5.118   3.848 -0.2090 -0.0203  0.0007
 4090W        W22294   5.641  17.355  10.958  0.1738  0.0879 -0.2243
 4091W        W22295   1.557  14.549   0.163 -0.0630 -0.3498 -0.2178
 4092W        W22296  10.580  12.564   1.010 -0.0641  0.0289 -0.1586
 4093W        W22297   3.532  12.274   2.924  0.0528  0.1669 -0.3053
 4094W        W22298   4.127   5.178   0.590 -0.0799 -0.0131  0.0334
 4095W        W22299  16.010   8.224   4.305 -0.2915 -0.2882 -0.0107
 4096W        W22300   8.999   3.657   0.964 -0.0253 -0.1548 -0.3254
 4097W        W22301   8.564   5.773   1.623  0.0309 -0.2943  0.2194
 4098W        W22302  10.641   5.166   1.751  0.0583 -0.1305  0.1190
 4099W        W22303   5.473  17.521   0.663 -0.2164  0.1740  0.0207
 4100W        W22304  13.591   5.310   1.951  0.0169  0.1170 -0.0468
 4101W        W22305  12.335  14.982  13.626 -0.0337  0.0004  0.2421
 4102W        W22306   7.498   7.504  13.209  0.1214 -0.2307  0.3217
 4103W        W22307  14.103  12.099   3.759 -0.3713 -0.1779 -0.0295
 4104W        W22308   0.056   2.581  14.162  0.1801 -0.1129  0.1997
 4105W        W22309   9.488  11.199  11.331 -0.2715 -0.1461  0.1979
 4106W        W22310   7.104  15.863  12.647 -0.2650 -0.1393 -0.1349
 4107W        W22311   7.388  12.537  14.217 -0.0333 -0.0576 -0.0747
 4108W        W22312   3.195  18.652   3.287 -0.1343  0.0235 -0.1462
 4109W        W22313  13.326  10.252  12.022 -0.2199  0.0471  0.0002
 4110W        W22314   2.274   9.891   3.109  0.1776  0.1375 -0.0698
 4111W        W22315  11.337  13.534  11.579 -0.0400  0.1350  0.2630
 4112W        W22316  16.341   9.130  11.504 -0.5534  0.0174  0.3370
 4113W        W22317  14.262  12.402  10.545 -0.0870 -0.2235 -0.1854
 4114W        W22318   8.866  11.033   4.164  0.1676  0.1658 -0.0456
 4115W        W22319   3.940  11.004  14.697 -0.4102 -0.0574  0.1029
 4116W        W22320   5.718   5.279  12.316  0.0958  0.0405 -0.0986
 4117W        W22321  12.374   4.250   4.040 -0.2993  0.2706 -0.5347
 4118W        W22322  17.117  11.978  11.593  0.0795 -0.1742 -0.0694
 4119W        W22323  15.129  10.662   0.494  0.0253 -0.1525 -0.1462
 4120W        W22324   2.903   7.322  14.737 -0.0055  0.1437  0.2387
 4121W        W22325   4.654  11.921  15.037 -0.4639  0.2623 -0.1241
 4122W        W22326   4.770  16.539   4.999  0.3116  0.1518  0.1397
 4123W        W22327   4.077   0.989  12.670  0.1309 -0.4670  0.1081
 4124W        W22328  13.755   1.646  14.234 -0.2348  0.0212  0.1934
 4125W        W22329   8.278   7.715  14.457  0.2164  0.0259  0.0041
 4126W        W22330  17.948  10.753  15.061 -0.0676 -0.0548  0.3111
 4127W        W22331   5.578  11.704  10.091 -0.2311 -0.0661 -0.0448
 4128W        W22332   1.021   0.600  13.083  0.3646 -0.2766 -0.3013
 4129W        W22333  14.845  10.354   4.477 -0.1764 -0.1212 -0.0847
 4130W        W22334   0.696   2.060  14.223  0.1540 -0.1870 -0.0689
 4131W        W22335  10.786  18.312  14.075 -0.3134  0.0128  0.0228
 4132W        W22336  12.388  13.353  12.818  0.2109 -0.0845  0.2712
 4133W        W22337   7.466   9.233  12.676 -0.1296  0.1586  0.2164
 4134W        W22338  17.036   0.885  11.435 -0.0073 -0.2072 -0.0155
 4135W        W22339  14.954  14.557  11.436  0.0489 -0.4259  0.0538
 4136W        W22340  14.864   2.582   4.770 -0.2096  0.0775 -0.1136
 4137W        W22341   3.632  15.469   0.617 -0.1834 -0.1074 -0.1939
 4138W        W22342   4.516  13.788   3.029 -0.0165  0.1870  0.0416
 4139W        W22343   0.616   5.850  14.153 -0.0528 -0.0518 -0.2241
 4140W        W22344   8.165   0.974  11.794  0.0018  0.0559  0.2530
 4141W        W22345  17.445   6.062  13.920 -0.1480  0.1344  0.1309
 4142W        W22346  15.587  14.741  12.491  0.1228 -0.0436  0.1197
 4143W        W22347  10.702   6.523   4.733 -0.0696 -0.1385 -0.1094
 4144W        W22348   2.592  13.090  11.519 -0.1304  0.2489 -0.2323
 4145W        W22349  12.160   8.944   1.480 -0.2818  0.1185 -0.2670
 4146W        W22350  17.606  18.220  14.754  0.1612 -0.0063  0.0014
 4147W        W22351   5.048  13.274  14.507  0.0148  0.1309  0.0086
 4148W        W22352  15.911  13.538   0.161 -0.1169  0.3406 -0.1793
 4149W        W22353   2.996  15.611  12.833  0.0906  0.4858 -0.2725
 4150W        W22354   4.975  18.091  14.791  0.3346 -0.0897 -0.2274
 4151W        W22355   2.626   9.867  14.894  0.0657  0.1511  0.0152
 4152W        W22356  11.379  10.892  15.073 -0.0550  0.1782 -0.0491
 4153W        W22357  13.254   6.276  11.718 -0.3214  0.0097 -0.2988
 4154W        W22358   3.605   8.992  14.247  0.2079  0.2012 -0.4890
 4155W        W22359   2.776  16.749   2.905  0.2081 -0.0811  0.3877
 4156W        W22360   0.444  16.911   1.778 -0.2990  0.0338  0.3415
 4157W        W22361   0.964   6.209  13.863  0.1570 -0.0995 -0.1460
 4158W        W22362   0.128  16.740  15.239  0.1485 -0.0456 -0.0951
 4159W        W22363  14.250   3.169   3.402 -0.0606  0.2298 -0.0864
 4160W        W22364   8.526  12.574  10.097 -0.3928 -0.1442 -0.0872
 4161W        W22365  18.175   4.366  11.765 -0.2362 -0.0789  0.0213
 4162W        W22366   2.239  13.497  12.697 -0.2828  0.0353  0.0391
 4163W        W22367  14.934  10.774   0.981 -0.2332  0.1217  0.1863
 4164W        W22368   4.004   6.007   0.268 -0.3965  0.1356 -0.3317
 4165W        W22369   2.573  15.036   1.714  0.0784  0.0384 -0.3635
 4166W        W22370   3.453   9.807  13.990 -0.3638  0.0558 -0.1645
 4167W        W22371  14.365   9.835  13.473  0.1329  0.2165 -0.5126
 4168W        W22372  15.558   7.388  11.802  0.1795  0.0553  0.0877
 4169W        W22373   2.206   1.736  12.826 -0.0849 -0.0250  0.2414
 4170W        W22374  11.205  12.787   3.630  0.1299 -0.2853 -0.1362
 4171W        W22375   8.163  13.994  11.922 -0.2239 -0.0628 -0.1398
 4172W        W22376   0.665   2.904  15.125  0.0235 -0.1765  0.0777
 4173W        W22377   3.544   2.497  14.438  0.0804  0.0641 -0.2122
 4174W        W22378  15.611   6.843  14.598 -0.0750  0.5046  0.0611
 4175W        W22379  18.058  14.542  12.409  0.0973 -0.1522 -0.0785
 4176W        W22380   2.552   9.919   0.635  0.0483 -0.0324  0.3551
 4177W        W22381  10.823   1.654   0.003  0.1873  0.0654 -0.2707
 4178W        W22382   4.218   6.674  14.182 -0.0904 -0.0256 -0.1027
 4179W        W22383   2.266  12.905  11.860 -0.2017 -0.0361  0.2135
 4180W        W22384   2.761  10.542  10.847  0.3014  0.0960 -0.0597
 4181W        W22385   1.851  14.456  14.148  0.0693  0.0169 -0.1792
 4182W        W22386  13.552   6.758  12.540 -0.1120 -0.4505  0.1673
 4183W        W22387  13.499  16.313   0.041 -0.1833 -0.0330 -0.0767
 4184W        W22388  15.940   9.253   3.575  0.1732 -0.1006  0.1167
 4185W        W22389   0.123   8.841   4.537  0.4666 -0.1308 -0.1072
 4186W        W22390  17.240   0.320  13.724 -0.2028 -0.5574  0.0163
 4187W        W22391  11.531   3.847  12.118  0.0944 -0.3217 -0.1801
 4188W        W22392   2.026   5.105  13.096 -0.1109 -0.1124  0.1742
 4189W        W22393  12.774   2.840   0.190 -0.0005 -0.2565  0.2213
 4190W        W22394  15.445   8.924  14.780  0.0145 -0.1080 -0.1319
 4191W        W22395   3.628  14.242   2.285 -0.1518  0.2348 -0.0328
 4192W        W22396   6.476   3.480  11.937 -0.0589  0.2671 -0.0514
 4193W        W22397   4.255   2.625   1.019 -0.2698  0.4045 -0.0149
 4194W        W22398   4.489   7.098  15.132  0.0707 -0.0440 -0.0195
 4195W        W22399   0.404   3.647  11.117  0.2329  0.2243 -0.1948
 4196W        W22400   8.705  18.405  11.551  0.0639  0.1646 -0.1584
 4197W        W22401   8.053   2.372   2.153  0.1475  0.0410  0.1725
 4198W        W22402  11.081  15.141   2.262  0.1192 -0.0931  0.0510
 4199W        W22403  14.842   5.834   1.866  0.1110  0.1559 -0.3728
 4200W        W22404   3.345   4.076   5.813  0.0830 -0.2444  0.2247
 4201W        W22405   4.793   4.191   3.001  0.3313 -0.2376 -0.2939
 4202W        W22406   7.215  13.730  12.523  0.1175  0.2026 -0.0432
 4203W        W22407  12.354  16.386  11.363 -0.0061  0.2137 -0.0855
 4204W        W22408   2.321  13.807  13.936 -0.1015 -0.0714 -0.0954
 4205W        W22409   8.102   6.327   3.169  0.1171  0.0631 -0.0133
 4206W        W22410  17.141   0.596   2.404 -0.0241 -0.0648 -0.2312
 4207W        W22411   7.508   6.080   0.683  0.0088 -0.0026 -0.0260
 4208W        W22412   2.850  17.395  11.293 -0.0260 -0.0215 -0.1545
 4209W        W22413   9.555  17.459  10.810 -0.1587 -0.1807  0.0305
 4210W        W22414   6.922   5.397   1.896 -0.2165 -0.1970  0.0076
 4211W        W22415   7.679  12.216   2.043 -0.0862  0.0690  0.6236
 4212W        W22416  11.239   8.764   2.656  0.0625 -0.4102 -0.0054
 4213W        W22417   2.805  13.972   3.233  0.0854 -0.1411  0.0412
 4214W        W22418  12.017  15.263   2.827 -0.1917  0.2900  0.2443
 4215W        W22419   3.005  12.097  13.617  0.0328  0.2455  0.0390
 4216W        W22420  11.114  10.077   0.829  0.1415  0.0003 -0.1815
 4217W        W22421  13.256  17.743   1.985 -0.2132 -0.2753 -0.0495
 4218W        W22422   4.419  13.929  11.271  0.2138 -0.0487  0.1816
 4219W        W22423  16.821  14.854  14.416  0.1633  0.0005 -0.1517
 4220W        W22424  10.337  13.547   4.269 -0.1229  0.0963 -0.0282
 4221W        W22425   3.032   6.941   1.123  0.2382 -0.1752 -0.1016
 4222W        W22426  16.159   6.531  11.742  0.1790  0.1490 -0.3369
 4223W        W22427   3.543  17.611   1.418  0.2293 -0.2258 -0.1017
 4224W        W22428   3.896  15.929   1.601  0.1580  0.0472 -0.0002
 4225W        W22429   4.628   3.212  11.953 -0.3194 -0.2407  0.0973
 4226W        W22430   0.006   8.250  15.228 -0.2908 -0.0399  0.0494
 4227W        W22431  15.776  15.287  14.268  0.4043 -0.0160  0.1986
 4228W        W22432  16.768  18.435   3.978 -0.1788  0.1555 -0.2083
 4229W        W22433  15.372  18.351   0.634 -0.1613 -0.0404 -0.0714
 4230W        W22434  15.383  13.669   2.380  0.2251 -0.2977  0.2644
 4231W        W22435  18.022   4.762   4.351  0.1733  0.2383  0.1704
 4232W        W22436   5.766  10.290   4.095 -0.0759 -0.1717 -0.3799
 4233W        W22437  18.485   7.713   4.875  0.0344 -0.3247  0.1333
 4234W        W22438  16.764   9.878  12.161  0.1301 -0.2150 -0.2343
 4235W        W22439  11.905  17.887   4.392 -0.0981  0.3156  0.1946
 4236W        W22440  12.723   3.697  14.492 -0.0908  0.0888  0.0201
 4237W        W22441  18.298  16.131  13.623 -0.0235  0.2786 -0.2598
 4238W        W22442  18.002  18.074  12.014  0.1540 -0.1130  0.2933
 4239W        W22443  17.047   5.501  15.424  0.2286  0.2363 -0.2790
 4240W        W22444   9.996  10.860   1.908  0.2739 -0.1507 -0.0420
 4241W        W22445   0.068  11.040  14.420  0.0886 -0.0714  0.0163
 4242W        W22446  13.409   3.987   1.793 -0.3309 -0.0199 -0.0394
 4243W        W22447   1.819   8.806   2.665 -0.0405 -0.0371 -0.0650
 4244W        W22448   5.908   8.078   0.214 -0.1199  0.4187 -0.2449
 4245W        W22449   3.300  14.757  14.888  0.0982 -0.1745 -0.1175
 4246W        W22450   0.840   0.147  11.983 -0.2836 -0.4288  0.2131
 4247W        W22451  14.217   3.556   5.188 -0.0247  0.0330 -0.0177
 4248W        W22452  17.923  18.272  13.946  0.0191  0.2023 -0.1237
 4249W        W22453   0.563   0.017  13.875  0.1013  0.0955  0.5980
 4250W        W22454   1.521   4.651   4.270  0.0219 -0.1135  0.1209
 4251W        W22455   9.405   6.132   0.588  0.2718 -0.1941  0.2290
 4252W        W22456   1.668   8.406  13.575 -0.2485  0.2219  0.4189
 4253W        W22457  16.664  17.385   2.373 -0.2431  0.1705  0.0537
 4254W        W22458  11.823  17.173  11.286 -0.1168  0.2331 -0.6128
 4255W        W22459   0.468   7.037  11.517 -0.4450  0.1192 -0.1928
 4256W        W22460  15.879   1.269   0.066  0.1296 -0.1035  0.1645
 4257W        W22461   2.731  13.429  11.962 -0.3340 -0.2892 -0.0447
 4258W        W22462  13.004   7.767   1.417  0.2929  0.2575 -0.0446
 4259W        W22463   0.883  14.924   0.583 -0.0228  0.1869  0.1654
 4260W        W22464   7.934   2.306  15.317 -0.0532 -0.0422  0.1626
 4261W        W22465   3.975   7.845  12.682  0.0614  0.0449  0.2150
 4262W        W22466  11.524   8.465   4.041  0.3748  0.3445  0.0514
 4263W        W22467   2.960  13.544   0.129  0.3023  0.1189 -0.2991
 4264W        W22468  14.480   3.347  13.740 -0.4143 -0.2211 -0.1529
 4265W        W22469   4.064  15.300   2.427  0.0400  0.3318 -0.0244
 4266W        W22470  15.138  18.375  11.607 -0.0664  0.1141 -0.0842
 4267W        W22471  15.462   9.048  12.726  0.1855  0.1831  0.1756
 4268W        W22472  16.682   5.512   3.178 -0.1049 -0.2678 -0.1219
 4269W        W22473  13.257  18.279   3.480  0.1050  0.0859  0.1324
 4270W        W22474  10.880   0.487   2.668 -0.0360  0.1514 -0.1665
 4271W        W22475   5.576   9.855  10.533 -0.2130 -0.4023 -0.2030
 4272W        W22476   9.927  14.692  13.885  0.0955 -0.0662 -0.0475
 4273W        W22477   4.101   7.185  14.327  0.0407 -0.1191  0.2347
 4274W        W22478   5.086  11.221   2.878 -0.2046  0.0296  0.0325
 4275W        W22479   2.272   8.563  13.805  0.0131 -0.0553 -0.1145
 4276W        W22480  10.731   6.747   2.465  0.2283  0.5113 -0.0332
 4277W        W22481   7.609  12.437  12.492 -0.2509 -0.0032 -0.2693
 4278W        W22482   8.070  17.895  10.910 -0.0523  0.1063 -0.1466
 4279W        W22483  10.151   7.572  12.411  0.3374  0.0998 -0.0486
 4280W        W22484  13.875   4.285   2.905  0.0648  0.3811  0.0651
 4281W        W22485  12.731  13.490  14.168  0.1797  0.1364  0.3961
 4282W        W22486   1.269  13.296  12.714  0.1871  0.1274  0.0698
 4283W        W22487   9.554   7.800   2.289 -0.2645 -0.1393 -0.0882
 4284W        W22488  13.248   5.581  12.438  0.0636 -0.2670  0.1273
 4285W        W22489  16.584   4.101  15.225  0.2838 -0.0238 -0.1476
 4286W        W22490   4.426  12.436   4.989  0.2382 -0.1538 -0.1414
 4287W        W22491   1.074  12.916  11.939 -0.1692  0.2159 -0.1263
 4288W        W22492   7.932  15.535  12.560  0.3094 -0.0617 -0.1318
 4289W        W22493   4.509   9.875   1.098 -0.2332 -0.0699 -0.0395
 4290W        W22494  17.842  14.154   1.276 -0.3738 -0.2458  0.1061
 4291W        W22495  10.047  10.851   3.698 -0.2629 -0.0971 -0.1134
 4292W        W22496  16.625  12.781  11.368  0.0170  0.1971 -0.1175
 4293W        W22497   9.409   5.408   1.551 -0.1331 -0.2657 -0.1594
 4294W        W22498  13.646  12.366   4.860 -0.3057  0.1069  0.1702
 4295W        W22499   1.783   2.549  14.003 -0.2089  0.0311 -0.0364
 4296W        W22500   9.844   8.385   1.757  0.0909 -0.1565 -0.1417
 4297W        W22501  12.505  15.879   2.288 -0.0359  0.5201 -0.2673
 4298W        W22502   6.037   9.691   3.360  0.1224  0.4458 -0.0823
 4299W        W22503  12.745  18.330   3.220 -0.1036 -0.1503  0.1199
 4300W        W22504   9.262  13.253   2.977 -0.1211 -0.1322 -0.3708
 4301W        W22505   1.587   7.189   4.253 -0.2541  0.3143 -0.2745
 4302W        W22506   8.908   4.723  12.987  0.0981 -0.0923  0.0160
 4303W        W22507   5.366  11.964   3.937 -0.0551  0.1592 -0.0170
 4304W        W22508   0.772   2.609   4.548 -0.2586 -0.0791 -0.0289
 4305W        W22509   4.224  12.074  11.731  0.1416  0.1365  0.1000
 4306W        W22510   4.614   1.292  11.829  0.1228  0.0998  0.1652
 4307W        W22511  16.539   1.394   1.916 -0.2924  0.2310 -0.1839
 4308W        W22512   7.562   7.925  11.370 -0.5945 -0.4275 -0.2374
 4309W        W22513   1.736  17.422  13.016  0.1012  0.0499 -0.2190
 4310W        W22514  15.446   6.127   3.196  0.0111 -0.3972 -0.0114
 4311W        W22515   7.787  15.603  10.803  0.2564 -0.1593  0.2403
 4312W        W22516  11.843  17.996   3.087 -0.1262  0.0249  0.1657
 4313W        W22517  12.797   9.387  14.622 -0.0451 -0.0517 -0.0136
 4314W        W22518  11.935   2.895   0.781  0.1259  0.2639  0.1612
 4315W        W22519  10.725   5.793   4.441 -0.1043  0.0080 -0.0901
 4316W        W22520  11.311  11.453  14.981  0.2322  0.2016 -0.0667
 4317W        W22521   8.355   9.952  13.840 -0.1275  0.1633  0.2848
 4318W        W22522  10.526   8.620   4.444  0.2647 -0.2482  0.0492
 4319W        W22523   7.955  15.435   0.090  0.0751 -0.0431  0.1073
 4320W        W22524  10.425  13.272  14.035 -0.2288  0.0206 -0.3263
 4321W        W22525   3.650   6.543   3.227  0.1683 -0.2719 -0.4514
 4322W        W22526  17.030  17.743  15.375 -0.1403  0.0162 -0.0976
 4323W        W22527  14.968  11.700  14.394  0.1646  0.0468  0.2754
 4324W        W22528   4.465  17.374   0.829 -0.1442 -0.1918 -0.3318
 4325W        W22529  17.070   4.735  12.028  0.2786  0.0938 -0.0821
 4326W        W22530   8.603   4.225  11.342 -0.1002  0.0086 -0.0093
 4327W        W22531   7.366   1.817   1.947  0.1150 -0.1844  0.3262
 4328W        W22532   3.798  10.040   0.108  0.4215  0.0088 -0.2721
 4329W        W22533  14.797  16.683  12.987  0.1078 -0.1131  0.3159
 4330W        W22534  11.096   1.554  14.054  0.1927 -0.1637  0.0316
 4331W        W22535  16.196   7.908  12.378 -0.2062 -0.1848  0.2035
 4332W        W22536   5.687  16.768   0.122  0.1971  0.0567 -0.0767
 4333W        W22537   3.044  11.296   3.305  0.1392  0.2184 -0.0978
 4334W        W22538   6.210   2.880  14.996 -0.1120 -0.1125 -0.2007
 4335W        W22539   4.621  12.611   2.799  0.2052  0.0605 -0.4203
 4336W        W22540  13.650  10.797  14.168  0.0276 -0.1599  0.0994
 4337W        W22541  17.832  16.379  11.022  0.0032 -0.1308 -0.1519
 4338W        W22542   7.935   3.095  14.639 -0.0125 -0.0283 -0.0562
 4339W        W22543  15.165   9.880   3.563 -0.3979  0.1781 -0.0929
 4340W        W22544  14.867  13.838   4.561  0.3362 -0.0644 -0.1639
 4341W        W22545   9.613  12.991   4.716  0.1300 -0.0058  0.0134
 4342W        W22546  13.362  15.186  12.329  0.2485 -0.0224 -0.0161
 4343W        W22547   9.474   1.243  14.736 -0.2485 -0.0957  0.1004
 4344W        W22548  14.865   3.271   2.876  0.1227  0.0361  0.2847
 4345W        W22549   3.797  18.426  10.994  0.1789 -0.1413 -0.0546
 4346W        W22550   1.288   2.078   1.569 -0.2872  0.1721 -0.0451
 4347W        W22551   6.908  18.541  11.955  0.0324 -0.4150  0.0426
 4348W        W22552   5.817  15.370  10.942  0.1360 -0.2791 -0.1805
 4349W        W22553   3.504   0.025  12.314  0.0965  0.1314  0.0765
 4350W        W22554  15.333  16.233  15.199 -0.4045  0.1046  0.1048
 4351W        W22555   7.557   8.161   1.932 -0.0223  0.2634  0.1924
 4352W        W22556   7.043   6.706  11.715  0.0870  0.1284  0.0943
 4353W        W22557  16.981   9.082  14.248 -0.0274 -0.0624 -0.1220
 4354W        W22558   5.689  18.302   0.138  0.1762 -0.2083  0.2303
 4355W        W22559  12.044   6.158  12.532 -0.2774 -0.5079  0.2688
 4356W        W22560   6.380   8.499   0.731  0.0280  0.1065  0.2627
 4357W        W22561   6.491  13.162   3.499 -0.1849 -0.1680 -0.2575
 4358W        W22562   9.833  10.135  15.465  0.1206  0.1672  0.0574
 4359W        W22563  10.707  14.344   0.646  0.3169  0.0565  0.3862
 4360W        W22564  14.385   0.876  12.982  0.1403 -0.1018  0.0298
 4361W        W22565  14.013   4.858  15.166  0.1288  0.4637  0.0170
 4362W        W22566   2.579  15.859   2.272  0.1417  0.1790 -0.1563
 4363W        W22567   8.481  14.456  13.808 -0.3007  0.5391 -0.1851
 4364W        W22568   4.404  11.929  12.671  0.1037 -0.2382 -0.1300
 4365W        W22569   9.736  15.310   3.312 -0.0288 -0.2964 -0.2164
 4366W        W22570  17.073   7.044   2.936  0.3062  0.0998 -0.0795
 4367W        W22571  17.595  13.249  12.280  0.0851 -0.0090  0.0052
 4368W        W22572   7.221   7.301   2.193  0.1443 -0.0498 -0.0095
 4369W        W22573   8.994  13.930  11.595  0.2126  0.0593 -0.2586
 4370W        W22574  10.594   6.439  13.878 -0.1742  0.2469  0.0697
 4371W        W22575   2.672   1.289  12.322  0.0601 -0.0620  0.2398
 4372W        W22576   6.138  12.336  14.543  0.1470 -0.1289 -0.1093
 4373W        W22577   2.764   6.666   2.113 -0.1840 -0.3368 -0.3201
 4374W        W22578  14.580   0.170  12.264 -0.1234  0.2706 -0.0623
 4375W        W22579   4.974  15.735  13.673 -0.1355 -0.0081  0.0376
 4376W        W22580   3.577  16.885   1.637 -0.1800 -0.1868 -0.1193
 4377W        W22581   1.968   5.951   1.601 -0.0679 -0.0237  0.0993
 4378W        W22582  18.454  10.337  13.266  0.3358  0.1270  0.0947
 4379W        W22583   1.481  17.904   0.998  0.1654  0.0780 -0.0814
 4380W        W22584   6.966   8.913  10.095  0.2178 -0.2607  0.3467
 4381W        W22585   0.184  13.802  13.886 -0.0117 -0.1222  0.0395
 4382W        W22586  17.869   6.378   5.344  0.0652 -0.2587  0.0363
 4383W        W22587  13.445   9.491   4.675 -0.0247  0.0968 -0.1836
 4384W        W22588  14.611  18.542   1.944 -0.0873  0.1879 -0.1822
 4385W        W22589  15.554  18.235   3.124  0.0832 -0.1257 -0.0569
 4386W        W22590   4.253  14.077   1.745  0.1177  0.2188 -0.3435
 4387W        W22591  18.021   0.209  12.658 -0.2473 -0.2211  0.0278
 4388W        W22592  10.412  12.563   0.145 -0.1298  0.0751 -0.0226
 4389W        W22593  13.403  16.331   0.714  0.3446  0.2496 -0.1671
 4390W        W22594   8.111   5.991   4.466 -0.1985  0.1247  0.1225
 4391W        W22595   0.563   8.835  12.363 -0.2616 -0.2736  0.1041
 4392W        W22596   5.095   4.799  14.531  0.0406 -0.1446  0.0895
 4393W        W22597  14.689  18.304   0.893 -0.0196  0.3912  0.0261
 4394W        W22598  11.420  10.895  12.734  0.2013  0.3318  0.2927
 4395W        W22599   0.931  14.157   0.823 -0.1104 -0.0105  0.0411
 4396W        W22600  13.196  11.347  12.251  0.1121 -0.2171  0.0852
 4397W        W22601   8.490   4.855  15.415 -0.4228 -0.3607 -0.0369
 4398W        W22602  14.406  13.766  12.180 -0.0272 -0.0611  0.0407
 4399W        W22603  10.050   8.029  13.203  0.2820  0.2285  0.0354
 4400W        W22604  17.681   0.004  11.468 -0.1778  0.2308 -0.2223
 4401W        W22605   3.254  14.085  13.779  0.2290  0.0648  0.0204
 4402W        W22606   2.132  10.627  11.681 -0.1001 -0.0864  0.0068
 4403W        W22607  15.798  11.480   2.500  0.0351 -0.1477 -0.0611
 4404W        W22608  17.911  13.571   1.161  0.0722 -0.0108  0.0115
 4405W        W22609   9.359  15.855   4.116 -0.1948 -0.0646 -0.1678
 4406W        W22610   0.016  10.449   3.402  0.0139  0.1616 -0.1148
 4407W        W22611   6.164  10.837   2.913  0.0438  0.1847 -0.3243
 4408W        W22612   3.272  14.320  15.211  0.0082  0.1235  0.2955
 4409W        W22613  17.620   8.897   4.570 -0.1461  0.1453  0.1788
 4410W        W22614  10.807  13.004  14.206  0.3814  0.3616 -0.0373
 4411W        W22615   9.815   5.461  13.550  0.1937  0.0163 -0.1479
 4412W        W22616   4.120   1.949  14.098  0.1125 -0.1311 -0.4037
 4413W        W22617   2.506  15.848  13.578  0.1620  0.2995  0.5198
 4414W        W22618   2.559  10.769  10.358  0.0314 -0.3881 -0.1158
 4415W        W22619  16.844  15.309   0.142  0.0774  0.0334  0.0464
 4416W        W22620   5.226   4.595  12.672  0.1813 -0.3020  0.0530
 4417W        W22621  11.495  14.302   2.291  0.1416  0.1816  0.0409
 4418W        W22622  12.804   4.280  13.047  0.0344  0.2471 -0.4157
 4419W        W22623  15.216   1.719  14.974  0.2517  0.1074  0.3970
 4420W        W22624   0.214  16.270  15.401  0.2438  0.1052 -0.1445
 4421W        W22625  10.320   0.203   2.914  0.1770 -0.0182  0.0840
 4422W        W22626   5.636   3.422  11.123 -0.0296  0.1248 -0.3320
 4423W        W22627  12.044  13.153   3.818 -0.3060  0.0185 -0.1268
 4424W        W22628  14.282   8.372   0.014  0.0230 -0.2462  0.5101
 4425W        W22629  17.152   1.344  13.305  0.1336 -0.0642  0.0186
 4426W        W22630  13.535  13.280  14.898  0.1603 -0.0045 -0.0702
 4427W        W22631  17.665  16.939   0.987 -0.1394  0.2904  0.3108
 4428W        W22632  16.782   4.350   0.646  0.5662  0.1941 -0.0594
 4429W        W22633  12.117  16.345  13.054 -0.0977  0.0054 -0.4324
 4430W        W22634   8.711   1.073   0.956  0.0058  0.3107 -0.0435
 4431W        W22635   3.890  17.460  14.970  0.0392 -0.1530 -0.0282
 4432W        W22636  13.344   0.615   5.217  0.2631  0.5758  0.1485
 4433W        W22637   9.176   1.092   4.328  0.0912  0.1965  0.2257
 4434W        W22638   0.987   9.810   3.313 -0.2678 -0.2485  0.2307
 4435W        W22639   6.567   8.326   3.557  0.1155 -0.0891  0.2034
 4436W        W22640   3.214   2.390  14.067  0.1986  0.1532  0.1766
 4437W        W22641   6.843   3.056  14.219 -0.2575  0.1321 -0.2128
 4438W        W22642   0.668  16.037  12.724 -0.2581 -0.1180 -0.0140
 4439W        W22643   5.020   8.520  14.141 -0.5674 -0.1156  0.2913
 4440W        W22644  14.101  18.530   3.243 -0.1907 -0.4989 -0.2024
 4441W        W22645   3.592  11.427   4.131 -0.0115 -0.1879 -0.0613
 4442W        W22646  18.051   9.240   0.329  0.2245  0.3938 -0.2945
 4443W        W22647  13.696  14.781  12.732 -0.1293  0.1052  0.0125
 4444W        W22648  12.724   9.236  13.514 -0.1117 -0.1459 -0.2457
 4445W        W22649  11.189   6.333   0.790 -0.0131  0.0251  0.0983
 4446W        W22650   6.808   6.422  13.939 -0.0183 -0.0074 -0.0528
 4447W        W22651   0.910   5.527   4.407  0.1340 -0.3862 -0.2394
 4448W        W22652   0.522   2.385   1.789  0.0102  0.1484 -0.1631
 4449W        W22653   0.913  10.938  14.866  0.2410 -0.2518  0.3848
 4450W        W22654   4.243  13.323   1.370 -0.0760 -0.2000 -0.1339
 4451W        W22655   1.459   3.672  14.604 -0.0751  0.1058  0.0045
 4452W        W22656  12.659   8.442   3.906  0.1091 -0.2889 -0.0712
 4453W        W22657  10.190   1.700  11.972 -0.2858 -0.0873  0.1883
 4454W        W22658   1.881   6.897   3.882  0.0479  0.1064 -0.0859
 4455W        W22659   1.297   5.714   3.928 -0.0776 -0.2861 -0.1041
 4456W        W22660   6.382  17.523  12.178 -0.1037 -0.3266  0.2566
 4457W        W22661   3.271  15.440   2.037 -0.1632  0.1102 -0.0349
 4458W        W22662  15.503  10.049   3.938 -0.1138  0.1340  0.0591
 4459W        W22663   9.529   2.650  13.975 -0.0713  0.0186  0.1397
 4460W        W22664  18.171   2.093   2.572  0.2644  0.3564  0.0673
 4461W        W22665   7.701   8.919   4.094 -0.0296 -0.0614 -0.0696
 4462W        W22666   5.001   0.660  14.275 -0.2923  0.0497 -0.2895
 4463W        W22667  14.042  10.725   1.560 -0.2030 -0.3687 -0.0835
 4464W        W22668   5.955   1.069  12.515 -0.1561 -0.2046  0.3072
 4465W        W22669  11.188   6.344  15.264 -0.0583 -0.0201 -0.1397
 4466W        W22670   2.319  16.343  12.086  0.0882 -0.3871  0.1220
 4467W        W22671  17.969   9.694   0.574  0.1365  0.1157  0.0557
 4468W        W22672   7.846   4.319  11.147  0.2225  0.1621  0.1555
 4469W        W22673   4.924  16.500  12.927  0.0981 -0.0096 -0.1597
 4470W        W22674  17.633   4.521   1.181  0.2237  0.1975  0.1009
 4471W        W22675  12.109  11.308  14.488 -0.1225 -0.0535 -0.0706
 4472W        W22676  16.453   3.874  11.355 -0.0558  0.3387  0.1537
 4473W        W22677  17.521   0.919   4.820  0.1500  0.1727  0.2534
 4474W        W22678  12.690  10.952   4.493  0.0944 -0.1473  0.2302
 4475W        W22679  10.745   3.708   4.782 -0.0942  0.0291 -0.0067
 4476W        W22680  17.955  12.693   2.242  0.1350  0.1056  0.2418
 4477W        W22681   6.986  16.794   0.973  0.0632 -0.0336 -0.0718
 4478W        W22682  11.778   6.515   1.986  0.0980 -0.1928  0.1588
 4479W        W22683   7.484   7.967  14.426  0.1297  0.3116  0.1112
 4480W        W22684  18.656   2.611  12.851  0.1242 -0.1460 -0.2710
 4481W        W22685   2.790   7.489  13.148 -0.4730  0.0476  0.4031
 4482W        W22686  11.671   2.317   2.402  0.0239 -0.0892 -0.2753
 4483W        W22687  13.665  18.438  12.388 -0.4067  0.2120 -0.1925
 4484W        W22688   9.165  17.504  12.884  0.2241  0.0995  0.1035
 4485W        W22689  14.563  12.909   3.712 -0.0881  0.0056  0.0840
 4486W        W22690  17.910   0.464   2.225  0.1731  0.0539  0.0390
 4487W        W22691  10.845   9.924  12.524 -0.0632  0.0919  0.1790
 4488W        W22692   5.950   1.594  15.138 -0.2092  0.1949  0.0479
 4489W        W22693  17.552   7.103   2.778  0.0579 -0.0702  0.5189
 4490W        W22694   0.558   1.031   2.985  0.0646  0.1574 -0.1375
 4491W        W22695  10.606  10.328  13.731  0.1218  0.2254 -0.0278
 4492W        W22696   7.561   3.395   0.307  0.0187 -0.1116 -0.3335
 4493W        W22697  16.839  14.915  12.775  0.0518  0.0810 -0.0595
 4494W        W22698   1.313  13.005   2.814 -0.0547 -0.1522  0.2379
 4495W        W22699  11.681   9.081   2.003  0.0771  0.3376  0.0794
 4496W        W22700  17.798  18.361   2.566  0.0891 -0.2029  0.0118
 4497W        W22701   4.004   1.363   5.382 -0.0149  0.2848 -0.0126
 4498W        W22702  16.669  15.865  12.371 -0.0689 -0.3793 -0.2699
 4499W        W22703  18.576  11.209   2.788  0.0054  0.0993 -0.0604
 4500W        W22704   9.296  15.037   3.353  0.3603 -0.2110 -0.1101
 4501W        W22705   3.192   2.880   3.882 -0.3002 -0.0249  0.0231
 4502W        W22706  16.337  12.193   1.918 -0.2819 -0.1256 -0.4240
 4503W        W22707   0.410   1.479   0.720  0.2436  0.0253  0.4908
 4504W        W22708   3.855  11.676   3.760 -0.0953 -0.2086  0.2206
 4505W        W22709  16.447   0.645   1.519 -0.0235 -0.2584  0.0580
 4506W        W22710   9.860   6.046  15.241  0.1109 -0.3359 -0.1252
 4507W        W22711   7.604   5.738  11.854 -0.1070  0.1124  0.2089
 4508W        W22712  10.642  17.829  11.316 -0.4337 -0.0541 -0.0088
 4509W        W22713   8.336   6.378  13.283  0.0025  0.0935  0.1644
 4510W        W22714  14.320  13.735   2.589  0.2902  0.0762  0.1340
 4511W        W22715  14.648   2.975   1.589  0.1247  0.2498 -0.1957
 4512W        W22716   4.278   8.315  14.262  0.0053 -0.1075 -0.1704
 4513W        W22717   1.640  18.200   1.544  0.1556 -0.1445 -0.2977
 4514W        W22718   1.434   3.520  12.383  0.0278  0.0509  0.1022
 4515W        W22719   9.525  10.522   2.377  0.1141 -0.5083 -0.0045
 4516W        W22720  17.567   3.493  13.038  0.1800  0.0537 -0.2816
 4517W        W22721  13.375   8.613   2.167  0.0522 -0.4385  0.0926
 4518W        W22722   4.648  15.600   9.733  0.3712  0.0046  0.0663
 4519W        W22723   7.274   2.628  15.260 -0.1136  0.0358  0.0537
 4520W        W22724   3.635  13.358   0.233  0.2053  0.2553  0.2327
 4521W        W22725  14.958   5.896   1.066  0.0197  0.1917  0.0190
 4522W        W22726  16.253  12.804  10.574  0.1727  0.0803  0.0125
 4523W        W22727   7.426   3.531  11.942 -0.2971 -0.0458 -0.1815
 4524W        W22728  14.375  16.062  12.880  0.0576  0.0473  0.0635
 4525W        W22729  12.186   8.509  13.508 -0.1438  0.1356  0.1135
 4526W        W22730  13.529  14.442   3.868 -0.0712  0.0552 -0.0838
 4527W        W22731   2.833   3.467  11.981 -0.3043  0.1129 -0.0975
 4528W        W22732   4.999  17.498   2.381 -0.0890 -0.0372  0.1218
 4529W        W22733   4.023   0.456   3.227  0.0639 -0.2864 -0.4268
 4530W        W22734  16.733   1.480  11.975  0.1218  0.2723  0.1196
 4531W        W22735  14.540  13.717  12.655 -0.1713 -0.0130 -0.1720
 4532W        W22736   0.982  11.849   4.377 -0.3378  0.1215 -0.4596
 4533W        W22737   8.588  13.749   0.830 -0.0158  0.1865  0.0230
 4534W        W22738   8.171   5.895  12.887  0.3317 -0.0911  0.0445
 4535W        W22739  17.709  17.034   3.190  0.1916 -0.1273 -0.2766
 4536W        W22740   8.675  13.605  14.386  0.1308  0.2242  0.0308
 4537W        W22741   6.581   1.146   1.960 -0.0961 -0.2498  0.4648
 4538W        W22742  12.942   5.159   3.275  0.5071  0.0097 -0.1505
 4539W        W22743  18.070   8.406   0.139 -0.0602  0.0843 -0.1254
 4540W        W22744  18.011  10.215  14.938 -0.2296 -0.1665 -0.0238
 4541W        W22745  12.630  13.838   3.368  0.0245 -0.0207  0.0760
 4542W        W22746  16.239  18.442  12.568  0.4340 -0.1273  0.1460
 4543W        W22747  13.701   0.752  13.811 -0.2367 -0.1255  0.1542
 4544W        W22748   6.537   2.349  12.122  0.0876 -0.3203  0.0958
 4545W        W22749   9.855   0.134  12.068 -0.1945  0.4240 -0.0264
 4546W        W22750   8.031   5.735  14.287 -0.2400 -0.0787 -0.0052
 4547W        W22751  11.743  10.942   1.962 -0.1822 -0.3298 -0.3201
 4548W        W22752   5.484   5.252  13.605 -0.1818  0.3232 -0.0862
 4549W        W22753   5.129  16.699  11.927  0.2531  0.0575  0.2480
 4550W        W22754   9.990  12.873  14.262 -0.2213 -0.3520  0.2783
 4551W        W22755  18.445   3.273  11.427  0.7069  0.0995  0.0342
 4552W        W22756   3.195   0.575   3.491  0.0208  0.2193 -0.1554
 4553W        W22757   4.381   7.163  11.105 -0.0174  0.0973  0.1533
 4554W        W22758  11.891   0.715   0.090 -0.0491  0.0642  0.1690
 4555W        W22759  15.912  15.956   4.424 -0.3338 -0.0173  0.2732
 4556W        W22760  15.139   8.842  14.134 -0.0985  0.0111  0.0612
 4557W        W22761  18.524  15.664  14.386  0.1741 -0.1936  0.0017
 4558W        W22762   4.093  11.903  15.046  0.1191  0.2491  0.0380
 4559W        W22763  11.620   9.764   2.374 -0.3816 -0.1008 -0.1874
 4560W        W22764   2.266   7.611   1.654 -0.0082  0.0195  0.1378
 4561W        W22765   1.136  10.538  12.205 -0.0050 -0.1539  0.3014
 4562W        W22766   9.326   3.154   3.758 -0.0350  0.3094 -0.1075
 4563W        W22767  14.532   5.844  14.449 -0.3328 -0.0976 -0.0415
 4564W        W22768   1.410  14.703   1.568  0.2522 -0.0544  0.0122
 4565W        W22769  16.415  13.507   2.542 -0.0481 -0.0940 -0.0550
 4566W        W22770  18.298  14.812   1.512 -0.2523  0.1474 -0.2396
 4567W        W22771   0.373   2.942  14.278  0.0102  0.1124  0.1320
 4568W        W22772   3.880  12.770  14.924  0.2921 -0.0405 -0.1811
 4569W        W22773   6.603  13.704  10.889 -0.1699  0.1270 -0.2059
 4570W        W22774   0.493  15.833   1.384  0.0928  0.6356  0.0329
 4571W        W22775  17.461  14.473  13.353 -0.0069 -0.0423  0.1944
 4572W        W22776  12.691  16.469  13.193 -0.0756  0.3663  0.0572
 4573W        W22777  10.345   6.278   2.431  0.2020  0.0787  0.2092
 4574W        W22778  15.486  13.772  15.388 -0.3593  0.0170  0.2005
 4575W        W22779  18.380   1.805  13.564  0.2282  0.0057 -0.0232
 4576W        W22780  13.900   4.373  11.109  0.2581 -0.0094 -0.0981
 4577W        W22781  14.410  12.546  13.180  0.0816  0.0996  0.2534
 4578W        W22782  13.197   3.486   1.204  0.3887 -0.1202  0.0443
 4579W        W22783   1.074   8.533  14.429 -0.3131 -0.1209  0.0813
 4580W        W22784   1.108   8.603  15.365  0.1236  0.1366 -0.0947
 4581W        W22785   2.452   6.414  10.196  0.1125  0.2549 -0.0503
 4582W        W22786  15.911  11.458  13.010 -0.0475  0.0087 -0.2117
 4583W        W22787  13.897  16.964  13.011  0.1999  0.1079  0.0485
 4584W        W22788   0.722   6.856  12.347 -0.3660 -0.2038 -0.3500
 4585W        W22789   8.244   1.834  15.321  0.2100 -0.2536  0.1843
 4586W        W22790   7.450   4.685  10.967 -0.2087 -0.0564  0.1736
 4587W        W22791   5.749  15.535  12.075  0.1872 -0.1603  0.1135
 4588W        W22792   7.782   0.934  13.973 -0.3500 -0.1606 -0.1726
 4589W        W22793   2.927  12.678  13.694 -0.0058  0.0292 -0.2121
 4590W        W22794  12.840  14.413  11.998  0.1087 -0.0597 -0.2371
 4591W        W22795  18.122   5.523   4.751 -0.0451  0.1400 -0.1167
 4592W        W22796   6.813   9.597   0.208  0.5637  0.1855 -0.0041
 4593W        W22797   4.649  14.482  14.028 -0.1747 -0.2986  0.0192
 4594W        W22798   7.967   4.747  10.907  0.1264 -0.0840  0.0798
 4595W        W22799   8.296   0.507  13.234  0.1216 -0.1607 -0.0319
 4596W        W22800   5.166   0.766  15.144  0.1195 -0.2803  0.2609
 4597W        W22801   1.758   5.778  14.290 -0.0153  0.1413 -0.1601
 4598W        W22802   3.780  16.437  13.986  0.1240 -0.1615  0.3117
 4599W        W22803  15.986   4.480   3.819 -0.2492  0.1180  0.4289
 4600W        W22804  13.877  16.111  15.033 -0.0221  0.0747  0.3126
 4601W        W22805  18.161   5.682  13.173 -0.1360  0.1979 -0.0246
 4602W        W22806  14.249   6.298   1.997  0.1505  0.0876 -0.0081
 4603W        W22807  13.581  15.875   4.406 -0.1420  0.3269  0.1857
 4604W        W22808  15.782  11.823   4.937  0.1714 -0.0310 -0.1345
 4605W        W22809  14.479  16.219   0.074  0.1371 -0.0046  0.0645
 4606W        W22810   2.313   7.375  11.653  0.2389 -0.1315 -0.1409
 4607W        W22811  15.927  11.401  14.392  0.0622 -0.3514  0.3935
 4608W        W22812   2.090  15.068  11.749 -0.3716  0.0397  0.4642
 4609W        W22813  16.363   2.678  13.849 -0.1466  0.2062  0.0496
 4610W        W22814  16.388   8.703  12.720 -0.3228  0.0045 -0.1467
 4611W        W22815  14.032   2.687  14.024  0.0097 -0.1570 -0.2177
 4612W        W22816   4.142   6.984   4.103 -0.3907  0.2826 -0.4163
 4613W        W22817   4.303   9.463  11.940 -0.1931  0.1827 -0.1224
 4614W        W22818  12.125  12.328  15.033  0.0050 -0.0119  0.0341
 4615W        W22819  14.157  11.928  13.925  0.1657 -0.0383  0.0659
 4616W        W22820  13.107   8.272   3.485  0.2902 -0.0952  0.0195
 4617W        W22821  17.785  16.422  10.526  0.0589 -0.0649  0.2698
 4618W        W22822  13.760  10.853   0.658 -0.1214  0.3637 -0.0476
 4619W        W22823   2.917  11.999   3.788  0.0283  0.0930  0.2805
 4620W        W22824  14.915  10.025  14.779 -0.1616 -0.0008 -0.0891
 4621W        W22825   0.276  14.536  12.201  0.1137 -0.0082  0.0023
 4622W        W22826  12.598   4.646   3.359 -0.0908 -0.2209  0.1610
 4623W        W22827  17.023   9.697   0.768 -0.0229 -0.0855  0.1198
 4624W        W22828   7.111   6.088   2.988  0.1003  0.0129  0.0501
 4625W        W22829   2.448   2.963   3.538 -0.3612  0.0242  0.0247
 4626W        W22830  12.757   2.203   2.209  0.1458  0.0926  0.1441
 4627W        W22831   0.023   3.444  14.814 -0.0264 -0.0298 -0.2615
 4628W        W22832   0.641  10.502   0.328 -0.1575 -0.1261 -0.2474
 4629W        W22833  16.121   4.914   1.113  0.1538  0.1205 -0.0572
 4630W        W22834  14.985  14.775   3.544  0.0650  0.2231 -0.1827
 4631W        W22835   7.250  11.840  12.725  0.0897 -0.0342 -0.3366
 4632W        W22836  11.021   2.838  13.514  0.0049 -0.0039  0.1923
 4633W        W22837  17.904   5.570  14.871  0.1561  0.1600 -0.4266
 4634W        W22838  11.554  17.466  12.779 -0.1443  0.2074 -0.1795
 4635W        W22839  16.430   5.735  12.056  0.1487  0.2128 -0.0057
 4636W        W22840   6.000  16.926   0.556  0.2822  0.0724 -0.0980
 4637W        W22841  14.265  16.824  14.080 -0.1703 -0.0039 -0.2658
 4638W        W22842   6.112  17.637  15.436  0.0212  0.0329  0.0629
 4639W        W22843  14.617  14.944  10.944  0.3675  0.1100  0.7736
 4640W        W22844   6.809   7.205  14.620 -0.1288  0.0806  0.1237
 4641W        W22845   8.106  12.202  11.829  0.1454 -0.1058 -0.0600
 4642W        W22846   5.753  12.224   4.268  0.1963 -0.1307  0.1059
 4643W        W22847   8.338   3.783   3.737 -0.2242 -0.0096 -0.2195
 4644W        W22848  10.629  15.205   0.024 -0.0144  0.0004 -0.0689
 4645W        W22849  10.065   7.687   1.437 -0.1399 -0.1555 -0.2125
 4646W        W22850  15.174  10.722   4.705 -0.0200 -0.0144 -0.1068
 4647W        W22851   7.101   3.600   4.214 -0.3718 -0.2583  0.3382
 4648W        W22852   5.989   9.239   4.251  0.1707 -0.0212 -0.0961
 4649W        W22853  15.903  13.016   1.354 -0.1704  0.2939 -0.1631
 4650W        W22854   5.752  11.018  14.733  0.4596  0.3269  0.1103
 4651W        W22855  10.342   8.546   2.764 -0.1454 -0.2387 -0.0715
 4652W        W22856   0.252  17.457  11.316  0.2383  0.1330 -0.0126
 4653W        W22857  10.198  14.093  14.513  0.2469  0.1368 -0.0709
 4654W        W22858   6.544  18.406   2.012 -0.1174  0.0885  0.0426
 4655W        W22859   0.531  13.802   2.188  0.1738 -0.1400 -0.4067
 4656W        W22860  12.429  13.893  13.779 -0.2127  0.0581 -0.0826
 4657W        W22861   6.698  10.505   0.351 -0.1615 -0.0747 -0.2236
 4658W        W22862   0.986   8.159   3.116 -0.3124 -0.0701  0.0921
 4659W        W22863  15.000   7.266  13.015  0.1453  0.1094 -0.4126
 4660W        W22864   2.762  18.600  13.049 -0.0447  0.0307  0.4261
 4661W        W22865  10.942   6.077   5.381  0.0282  0.1534 -0.1658
 4662W        W22866  18.133  17.624  13.522  0.0696  0.0707  0.0755
 4663W        W22867   3.753   8.168   1.158  0.1305  0.0046  0.3202
 4664W        W22868   3.218   0.819  15.020  0.1449  0.3289  0.2086
 4665W        W22869  14.876   8.195  14.823 -0.0848  0.1908  0.0939
 4666W        W22870   2.314   9.423   4.320  0.0294  0.0997 -0.0254
 4667W        W22871  13.106  17.339  11.516 -0.0515  0.0116 -0.2319
 4668W        W22872  13.969   6.584   4.776  0.0311  0.4028 -0.1205
 4669W        W22873  12.169  16.825   1.181  0.2291  0.1533  0.0466
 4670W        W22874   4.441  17.454  11.482 -0.2297 -0.1963 -0.0167
 4671W        W22875   7.182  10.008   4.288  0.0553 -0.3140  0.0267
 4672W        W22876  11.360   4.446   3.293  0.0426 -0.0671 -0.0393
 4673W        W22877  13.170  18.626  13.214 -0.0603  0.0788  0.1786
 4674W        W22878   5.849   6.100  13.726  0.1121  0.3126 -0.1206
 4675W        W22879   3.834  13.577  13.871  0.4389 -0.0452 -0.0012
 4676W        W22880   7.634  11.555   1.069  0.0735 -0.2651  0.0497
 4677W        W22881  18.572  12.983   3.242  0.0868  0.2759  0.1130
 4678W        W22882  13.675   5.071  11.733  0.0202  0.5549  0.3197
 4679W        W22883   7.104   5.654   0.738  0.0133 -0.1728 -0.0175
 4680W        W22884  11.983  16.529   2.621  0.1495 -0.0350 -0.3482
 4681W        W22885   9.216   4.934   1.813  0.0169 -0.0762 -0.0384
 4682W        W22886   7.174  12.003   1.324 -0.0099  0.0524  0.0361
 4683W        W22887   3.642  11.644   4.590 -0.1377  0.0154 -0.2770
 4684W        W22888  18.196   2.676  11.402 -0.0717 -0.0016  0.3067
 4685W        W22889   0.847  14.468  14.142 -0.2149 -0.2234  0.0715
 4686W        W22890  13.370   1.600   3.019 -0.1099  0.1710  0.2371
 4687W        W22891   5.222  10.832  15.447  0.2558 -0.1183  0.1781
 4688W        W22892   9.196   0.816   2.173 -0.1056  0.1664 -0.0890
 4689W        W22893   8.808  10.737   5.760  0.0541  0.1498  0.1935
 4690W        W22894  12.922   5.318  11.562 -0.0668 -0.3928 -0.0823
 4691W        W22895   3.509  17.607  14.603  0.0652  0.2336 -0.0584
 4692W        W22896  12.712  15.683   1.889 -0.1913 -0.0746 -0.0482
 4693W        W22897  15.636   3.695  14.630  0.3660  0.0856 -0.1269
 4694W        W22898  10.625   8.077  15.066  0.1196  0.0026  0.0052
 4695W        W22899   8.784  14.991  10.468 -0.1259 -0.1570 -0.1097
 4696W        W22900  15.364   9.480  10.063  0.1809  0.0391  0.1658
 4697W        W22901   9.236   8.895  11.388  0.2056  0.2353  0.2560
 4698W        W22902  10.340   3.006  12.162 -0.2470 -0.0243  0.0769
 4699W        W22903   4.343   6.963   0.625  0.0996  0.0692  0.2219
 4700W        W22904   5.220   9.139   1.269  0.0220 -0.0468  0.1021
 4701W        W22905   0.561   6.108   0.674  0.2129  0.0458  0.4777
 4702W        W22906  13.155   3.890   3.493  0.1069 -0.1670 -0.0088
 4703W        W22907   4.426  10.072   3.225 -0.1856 -0.4574  0.0235
 4704W        W22908   1.773  16.839  12.148  0.0761  0.0250 -0.2680
 4705W        W22909  10.243  11.473  12.480  0.0333 -0.0172 -0.0731
 4706W        W22910   8.900  14.188   0.464 -0.1860  0.0400  0.1374
 4707W        W22911  14.342  16.767   0.061  0.3520 -0.1406  0.1853
 4708W        W22912  17.109   1.380  11.612 -0.0883 -0.1060  0.3292
 4709W        W22913  12.401   6.773  11.320  0.2598  0.0389 -0.1589
 4710W        W22914   1.443  10.463  14.324 -0.2049 -0.3707 -0.1186
 4711W        W22915   2.878  13.249  12.381  0.2328 -0.2798  0.0775
 4712W        W22916   1.008  11.275   2.347 -0.1001  0.1109  0.3056
 4713W        W22917   6.242   9.058  13.428 -0.0398  0.2117  0.0413
 4714W        W22918  11.572   2.281  13.423  0.2363  0.3063 -0.0043
 4715W        W22919  14.442   6.876   3.798  0.1205 -0.1038  0.2072
 4716W        W22920   0.003  12.060   1.648 -0.2024 -0.0171  0.1029
 4717W        W22921  14.640  11.356   4.545 -0.0729 -0.0055 -0.3631
 4718W        W22922  18.387  14.143   4.678  0.0054  0.3066 -0.0032
 4719W        W22923   0.036  14.694   3.843  0.1488 -0.2205  0.0292
 4720W        W22924   0.527   2.213  11.988 -0.0148  0.2488 -0.2174
 4721W        W22925  15.110   3.399   0.113  0.1034  0.1720 -0.0309
 4722W        W22926  14.059  15.458  14.169  0.0020 -0.1271 -0.1711
 4723W        W22927   0.839  13.853   2.714 -0.4050 -0.0167  0.2150
 4724W        W22928   3.116  17.565  10.483  0.0346  0.0448 -0.2819
 4725W        W22929   9.284  13.016   1.137  0.0914 -0.1012  0.2937
 4726W        W22930  11.541   6.423  12.347 -0.2318  0.1118 -0.0502
 4727W        W22931  13.606  12.298   3.588 -0.0052 -0.0307  0.1012
 4728W        W22932  11.303  16.674   0.190 -0.2734  0.1285  0.0517
 4729W        W22933   7.761   7.204  11.446  0.1590  0.0264 -0.1075
 4730W        W22934   9.012   3.483  13.137 -0.2999 -0.0995 -0.2761
 4731W        W22935   6.836   1.345   4.042 -0.1112 -0.0296  0.0510
 4732W        W22936   1.789   5.865  12.820  0.1788 -0.0538  0.1823
 4733W        W22937  11.680   4.188   0.964 -0.3238 -0.2520 -0.1263
 4734W        W22938   3.670   2.973   3.636 -0.1911 -0.1240  0.1336
 4735W        W22939   6.781   1.780  14.550  0.2480  0.0272 -0.0681
 4736W        W22940   9.371  17.554   3.033  0.3499  0.0555  0.0382
 4737W        W22941   0.946  11.505  14.853  0.0561  0.1324 -0.1274
 4738W        W22942   4.876   8.624  11.986  0.0777  0.1162  0.2122
 4739W        W22943  10.893  10.431  12.339 -0.0644 -0.0144  0.1420
 4740W        W22944   4.147  16.424  10.665 -0.1694  0.2664  0.2412
 4741W        W22945   3.106  12.346   2.077  0.1301 -0.1178  0.1013
 4742W        W22946   2.920  12.502   4.576 -0.0740  0.0717 -0.0805
 4743W        W22947  16.276  17.368  13.427 -0.3234 -0.1441  0.2428
 4744W        W22948  13.724   9.419   0.883 -0.1329  0.0727 -0.3288
 4745W        W22949  10.293   9.266   3.685 -0.1486 -0.0334  0.0103
 4746W        W22950  16.571  14.019  15.171  0.0648  0.0833 -0.6231
 4747W        W22951  16.730  18.534   1.000  0.2080 -0.1347  0.1029
 4748W        W22952  13.703   3.892  15.413  0.1067 -0.0061 -0.0760
 4749W        W22953  11.762   8.281  12.762  0.0023 -0.1131 -0.1337
 4750W        W22954  15.532   8.006   0.205  0.2025 -0.0810  0.2681
 4751W        W22955   5.165   6.742  11.027 -0.0483 -0.1924 -0.0884
 4752W        W22956   4.646  16.685  13.424  0.2413  0.1578 -0.0492
 4753W        W22957   5.681   6.846  13.027  0.2378  0.0034  0.1780
 4754W        W22958   9.558  12.592  14.097  0.1862  0.1797 -0.0338
 4755W        W22959   8.545  11.380  15.372 -0.1115 -0.0107  0.1378
 4756W        W22960  11.714   3.596  13.557  0.3755  0.2094  0.0462
 4757W        W22961   7.568   8.397  11.729  0.1081 -0.3276  0.2057
 4758W        W22962  13.551   9.882   2.680 -0.1210 -0.2082 -0.5116
 4759W        W22963   4.978  17.852  10.384  0.0985 -0.0137 -0.0515
 4760W        W22964   9.839   0.883   1.189 -0.0976  0.0445  0.1332
 4761W        W22965   9.061   9.515  15.437  0.0108  0.4900 -0.1689
 4762W        W22966  11.015   1.536   1.817  0.1638  0.0693 -0.3392
 4763W        W22967   7.205   4.404   4.053  0.3480  0.0721  0.1190
 4764W        W22968  16.402   5.261  13.143 -0.1451 -0.0365  0.0388
 4765W        W22969  16.109  11.504   2.104 -0.0149 -0.0171  0.2045
 4766W        W22970   5.844   2.321  13.576 -0.0096 -0.1186  0.1551
 4767W        W22971   8.276   3.710  11.137  0.0109 -0.0220 -0.0032
 4768W        W22972   4.359   9.636   1.576  0.1415 -0.0064  0.0580
 4769W        W22973  10.273  14.819  10.031  0.0618 -0.1570  0.0326
 4770W        W22974  15.327  15.273   3.363 -0.0249 -0.0869  0.2642
 4771W        W22975   4.956   0.669  10.507 -0.0108 -0.1256 -0.0141
 4772W        W22976  17.268  12.215  13.498  0.0097 -0.5685 -0.1291
 4773W        W22977  16.402  14.019  12.705 -0.1221  0.1674 -0.0407
 4774W        W22978  15.964  17.527  12.894  0.2074  0.0196  0.1051
 4775W        W22979   9.236   7.448  15.345  0.0368  0.0390 -0.0155
 4776W        W22980   8.880  17.533   2.831  0.2930  0.0721  0.0843
 4777W        W22981   1.302  18.071   2.301 -0.3240  0.0195  0.3045
 4778W        W22982  17.102  16.682  13.206 -0.1244  0.0484  0.3342
 4779W        W22983   3.940   4.836  11.920  0.0076 -0.0897 -0.2051
 4780W        W22984  11.278  16.733   1.316 -0.0609  0.0390 -0.4217
 4781W        W22985   3.020   7.191  13.513  0.2315  0.1813  0.0499
 4782W        W22986   3.198   1.910  12.045  0.0288 -0.2315  0.0116
 4783W        W22987   3.776  13.733  11.824 -0.2538 -0.1394 -0.1355
 4784W        W22988   1.885  12.286   4.046 -0.2558  0.0807  0.2471
 4785W        W22989   6.367  13.446   4.344  0.0855  0.0196 -0.2015
 4786W        W22990   6.261   0.311   0.158  0.2370 -0.0434 -0.1480
 4787W        W22991   3.664  18.022  12.920 -0.3728 -0.0050  0.1089
 4788W        W22992   3.916   5.264  11.647 -0.0657  0.2105  0.0743
 4789W        W22993   7.916   5.703  13.752 -0.0659  0.0335  0.3225
 4790W        W22994   8.003  15.476   1.480 -0.1715 -0.1576 -0.0959
 4791W        W22995   3.911  11.163   3.849 -0.0836 -0.0532  0.1510
 4792W        W22996  17.150  11.568  10.349 -0.1542  0.1454 -0.1000
 4793W        W22997   6.797  17.573  10.494  0.2421  0.0656  0.2850
 4794W        W22998  16.061  16.318  11.271 -0.1860  0.2155  0.0100
 4795W        W22999  10.193  11.495  15.334 -0.1660  0.1356 -0.2297
 4796W        W23000  10.246   3.443   3.474  0.1195  0.0040  0.0827
 4797W        W23001  12.725   6.741   3.576  0.1358 -0.0838  0.2372
 4798W        W23002  10.033  12.392   2.042 -0.0759  0.3169  0.1383
 4799W        W23003  10.361  17.925   3.379 -0.1614  0.3011  0.0439
 4800W        W23004  13.276  12.026  11.439 -0.1485 -0.4193 -0.0048
 4801W        W23005  18.184  11.198   3.896  0.1293 -0.0115 -0.0813
 4802W        W23006   6.869  12.825  13.109  0.0705 -0.3985 -0.0057
 4803W        W23007   2.091  11.735  12.027 -0.3669  0.2954  0.2300
 4804W        W23008  17.742  18.517   0.699 -0.1828  0.0419  0.0290
 4805W        W23009   5.356  12.026   2.107 -0.2753  0.0899  0.1897
 4806W        W23010  16.112   4.992   0.583  0.3101  0.1816  0.0866
 4807W        W23011  18.108  14.362   2.982 -0.0035  0.2794 -0.2167
 4808W        W23012  17.628  17.685   0.177 -0.2577 -0.1798 -0.1664
 4809W        W23013  18.313  12.891  13.618 -0.0350 -0.1319 -0.2235
 4810W        W23014   7.988  16.959  15.395  0.0240 -0.0530 -0.0128
 4811W        W23015  11.240   3.721   9.921  0.1101 -0.1634  0.0437
 4812W        W23016  11.845   0.506   2.499 -0.3175 -0.0009 -0.3161
 4813W        W23017   8.632   3.853   2.557  0.0848 -0.1549  0.0665
 4814W        W23018   0.058  18.564  15.264  0.0241 -0.0295 -0.0020
 4815W        W23019  11.917   2.958  12.998 -0.0923  0.3632  0.0086
 4816W        W23020  15.322   4.216  12.561  0.0441 -0.1290 -0.2009
 4817W        W23021  14.471   8.280  12.574 -0.2440 -0.1564  0.1084
 4818W        W23022   9.549  12.027   4.744  0.0759 -0.3640  0.0792
 4819W        W23023  15.969  16.094   1.640  0.1763  0.2061  0.4510
 4820W        W23024   2.023   1.544  13.378 -0.2084 -0.0271 -0.0400
 4821W        W23025  12.907   3.771  13.187  0.2365 -0.0989  0.0620
 4822W        W23026  15.600   1.590  11.925  0.1300  0.2149  0.1181
 4823W        W23027  11.193  15.840  14.832 -0.1400  0.0069 -0.0699
 4824W        W23028   2.988  12.680  14.190 -0.2805 -0.1535  0.1113
 4825W        W23029  18.621  14.456   9.908  0.2103 -0.3574  0.4305
 4826W        W23030   3.335  11.603   1.959 -0.0455  0.2384  0.3292
 4827W        W23031   3.623   3.422   2.846 -0.0260  0.2034 -0.1204
 4828W        W23032   0.361   0.926  13.680  0.3709 -0.0617 -0.0305
 4829W        W23033  13.725   2.338   3.204 -0.1201  0.1451 -0.1881
 4830W        W23034   2.080  16.226   4.959  0.0024 -0.0687  0.1135
 4831W        W23035   0.933  13.939   1.835  0.1525  0.0210 -0.1128
 4832W        W23036  12.730  10.482   4.263 -0.1316  0.0306  0.1971
 4833W        W23037   6.962   7.561   3.292  0.1918  0.1013  0.1129
 4834W        W23038  17.575   7.139   4.697 -0.4020  0.1434 -0.1522
 4835W        W23039   7.846   8.377   2.915  0.0780  0.3009  0.2832
 4836W        W23040  16.956  11.074   0.721  0.1250  0.0730 -0.2052
 4837W        W23041  11.196  13.557   0.478  0.0688 -0.1823 -0.0806
 4838W        W23042   7.826   3.850   3.302 -0.0091  0.2775 -0.0753
 4839W        W23043  11.304   1.456  13.540 -0.2225 -0.0805 -0.1764
 4840W        W23044  17.891   0.462   1.730  0.0226 -0.4036 -0.0244
 4841W        W23045  16.265   0.785  11.939  0.0879  0.1259  0.2317
 4842W        W23046   0.257  13.234   3.029  0.3870  0.0536  0.0619
 4843W        W23047   5.547  10.778   9.979 -0.0813 -0.1120  0.2526
 4844W        W23048   3.583  17.156  11.696  0.1732  0.1577  0.0747
 4845W        W23049  13.200  10.006  11.606  0.2976 -0.2498 -0.1192
 4846W        W23050  14.880  18.358  11.194  0.1196  0.1748 -0.1759
 4847W        W23051  13.901   5.674   1.741  0.2126  0.0974  0.1068
 4848W        W23052   0.281   6.236   4.104  0.1109 -0.1737 -0.1590
 4849W        W23053  11.898  10.650   3.693  0.0336 -0.1488 -0.2143
 4850W        W23054   3.333   4.936  10.795 -0.0005 -0.0386 -0.3236
 4851W        W23055  10.178  16.933   3.502 -0.0741 -0.1232  0.0706
 4852W        W23056   5.420  10.499  13.851  0.0473 -0.0204  0.0947
 4853W        W23057  13.026   2.310   5.172  0.0303  0.1538 -0.3483
 4854W        W23058  17.421   1.220   2.082  0.1390  0.0723 -0.1438
 4855W        W23059   9.853  18.278   4.535  0.1350  0.0964  0.3767
 4856W        W23060  15.066  11.771   2.787 -0.2764 -0.1016 -0.1658
 4857W        W23061   9.691   6.422   1.539  0.0997 -0.1165 -0.0789
 4858W        W23062   1.029   0.348   2.312 -0.1985  0.1944 -0.0569
 4859W        W23063  16.483   5.334  12.452 -0.0064 -0.3532 -0.1359
 4860W        W23064  18.227  11.983  14.608 -0.1396 -0.1497  0.0419
 4861W        W23065  14.659   9.217   3.666 -0.4328  0.1877  0.1865
 4862W        W23066   0.683   5.806   0.169  0.0336 -0.1255 -0.4763
 4863W        W23067  10.829  13.340  14.564 -0.0718  0.3143  0.0435
 4864W        W23068  10.852  12.446  12.594 -0.3021 -0.1434  0.0072
 4865W        W23069   7.087   6.826  12.562 -0.2399  0.0081 -0.2068
 4866W        W23070  14.116   3.353   2.176 -0.2978  0.0373  0.0926
 4867W        W23071  13.453   2.533  13.299 -0.1054 -0.0944  0.2629
 4868W        W23072   9.627   4.609  14.603  0.1414  0.1492  0.0677
 4869W        W23073  14.709   5.675  11.247  0.3384 -0.0543 -0.0148
 4870W        W23074  12.264  13.887  12.387  0.1542 -0.0560  0.1375
 4871W        W23075  12.112   3.240  13.371 -0.1600  0.0513  0.2095
 4872W        W23076  15.817   0.661  11.114  0.0204  0.2212  0.1678
 4873W        W23077  16.825   2.203  13.332 -0.1974  0.0228 -0.0652
 4874W        W23078  14.244  14.418   0.064 -0.0014  0.0118  0.2154
 4875W        W23079  12.406  13.757  10.139 -0.1778  0.0338 -0.2449
 4876W        W23080   2.233  17.349  12.164 -0.0704 -0.1100  0.2920
 4877W        W23081   9.685  15.267   4.641 -0.0905 -0.1887 -0.0157
 4878W        W23082   1.021   0.744   1.222 -0.1322 -0.1506  0.3086
 4879W        W23083   9.698  14.592  11.059  0.1673 -0.3627  0.1591
 4880W        W23084   5.771   9.710  12.732  0.0601  0.0101  0.0963
 4881W        W23085   1.319   0.541  12.269  0.0414  0.2467  0.1251
 4882W        W23086   4.395   6.284   2.138 -0.1530  0.0849 -0.0123
 4883W        W23087  11.412   8.074   2.895  0.1139 -0.1054 -0.0747
 4884W        W23088   6.474  18.429   3.712 -0.0065  0.0853  0.0800
 4885W        W23089  18.132   0.436   3.210  0.0429  0.0062  0.1107
 4886W        W23090  11.336  16.812  15.198  0.1108  0.0273 -0.1260
 4887W        W23091   1.922  12.941  13.729  0.2760 -0.0193 -0.2387
 4888W        W23092  12.349  15.316  10.899 -0.1419 -0.2839 -0.2387
 4889W        W23093  12.429  10.637  10.021 -0.0817  0.0066  0.1938
 4890W        W23094   3.509  13.578  11.169  0.2353  0.0247 -0.0940
 4891W        W23095  18.575   4.065   2.896  0.1741  0.1465  0.2672
 4892W        W23096   9.863  10.272  12.308 -0.1490  0.0195  0.1193
 4893W        W23097   1.657  17.166  13.727 -0.1625  0.1404 -0.0021
 4894W        W23098   3.228   6.979   5.139  0.1246 -0.1148 -0.1847
 4895W        W23099   6.166   3.432   4.345 -0.0206  0.1640 -0.1163
 4896W        W23100   4.720  11.938   0.565 -0.1993 -0.0881 -0.2106
 4897W        W23101   8.162   7.232  12.870 -0.0135 -0.3071  0.0601
 4898W        W23102   7.107  16.749   3.216  0.1238 -0.1882  0.0845
 4899W        W23103   5.757   0.945   2.410  0.1243  0.2813 -0.2532
 4900W        W23104  16.762   2.517  15.196  0.0574  0.0588  0.3433
 4901W        W23105  18.208   2.561  11.969 -0.4388  0.1628  0.1139
 4902W        W23106   2.329  11.027   0.512  0.0072 -0.3475  0.2599
 4903W        W23107   9.033  16.667   3.393 -0.1298 -0.0937 -0.4730
 4904W        W23108   8.180  17.159   3.807 -0.2077  0.2507 -0.1807
 4905W        W23109  16.297  17.860  11.870  0.2290  0.0114 -0.1068
 4906W        W23110  16.973   6.665   0.257 -0.2780  0.0370 -0.2303
 4907W        W23111   8.647  11.164  14.477 -0.1338 -0.1285 -0.1565
 4908W        W23112   7.799  14.395   3.939 -0.2900 -0.3223  0.0246
 4909W        W23113   4.858  13.396   0.750 -0.2166 -0.1278 -0.0008
 4910W        W23114   1.284   5.819  13.675 -0.2577  0.1911 -0.1034
 4911W        W23115   8.897   3.200   4.107 -0.0265  0.0199  0.0986
 4912W        W23116   8.846   5.948  11.621 -0.0096  0.0620 -0.1085
 4913W        W23117   6.869   5.817  13.668  0.0155  0.0574 -0.1594
 4914W        W23118   3.082   6.923  11.075  0.0519 -0.0058 -0.1213
 4915W        W23119   5.145  18.021  13.259 -0.1045  0.4220  0.0545
 4916W        W23120   0.203   5.414   0.234 -0.4167  0.0701  0.0545
 4917W        W23121  15.910  14.521  12.041  0.1120  0.1379 -0.2003
 4918W        W23122   8.176   3.539  14.820 -0.1763 -0.0289  0.0327
 4919W        W23123   4.086  10.041   0.922 -0.0012 -0.0303  0.1715
 4920W        W23124  12.732   0.045   2.332 -0.2478 -0.2272 -0.0793
 4921W        W23125   7.288  11.729   3.204  0.2233  0.3098  0.0629
 4922W        W23126   8.964   0.483  13.258  0.1710  0.0108  0.1242
 4923W        W23127   9.429  18.327  13.582  0.1327  0.0043 -0.1186
 4924W        W23128   1.699  18.590   0.705 -0.3373 -0.1450 -0.0075
 4925W        W23129  14.595  11.349  13.366 -0.0971  0.1713 -0.0896
 4926W        W23130   9.272   5.536  14.169 -0.0072  0.2167 -0.0496
 4927W        W23131  10.841  14.386  14.463 -0.0539 -0.0375 -0.0721
 4928W        W23132  15.387  15.664  12.058 -0.1106 -0.0446 -0.0218
 4929W        W23133   4.259   5.311  12.691 -0.0153  0.1431 -0.0813
 4930W        W23134   6.961  16.161  11.698  0.2182 -0.0424  0.1833
 4931W        W23135  12.337   6.698   2.783  0.0211 -0.3383  0.2582
 4932W        W23136  10.733   2.099  12.425 -0.0880  0.1986  0.3787
 4933W        W23137   1.830  16.341  14.071  0.4743 -0.5348  0.2481
 4934W        W23138   0.866   1.489  12.540  0.1921 -0.1174 -0.1642
 4935W        W23139  15.750   4.622  14.986  0.0411 -0.2959 -0.3981
 4936W        W23140   8.854  14.252   3.723 -0.3417  0.0376 -0.1857
 4937W        W23141   5.621  12.718  11.329 -0.2396 -0.1095 -0.1188
 4938W        W23142   7.646   8.022  10.889  0.0976 -0.0783 -0.2213
 4939W        W23143   0.537  14.254   3.754 -0.1286 -0.1560  0.1949
 4940W        W23144  16.209  10.143   2.537 -0.3647  0.2033 -0.0876
 4941W        W23145   9.816  12.291   4.064 -0.2126  0.4934  0.3634
 4942W        W23146  10.445   0.374   2.416 -0.0695 -0.1219  0.1081
 4943W        W23147  18.489   8.639   0.797  0.1241  0.0456 -0.0943
 4944W        W23148  13.834  12.482  15.466 -0.1345  0.1088 -0.3311
 4945W        W23149   8.601  16.496   3.163  0.0715  0.0622  0.2423
 4946W        W23150   6.219  15.433  11.732 -0.1352 -0.0601 -0.0147
 4947W        W23151   9.267   3.482  14.955  0.3192  0.2882  0.1262
 4948W        W23152  11.762  13.565  11.322 -0.1244  0.1189 -0.1001
 4949W        W23153   6.499  18.504  10.653  0.1839  0.0034  0.0088
 4950W        W23154   8.106  15.588   3.168  0.0747  0.2890 -0.0657
 4951W        W23155  14.336   3.387   2.865 -0.1309 -0.1968  0.0120
 4952W        W23156   8.359  15.067   3.926 -0.0448 -0.1412 -0.2381
 4953W        W23157  17.620   8.577   4.183 -0.2331  0.1101 -0.1362
 4954W        W23158   4.609   8.926   4.004  0.1476 -0.0795 -0.0322
 4955W        W23159   9.911   1.510   3.731 -0.0495 -0.1440 -0.0988
 4956W        W23160   6.164  12.563  11.349  0.0955 -0.2131  0.2389
 4957W        W23161  12.338   3.996  12.983 -0.1683  0.0520 -0.0032
 4958W        W23162   3.915   8.500  11.911 -0.1299  0.1713 -0.3488
 4959W        W23163   7.669  12.707  14.712  0.1615  0.0103  0.5378
 4960W        W23164   8.249  18.336  12.540 -0.2030 -0.0228  0.1799
 4961W        W23165   7.858   4.966  12.813 -0.0651 -0.3249  0.2418
 4962W        W23166   6.020   1.940   1.026  0.1286 -0.1168  0.0598
 4963W        W23167  15.394  12.300   5.874 -0.2109 -0.0456  0.0224
 4964W        W23168   7.768   1.837  11.642  0.1839  0.0467  0.4761
 4965W        W23169  12.094  15.782  14.781  0.3066 -0.0006 -0.3202
 4966W        W23170   3.967   9.774   2.419 -0.1382 -0.0055 -0.5025
 4967W        W23171  10.897   8.163  11.460  0.1626 -0.0939  0.0897
 4968W        W23172   5.414  16.488   3.717 -0.0845 -0.1591  0.1581
 4969W        W23173   0.069   4.470  14.249 -0.2362 -0.1893 -0.1559
 4970W        W23174   0.107  18.043   0.811 -0.0514  0.2469  0.1991
 4971W        W23175   0.019  12.022   3.703  0.3655 -0.2170  0.2867
 4972W        W23176  18.462  11.664   1.944  0.1946  0.0028  0.2786
 4973W        W23177  10.147   8.472   3.276  0.1206 -0.0869  0.0419
 4974W        W23178   8.721   6.664   3.483 -0.0191  0.1990  0.2353
 4975W        W23179  11.216   6.786  11.903  0.1888  0.0599  0.0284
 4976W        W23180  15.846   4.106  13.256  0.0059  0.2182  0.0028
 4977W        W23181  11.190   9.917  11.557 -0.0171  0.1490 -0.0554
 4978W        W23182  12.657  10.080   3.935  0.2558 -0.2145 -0.1454
 4979W        W23183   7.368  15.015  12.775  0.2321 -0.3461 -0.0858
 4980W        W23184   2.772  16.725   0.818  0.2201  0.0371  0.0541
 4981W        W23185  18.678  12.548  13.756 -0.1827  0.0674 -0.1298
 4982W        W23186  13.739   9.639  14.570 -0.2392  0.0063 -0.1952
 4983W        W23187  13.210   7.862  13.822  0.0027 -0.0892  0.0073
 4984W        W23188  17.652  15.477   0.661 -0.1925 -0.1549  0.1221
 4985W        W23189   3.385  17.564   4.168 -0.1172  0.0830 -0.2733
 4986W        W23190   2.771   8.065  11.041  0.0448 -0.1439 -0.0350
 4987W        W23191   1.095   6.492  12.530 -0.3982 -0.3942 -0.4223
 4988W        W23192   0.526   4.696   1.871 -0.0941 -0.1312 -0.0887
 4989W        W23193  15.785   6.434   3.878  0.1337  0.2278  0.1571
 4990W        W23194   2.835  15.361  11.384  0.0274  0.1755  0.1084
 4991W        W23195   5.629   4.461   1.927  0.6468 -0.2087 -0.2028
 4992W        W23196   4.030  10.267  13.476  0.4377  0.0011  0.2051
 4993W        W23197   3.905   0.067   2.149 -0.4133  0.0713 -0.1421
 4994W        W23198  12.001   5.423   2.243 -0.0680 -0.0910 -0.1170
 4995W        W23199   0.611   3.446   1.198  0.1452  0.1540 -0.1668
 4996W        W23200  17.875   0.840   6.060  0.1186  0.1140 -0.2521
 4997W        W23201  10.879  18.045  14.650  0.3253  0.0752  0.0691
 4998W        W23202  18.445   6.987   3.701  0.1734  0.2858 -0.0833
 4999W        W23203   9.138   1.975  12.301  0.0994 -0.1445  0.0688
 5000W        W23204  11.999   6.577  15.156 -0.2834 -0.2664  0.2245
 5001W        W23205  13.804   9.853   3.766  0.2550  0.0493 -0.1709
 5002W        W23206   8.824  14.675  13.085  0.0490 -0.3802 -0.1436
 5003W        W23207  12.269  16.539   1.720 -0.0413  0.1132  0.0974
 5004W        W23208  14.705  11.016   3.719  0.4426 -0.2195  0.1246
 5005W        W23209   3.769  12.859  14.454  0.3390 -0.0239  0.0383
 5006W        W23210   2.008   4.809  14.359 -0.1186  0.1602 -0.0899
 5007W        W23211   4.108  12.272  12.262 -0.1190 -0.1492 -0.0975
 5008W        W23212  16.013  11.958   2.896  0.1542 -0.2420  0.1452
 5009W        W23213   1.338  10.880   0.680  0.0840 -0.1434 -0.2774
 5010W        W23214  14.209   0.153  12.630  0.1145 -0.0013 -0.3072
 5011W        W23215  11.735   7.712  11.785 -0.1587 -0.2693  0.1260
 5012W        W23216   3.397  14.805  13.851 -0.0526  0.0930  0.3833
 5013W        W23217   1.474   5.280   0.549  0.3441 -0.2379 -0.0340
 5014W        W23218   9.839  11.714   0.308 -0.0019  0.3318 -0.1533
 5015W        W23219   2.261   7.017  14.785  0.1957 -0.0690  0.1568
 5016W        W23220   6.254  15.634  11.045 -0.0499  0.1428  0.2005
 5017W        W23221   3.733  17.918  11.034 -0.0749  0.3373  0.4155
 5018W        W23222   9.708  11.312   0.005 -0.2891 -0.1179 -0.1308
 5019W        W23223  18.284  10.371  13.808 -0.1859  0.0962  0.0327
 5020W        W23224   2.144   2.580   3.211 -0.0006 -0.3035  0.1155
 5021W        W23225  12.026   5.268  14.495 -0.0792  0.3040 -0.0053
 5022W        W23226   6.774   1.263  13.160  0.1131 -0.0571  0.4265
 5023W        W23227  15.881  11.705  10.523  0.1213  0.1442  0.1772
 5024W        W23228  14.802   6.801   3.223 -0.3668 -0.1644  0.0017
 5025W        W23229  15.483  16.624   0.917 -0.1230 -0.0558 -0.2526
 5026W        W23230  10.099  15.897   1.054  0.0721  0.0563  0.2879
 5027W        W23231  14.637  10.151  11.469 -0.0505  0.0038 -0.4455
 5028W        W23232  15.731   6.140  14.025  0.0178 -0.2076 -0.1104
 5029W        W23233   1.730  15.471  13.164 -0.1389 -0.1499 -0.2869
 5030W        W23234   1.607  11.986   3.710 -0.2264 -0.0954  0.2470
 5031W        W23235  18.003   5.409   2.432 -0.1901  0.1722 -0.1153
 5032W        W23236   1.656  13.689  10.981  0.2531  0.2566  0.0572
 5033W        W23237  13.761  12.133  14.253  0.1681  0.0132 -0.0675
 5034W        W23238   9.275   5.324   0.470  0.2349 -0.4239 -0.1035
 5035W        W23239   7.379   4.073   2.159 -0.0081  0.0321  0.1515
 5036W        W23240   5.771   4.045   0.521 -0.0788 -0.2921  0.0232
 5037W        W23241   1.535   8.634  11.379 -0.0275 -0.2408 -0.0282
 5038W        W23242   4.111   4.149  13.474  0.0456 -0.2169  0.1670
 5039W        W23243  13.030  11.293   1.440  0.2111 -0.0754  0.2177
 5040W        W23244  16.993  15.371  12.890 -0.0655 -0.3289  0.0392
 5041W        W23245   2.681  18.680   2.850  0.1904 -0.0552 -0.0954
 5042W        W23246   2.465  12.874  13.578 -0.0483  0.0207  0.0781
 5043W        W23247   3.786   6.825   2.364  0.1035  0.3493  0.3449
 5044W        W23248  13.595   9.725  12.876 -0.0006 -0.0765 -0.2446
 5045W        W23249  11.465   0.516   2.209  0.2449 -0.4312 -0.0207
 5046W        W23250   7.139   3.303  13.909 -0.0354 -0.2156  0.2977
 5047W        W23251   7.800   7.087  14.136 -0.2290 -0.3577  0.1762
 5048W        W23252   9.144  12.615   3.460 -0.1163  0.2111  0.0506
 5049W        W23253   7.848  13.462   2.588  0.4306  0.0087  0.3303
 5050W        W23254  10.493  12.897  12.823 -0.0711  0.3309  0.2655
 5051W        W23255   2.161  13.265   9.700 -0.2320  0.0421 -0.2709
 5052W        W23256   1.776   2.442   3.552 -0.0201  0.0748 -0.0417
 5053W        W23257   7.926   4.116   3.761  0.2196  0.0033 -0.2239
 5054W        W23258  13.992   0.042  11.148 -0.0849 -0.1222  0.0425
 5055W        W23259   2.411  14.617   5.261 -0.2164  0.2022 -0.1931
 5056W        W23260   6.812   8.929  11.352 -0.0402 -0.0732 -0.0040
 5057W        W23261   3.735   5.960   2.101 -0.2843 -0.0639 -0.0410
 5058W        W23262   1.206   4.813   3.861  0.1880  0.1828  0.0387
 5059W        W23263   0.869   5.976  12.531  0.0142  0.0067  0.0364
 5060W        W23264   1.880   3.371  14.572 -0.1027 -0.0741  0.0882
 5061W        W23265  15.050  10.969   0.123  0.0486 -0.0150  0.1788
 5062W        W23266  16.860  16.107   1.261 -0.0344 -0.1038 -0.3357
 5063W        W23267   2.441  16.597   3.851  0.0313  0.3301 -0.0780
 5064W        W23268   6.440  12.645   2.780 -0.1667 -0.2309  0.0199
 5065W        W23269   5.421  13.474  14.923 -0.0714  0.0276 -0.0407
 5066W        W23270  10.507  14.369   3.959  0.0892  0.0377 -0.1740
 5067W        W23271   6.739   9.963   4.530 -0.0439  0.0684 -0.1121
 5068W        W23272   0.943  15.054   0.072  0.0421 -0.1450 -0.0856
 5069W        W23273  13.792   6.716   1.126 -0.1032  0.1672  0.3143
 5070W        W23274   0.624  18.270  11.399  0.0122  0.0728 -0.0314
 5071W        W23275   0.557   4.035  12.451 -0.0098 -0.0941 -0.1487
 5072W        W23276   8.383   2.181  15.081  0.2127  0.1556 -0.1871
 5073W        W23277   8.954   5.649  15.056 -0.1521  0.0674  0.0308
 5074W        W23278   4.198  10.109   2.789  0.1716  0.1331  0.0178
 5075W        W23279   9.364   4.978   4.995  0.0279  0.2361 -0.0463
 5076W        W23280  11.137   5.420  10.647 -0.2119 -0.0858 -0.0793
 5077W        W23281  11.252  10.883   1.963  0.0733 -0.1544  0.2617
 5078W        W23282   2.085  11.395  11.515  0.0148 -0.0273 -0.0428
 5079W        W23283   2.325   9.396   3.036 -0.0083 -0.1300  0.2591
 5080W        W23284   9.067   9.281   0.838 -0.1190 -0.1016  0.1856
 5081W        W23285  11.337   4.137  12.704 -0.1898 -0.0936 -0.1307
 5082W        W23286   0.798  18.163   0.285  0.0384 -0.0489 -0.0190
 5083W        W23287   3.277   8.796  10.798 -0.0606  0.0975  0.0990
 5084W        W23288  12.052   0.792  14.854  0.2260  0.1189 -0.2657
 5085W        W23289  10.276   7.435  14.907 -0.2090 -0.0308  0.2944
 5086W        W23290  14.008  11.373  11.954 -0.3530  0.0287  0.1705
 5087W        W23291  17.579  11.200  11.684 -0.3827  0.0619  0.0032
 5088W        W23292  11.624  14.870   3.575 -0.1001 -0.0261  0.3312
 5089W        W23293   4.007  14.048  12.675  0.0483  0.4367  0.1753
 5090W        W23294  16.883   4.608   1.049  0.0374  0.2693  0.1104
 5091W        W23295  14.203  13.560  10.461  0.2356 -0.1802  0.0145
 5092W        W23296   3.333   2.782  11.696 -0.0795  0.1074  0.1154
 5093W        W23297   6.414  10.876  11.768  0.0950 -0.0772 -0.3379
 5094W        W23298  15.532   1.114   1.476  0.0167  0.0685  0.1702
 5095W        W23299  11.074  17.152   1.091 -0.0299  0.0533  0.1532
 5096W        W23300  16.067   0.680   4.855  0.2586  0.3381 -0.2263
 5097W        W23301   4.499  12.057  11.176 -0.2318 -0.3102 -0.0348
 5098W        W23302   5.165   7.051  11.520  0.0608 -0.3008 -0.1491
 5099W        W23303   0.134  12.095  13.487  0.1418  0.0451  0.0469
 5100W        W23304  10.615   8.597  11.147  0.0037  0.0296  0.0801
 5101W        W23305   8.603   8.736  14.036 -0.0066  0.2910  0.0011
 5102W        W23306   7.195   4.245   1.721  0.4788 -0.3801  0.0495
 5103W        W23307  14.777   5.049   0.845  0.0305 -0.1953 -0.0081
 5104W        W23308  10.934   6.283  13.100 -0.0948 -0.0832 -0.3854
 5105W        W23309  16.517   9.596  11.787  0.0760 -0.4523  0.0915
 5106W        W23310   5.213   8.893  12.540 -0.0331 -0.1487  0.0484
 5107W        W23311   9.407  14.306   5.035 -0.0169 -0.0635  0.4640
 5108W        W23312  13.222  14.427   4.599 -0.2318 -0.3386  0.2074
 5109W        W23313   8.244   0.265   2.925  0.0850 -0.0504  0.0942
 5110W        W23314   1.414   4.373  12.483  0.2363  0.0936  0.2640
 5111W        W23315   1.783  11.861   9.792  0.0584  0.0553  0.1505
 5112W        W23316  11.620  11.334  12.702  0.0040  0.2407 -0.3474
 5113W        W23317   2.314  12.280   2.713 -0.0491  0.0600 -0.0276
 5114W        W23318   5.681   5.686   2.562 -0.2776 -0.2140 -0.2128
 5115W        W23319  11.720   0.736  10.853  0.2441 -0.0683  0.0684
 5116W        W23320   1.526  16.029   1.655  0.0656  0.0399  0.0154
 5117W        W23321   1.089   6.939  12.698 -0.3451  0.0773  0.0063
 5118W        W23322  11.679   6.068   3.178  0.2048  0.3331 -0.0600
 5119W        W23323   6.924  10.719  11.741 -0.0210 -0.0154 -0.0739
 5120W        W23324   6.521   9.836   1.082 -0.0243  0.3610  0.1305
 5121W        W23325   0.115  14.907   4.328  0.0972 -0.0754 -0.1632
 5122W        W23326   7.815   0.119   0.686 -0.1631 -0.2128 -0.2161
 5123W        W23327  12.346   0.046   2.102  0.1382 -0.1056 -0.0104
 5124W        W23328   2.574  12.329  13.568  0.1478  0.1055  0.1594
 5125W        W23329  10.104   6.268  11.971 -0.1686  0.0851  0.0276
 5126W        W23330  11.742  10.314  10.660 -0.0334  0.2013 -0.3799
 5127W        W23331   9.004   4.697  13.552 -0.1072  0.2936  0.1543
 5128W        W23332   3.115  16.840   1.826 -0.2226  0.2359  0.0274
 5129W        W23333  10.734   7.848   3.938 -0.1231  0.0033 -0.0890
 5130W        W23334   2.965  12.983  13.291 -0.0653  0.2237  0.0595
 5131W        W23335   9.827  11.633   6.146  0.5629 -0.0877 -0.1249
 5132W        W23336  12.231   7.069  12.382 -0.0893  0.2245  0.2355
 5133W        W23337   1.960  12.879  15.162 -0.1789 -0.1439  0.3711
 5134W        W23338  14.973   3.073  10.373 -0.1781  0.1815 -0.2244
 5135W        W23339  11.123   7.814  11.070  0.1742 -0.1314  0.2335
 5136W        W23340   5.838  17.161  14.229  0.0332  0.2286  0.2339
 5137W        W23341  10.078   0.691   2.212 -0.4090  0.4023  0.0753
 5138W        W23342   9.183  16.602   0.331 -0.0654 -0.0765  0.0868
 5139W        W23343   3.880  13.445  13.388  0.1263 -0.2778 -0.0651
 5140W        W23344  16.184  11.713  13.424  0.1277  0.0820 -0.0059
 5141W        W23345  15.440   4.474   5.522 -0.1417 -0.1809 -0.2174
 5142W        W23346   8.755  12.828   1.894  0.1802  0.3842 -0.1307
 5143W        W23347   9.258  17.831   2.025 -0.0076 -0.0604 -0.2139
 5144W        W23348   9.244   2.643  14.886 -0.2706  0.2413 -0.0311
 5145W        W23349  16.979  17.836  14.261  0.1898 -0.1708 -0.1685
 5146W        W23350  12.487  16.621  11.948  0.0864 -0.0541 -0.1172
 5147W        W23351   1.157  16.761  14.364 -0.1725 -0.3904  0.0808
 5148W        W23352  16.349   3.008   1.880  0.0718 -0.1816 -0.1101
 5149W        W23353  11.528  12.240  13.771  0.2548  0.0178 -0.5808
 5150W        W23354   6.823   0.513  11.538  0.0643  0.1785 -0.2155
 5151W        W23355   1.860  15.683  14.136  0.1224  0.2686 -0.2739
 5152W        W23356  13.977   6.634  15.103 -0.1195 -0.1615 -0.0710
 5153W        W23357   2.455  11.181   1.635  0.2124 -0.0520 -0.1628
 5154W        W23358  17.604   1.124  13.353  0.5296 -0.1581  0.1455
 5155W        W23359   7.887   5.039   1.696  0.1373 -0.1406  0.2577
 5156W        W23360  15.875  15.872  11.146  0.0631  0.1565 -0.0301
 5157W        W23361   0.454  16.746  13.193 -0.0692  0.4605  0.2076
 5158W        W23362   7.301  12.838   1.662  0.1151 -0.2228  0.1240
 5159W        W23363  14.481   3.154  11.673  0.0089  0.0259  0.0984
 5160W        W23364   5.293  10.990   3.434  0.0453  0.0923 -0.1771
 5161W        W23365  15.499  14.157   2.032  0.1895 -0.4600  0.1088
 5162W        W23366  12.116   6.680   1.020 -0.1286  0.3949  0.2660
 5163W        W23367   9.385  17.985  12.151  0.1539 -0.2427  0.2782
 5164W        W23368  13.088  11.777   4.333 -0.4155 -0.2545 -0.0904
 5165W        W23369  18.448   0.479  14.426 -0.3282  0.1620 -0.2333
 5166W        W23370  12.602   3.239  13.569  0.2298  0.2247  0.0651
 5167W        W23371   1.878  16.788   0.189  0.0643 -0.1365 -0.2412
 5168W        W23372  15.192   2.092   3.596  0.0736  0.0936 -0.1885
 5169W        W23373   9.859  13.952  11.684  0.1596  0.1566  0.0344
 5170W        W23374  17.252  10.370  13.895 -0.0384  0.0026  0.0208
 5171W        W23375  12.674  10.999   2.707 -0.2417  0.1475 -0.0082
 5172W        W23376  12.376   5.885  11.355  0.0671 -0.1175 -0.0856
 5173W        W23377  11.541  17.033  12.057  0.0684  0.1226  0.0808
 5174W        W23378  18.381  12.839  14.721  0.3414 -0.0980  0.1892
 5175W        W23379   3.293  17.495   1.855  0.1937 -0.2911  0.0332
 5176W        W23380   5.162  14.812   3.909 -0.1873 -0.2002  0.2716
 5177W        W23381   6.157  13.423  12.632 -0.0642  0.4125 -0.1738
 5178W        W23382  15.587  16.203   4.694 -0.1029  0.0227  0.1242
 5179W        W23383   6.590  16.640   1.778  0.2689 -0.1570 -0.1085
 5180W        W23384  18.117   7.405   4.327  0.3843  0.1503  0.1986
 5181W        W23385  16.828  12.863   0.696  0.1427  0.1595 -0.2258
 5182W        W23386  15.730  11.994  11.566  0.0313 -0.4103  0.0596
 5183W        W23387   8.006  18.596   3.826  0.1400  0.1611  0.0980
 5184W        W23388   7.076  18.382   3.766  0.2893 -0.1850 -0.1607
 5185W        W23389  16.445   8.354   1.639 -0.1606 -0.0068  0.1102
 5186W        W23390  17.468  17.702  15.144 -0.1535  0.0312 -0.1343
 5187W        W23391   6.579  12.682   3.289 -0.0806  0.1072  0.0646
 5188W        W23392  16.210   2.215   4.439 -0.1884 -0.3983 -0.0680
 5189W        W23393  11.153  11.662  13.094  0.0017  0.0635 -0.0645
 5190W        W23394   6.924  13.040  11.565 -0.0462  0.1409 -0.2368
 5191W        W23395  18.283   6.043   4.654 -0.2488  0.0221  0.0862
 5192W        W23396  18.151   0.322  11.776  0.0552 -0.3738  0.0341
 5193W        W23397  12.011  13.887  13.961 -0.1807  0.2391  0.0949
 5194W        W23398  13.954  17.366   0.559 -0.0379  0.0879  0.4308
 5195W        W23399   9.156  13.320  13.192  0.0832 -0.1028 -0.0217
 5196W        W23400  15.905  16.268  12.258 -0.0147 -0.0811  0.1308
 5197W        W23401   1.495   3.437   3.722  0.1334 -0.0160 -0.1441
 5198W        W23402   1.825  11.518   3.065 -0.1742  0.0137  0.0045
 5199W        W23403   0.784  11.828  13.886 -0.0204  0.2839 -0.3289
 5200W        W23404   4.888   2.264  15.245  0.3476  0.1777 -0.1320
 5201W        W23405   0.098   3.344  12.324  0.0946 -0.1152 -0.0499
 5202W        W23406  15.011  17.926  11.871 -0.3350 -0.0443 -0.0113
 5203W        W23407   0.067  13.234  11.928 -0.0631  0.2121 -0.2559
 5204W        W23408   5.683  17.843  11.668  0.4969  0.0243 -0.2064
 5205W        W23409   3.122  16.568   4.231 -0.1231 -0.1225 -0.3415
 5206W        W23410  12.319   6.688   3.313 -0.0293 -0.1159  0.1497
 5207W        W23411   2.428   6.502   1.769  0.1267  0.0666  0.1466
 5208W        W23412  13.962   8.419  14.614  0.0776  0.1830 -0.1281
 5209W        W23413  14.811  18.172   4.391  0.0959 -0.0589  0.4101
 5210W        W23414  12.518  15.986   3.158  0.2283 -0.0566  0.1255
 5211W        W23415   6.359   3.131  13.963  0.0920 -0.0347 -0.1418
 5212W        W23416   3.113   4.535   0.025 -0.0684 -0.1631  0.0050
 5213W        W23417   6.465   4.528  14.502 -0.0688 -0.1212  0.0604
 5214W        W23418   4.090   3.506  12.644 -0.4366  0.1633  0.2770
 5215W        W23419   5.036   1.234  11.578 -0.0780 -0.0481  0.1300
 5216W        W23420   9.863   1.033  11.337  0.0298  0.1238 -0.3153
 5217W        W23421   5.140  13.938  15.313  0.0378  0.2201  0.1311
 5218W        W23422   8.702  14.850  15.137 -0.0874  0.1543 -0.0204
 5219W        W23423   8.540   3.193   3.208  0.1370  0.2322 -0.0184
 5220W        W23424   5.589  11.835   2.638  0.3582  0.1517 -0.0638
 5221W        W23425   6.116  16.552   2.765  0.0297 -0.0715 -0.2333
 5222W        W23426   0.603   2.460   0.881 -0.1068 -0.2180  0.0565
 5223W        W23427   0.514  18.686   1.556  0.0305 -0.1873  0.1662
 5224W        W23428   0.449  12.110   1.975  0.0281  0.0644 -0.3012
 5225W        W23429   5.411   5.911   3.005  0.0474 -0.1187  0.1695
 5226W        W23430  11.192   3.435   1.697  0.0350 -0.0922 -0.2277
 5227W        W23431  12.330   7.816   0.224  0.0752  0.0676  0.1340
 5228W        W23432  15.338   0.448   1.888 -0.2300  0.1177  0.1568
 5229W        W23433   5.593   1.395  13.793 -0.0241 -0.0556  0.3523
 5230W        W23434  12.883  11.084   3.534  0.1234  0.1794  0.0813
 5231W        W23435  12.778  12.602   1.683  0.2360 -0.2199 -0.0261
 5232W        W23436   1.467   4.299  15.210  0.1340 -0.0081  0.0144
 5233W        W23437   2.887   9.266  14.944 -0.1032  0.0970 -0.1250
 5234W        W23438   2.097  13.401  13.610  0.0354 -0.0015 -0.1115
 5235W        W23439  15.488  11.513   2.936 -0.0654  0.2214 -0.2230
 5236W        W23440   0.714   7.111  11.952 -0.2249  0.0960 -0.0021
 5237W        W23441  16.393   5.381   0.232 -0.2635 -0.1192  0.5152
 5238W        W23442   9.828   0.872  14.918  0.1876  0.0437 -0.0133
 5239W        W23443  12.670  16.784  11.114 -0.1624  0.1966  0.2998
 5240W        W23444  14.095  17.475  14.808  0.1207  0.0326 -0.0796
 5241W        W23445  10.389   0.189   0.577 -0.0120 -0.1609  0.0100
 5242W        W23446  11.970   4.905  13.181  0.0488 -0.0070  0.0261
 5243W        W23447  17.305   5.811  15.075 -0.0252  0.1755 -0.1566
 5244W        W23448  10.253   2.729   2.299 -0.4240  0.1245  0.1875
 5245W        W23449  16.223   6.920   1.339 -0.2866  0.1512  0.1094
 5246W        W23450  16.209   7.287  12.444 -0.2154 -0.0026 -0.1973
 5247W        W23451  12.527  11.947   1.068  0.0216  0.4760 -0.4145
 5248W        W23452   5.015   9.098   5.085  0.0662  0.0074 -0.3226
 5249W        W23453  15.513  15.870   2.382 -0.0668  0.0455  0.0218
 5250W        W23454  18.206   5.346  13.562 -0.2435  0.4235  0.1320
 5251W        W23455  13.373   1.393  14.704  0.0800  0.0202  0.0704
 5252W        W23456   5.252  14.171  11.632  0.1178  0.1350 -0.2248
 5253W        W23457   4.177   8.288   0.291 -0.2978 -0.1697  0.0184
 5254W        W23458   7.194  11.788   0.047 -0.2808 -0.0092  0.0109
 5255W        W23459  14.218   0.056   1.644  0.0229  0.3678 -0.1708
 5256W        W23460   8.390  16.139   2.114  0.0112  0.0799  0.3244
 5257W        W23461  10.677  10.726   3.436 -0.2208 -0.0870  0.0696
 5258W        W23462  10.067   4.815  12.349  0.5224  0.2535  0.3593
 5259W        W23463  12.665   5.507   3.021  0.0439 -0.2411 -0.1934
 5260W        W23464   2.395  11.007   9.937 -0.0494  0.0412  0.1061
 5261W        W23465   1.099   4.193   2.309 -0.1485  0.2577 -0.0333
 5262W        W23466  12.894   2.218  13.956 -0.2438  0.4863  0.1344
 5263W        W23467   3.291   9.318  15.246  0.0227 -0.1168 -0.0126
 5264W        W23468  13.622  14.985   0.585 -0.1702 -0.0035  0.1780
 5265W        W23469  15.424  14.765  12.022  0.0301  0.0472  0.0452
 5266W        W23470  12.284   3.005   1.094 -0.2198  0.2034  0.1827
 5267W        W23471   0.069   0.332  12.465 -0.0945  0.0433 -0.0198
 5268W        W23472  13.955  10.011  10.903  0.0726  0.0678  0.1638
 5269W        W23473   0.050   5.952  13.714 -0.2951 -0.1395 -0.0982
 5270W        W23474   5.884   4.030   1.720 -0.0023 -0.1328  0.2614
 5271W        W23475   2.614  15.699   2.769  0.1394 -0.5821 -0.0386
 5272W        W23476  17.998   6.175  10.853 -0.0512  0.3139 -0.2814
 5273W        W23477   2.188   4.560   3.749 -0.0920  0.0115  0.1222
 5274W        W23478   4.034  11.290  12.105  0.0919  0.0100  0.1399
 5275W        W23479  14.224  12.856  13.766  0.1524  0.2762 -0.3835
 5276W        W23480   9.943   7.372   3.943  0.0430  0.2912 -0.0349
 5277W        W23481   4.272   3.675  13.568  0.0444  0.0237 -0.1223
 5278W        W23482   8.136   8.043  11.270 -0.1608 -0.0309 -0.0718
 5279W        W23483   4.524   7.304  13.263  0.2551 -0.0493 -0.4075
 5280W        W23484   8.646   9.201   3.119  0.1847  0.1104 -0.1581
 5281W        W23485   8.296   8.705   2.175  0.2657 -0.1314 -0.1600
 5282W        W23486   0.860  10.885  11.910  0.1878 -0.2258 -0.1609
 5283W        W23487   2.432   8.748  11.465  0.2031 -0.1097  0.1449
 5284W        W23488  11.182   9.299   1.762 -0.4483  0.1826  0.0009
 5285W        W23489  16.237   7.529   1.338  0.1105 -0.0884  0.1505
 5286W        W23490   1.667  17.503  11.232 -0.4144 -0.1893 -0.4116
 5287W        W23491   8.944   1.473  11.295  0.3461 -0.1264 -0.0045
 5288W        W23492   0.133  16.771   2.181 -0.0723 -0.2520  0.0745
 5289W        W23493  17.321   2.872  12.406 -0.1556  0.1102  0.3555
 5290W        W23494   9.572  12.758  12.449  0.2757  0.1857  0.1438
 5291W        W23495   7.491  14.121   3.071  0.1827 -0.0346  0.0884
 5292W        W23496  10.699  11.437  15.406  0.4797 -0.0360 -0.0745
 5293W        W23497   4.667   9.719   1.994 -0.1807  0.0268 -0.0395
 5294W        W23498  17.036   7.035  12.007  0.1841 -0.2096 -0.1372
 5295W        W23499  10.940   9.130   2.850  0.1933  0.3054  0.0680
 5296W        W23500  10.100   6.942   0.159  0.0210 -0.1905 -0.2421
 5297W        W23501  13.337   1.806  13.365 -0.2185 -0.2223 -0.0034
 5298W        W23502   1.700   5.595  13.341 -0.3883  0.3973  0.0603
 5299W        W23503   8.751  17.122  14.319 -0.2396  0.0667  0.2652
 5300W        W23504   4.627   6.613  10.873  0.2774 -0.0932  0.1464
 5301W        W23505  10.787  15.859   2.992 -0.1135  0.0079 -0.0833
 5302W        W23506   0.406  12.546  13.395  0.3517  0.1477 -0.1316
 5303W        W23507   0.588   0.533   0.273 -0.3231  0.1370 -0.3891
 5304W        W23508  12.401  17.312  13.646  0.1505  0.3279 -0.0679
 5305W        W23509   7.668  11.950   1.549 -0.0548  0.1776  0.0188
 5306W        W23510  12.876   2.612   1.765  0.1868  0.0210  0.0267
 5307W        W23511  11.805   4.425   4.760  0.0487  0.2385 -0.2834
 5308W        W23512  10.443   3.293  15.000 -0.0080 -0.0338 -0.2228
 5309W        W23513  17.079  15.850  15.453  0.0269 -0.0067  0.3917
 5310W        W23514   0.283   7.824   4.037  0.1834 -0.0120 -0.1109
 5311W        W23515   5.526   9.875  15.423 -0.0813  0.0021 -0.0625
 5312W        W23516  12.108  12.915  12.800 -0.0804  0.2187 -0.0524
 5313W        W23517   9.342   3.262  14.021  0.0440 -0.0159  0.2143
 5314W        W23518   4.695  14.271   1.838  0.4723 -0.0902 -0.0446
 5315W        W23519   3.954   8.124   5.548  0.0559  0.0715 -0.0712
 5316W        W23520  11.707   8.580   3.536 -0.1722 -0.0089 -0.3094
 5317W        W23521  15.551   3.732   2.682 -0.1403  0.0604 -0.1448
 5318W        W23522  17.925   3.872  14.631 -0.1788  0.2455 -0.3090
 5319W        W23523   2.729  15.637   4.726  0.5384 -0.1323 -0.1696
 5320W        W23524  14.798  10.093   0.058 -0.0055 -0.0146  0.1515
 5321W        W23525  11.580   2.682  12.673 -0.3968 -0.0520  0.2791
 5322W        W23526   6.811   2.955  13.554  0.0293 -0.4279 -0.1577
 5323W        W23527  10.882   8.690  10.710 -0.0090  0.1436 -0.2225
 5324W        W23528  10.093  10.385  13.784 -0.0578 -0.0078 -0.1526
 5325W        W23529  18.187   9.504  14.776 -0.0442  0.0323  0.1174
 5326W        W23530   6.903   6.739  14.974 -0.2343  0.0129  0.0792
 5327W        W23531   8.126   4.240   3.317 -0.5302 -0.3251  0.3420
 5328W        W23532   7.377   2.919   3.059  0.0878 -0.4501 -0.1232
 5329W        W23533  15.050   6.367   3.423  0.1400 -0.0611 -0.1456
 5330W        W23534   8.116  18.470   5.099 -0.1572 -0.2146 -0.3360
 5331W        W23535  14.238   0.424  11.422 -0.3184 -0.2555  0.1775
 5332W        W23536  12.633  16.577   4.452  0.2180  0.1016  0.0626
 5333W        W23537   6.199   5.528   2.571  0.0026  0.2788 -0.2436
 5334W        W23538   7.149   2.651   3.523 -0.1663 -0.2172  0.1481
 5335W        W23539   3.538  18.459   1.912  0.1097  0.1186 -0.2515
 5336W        W23540  14.601  15.986  13.366 -0.1341 -0.3351  0.2337
 5337W        W23541  11.329  10.037   1.892 -0.1648  0.1231  0.1152
 5338W        W23542  12.622  13.197   1.111 -0.0911 -0.1576 -0.1460
 5339W        W23543  15.497   9.091   4.094 -0.0938 -0.1991 -0.0622
 5340W        W23544   6.115  11.495   0.589 -0.1556  0.1649 -0.0974
 5341W        W23545  18.058   7.306   4.780 -0.0448 -0.1545 -0.1237
 5342W        W23546  11.597  14.779   0.791 -0.0058 -0.1581  0.0432
 5343W        W23547  12.677  12.332  14.826  0.0954  0.0032 -0.1302
 5344W        W23548  13.943  11.297   3.945 -0.0712 -0.3326 -0.0034
 5345W        W23549   9.979   5.663   4.642 -0.2056  0.0277  0.0957
 5346W        W23550   9.149   5.723   2.873 -0.0538 -0.1759 -0.1530
 5347W        W23551  16.292   7.454  11.147  0.1818 -0.1895 -0.1013
 5348W        W23552   3.538   1.671  13.658  0.0673  0.2819  0.2260
 5349W        W23553  10.579  10.104   1.478 -0.0498 -0.3219  0.0749
 5350W        W23554   4.001   4.317  12.245 -0.1245 -0.1474 -0.1729
 5351W        W23555   3.166   8.639   2.196 -0.2154  0.0353 -0.1155
 5352W        W23556   5.786  11.996  11.970 -0.0353  0.0948 -0.0852
 5353W        W23557  12.362   5.506   1.845 -0.0456 -0.3490 -0.1207
 5354W        W23558  16.791  13.998  14.153  0.2205 -0.1415 -0.1282
 5355W        W23559  14.834  11.058  13.700  0.1425 -0.0007  0.1283
 5356W        W23560  16.480  11.563   3.669 -0.0018 -0.1256  0.0534
 5357W        W23561  11.451  10.750  13.948 -0.2507 -0.0930  0.0046
 5358W        W23562   8.197   6.371   1.488  0.5008  0.3381  0.1782
 5359W        W23563  10.197   5.703  13.053 -0.1180  0.0333  0.0247
 5360W        W23564  17.805   1.296  13.862 -0.0046 -0.0203  0.0432
 5361W        W23565  18.666  16.430  14.848 -0.1311 -0.0826  0.1397
 5362W        W23566   8.681   8.805   4.054 -0.2835  0.0202 -0.1078
 5363W        W23567   4.195  16.846   3.893 -0.1816  0.2445 -0.0917
 5364W        W23568  17.142   2.706  13.402  0.1727 -0.2574 -0.0973
 5365W        W23569  17.278   6.103  11.692  0.0829  0.2378  0.0562
 5366W        W23570   1.906  10.884  15.083 -0.1478 -0.0450  0.2521
 5367W        W23571  13.270  18.460   2.573  0.1000 -0.2425  0.3710
 5368W        W23572  14.043   1.552  14.685 -0.1791 -0.0883 -0.0300
 5369W        W23573   6.809   0.307  10.813 -0.0985 -0.0799 -0.1192
 5370W        W23574  12.331  14.800   3.219 -0.0712 -0.0074  0.0971
 5371W        W23575   5.550   6.824   2.912 -0.2861 -0.0483 -0.1339
 5372W        W23576  12.050  15.874  13.438  0.0367  0.1787  0.1520
 5373W        W23577  16.292   1.717   1.476  0.1119 -0.0106  0.1808
 5374W        W23578  15.704  13.436   3.407 -0.1487 -0.1293 -0.0639
 5375W        W23579  14.956   6.501  12.177 -0.0897 -0.2951  0.1268
 5376W        W23580  12.633   9.679   1.546  0.1647  0.0474  0.0356
 5377W        W23581  16.121   3.987   3.901 -0.0380  0.1193  0.2061
 5378W        W23582  11.238   2.698   1.196  0.1804  0.1739  0.0038
 5379W        W23583  17.503   6.677  14.398  0.0445  0.0323  0.1702
 5380W        W23584  11.878  18.211  10.515  0.2425  0.0027  0.0096
 5381W        W23585   2.543   1.816   3.443 -0.1755 -0.1290 -0.1820
 5382W        W23586  13.902   8.679   3.385 -0.4432  0.0954 -0.0084
 5383W        W23587   6.534   9.262   4.017  0.0208  0.0438  0.0617
 5384W        W23588  14.535  18.513   2.890  0.0604  0.3423  0.0453
 5385W        W23589  18.276   6.546  13.902  0.0849  0.2013 -0.1550
 5386W        W23590   3.083  15.296   1.549  0.0239  0.2885 -0.2142
 5387W        W23591  18.098   3.854   1.449 -0.1914 -0.1594  0.1281
 5388W        W23592  10.290  14.803   0.912 -0.0654 -0.0561  0.0742
 5389W        W23593  17.896  13.130  11.022  0.0207 -0.1069  0.1035
 5390W        W23594   6.189  10.491  11.639  0.0467 -0.0984 -0.3013
 5391W        W23595   8.672   9.032  15.255 -0.1155  0.3008 -0.0724
 5392W        W23596   6.789  17.716   3.308 -0.0970 -0.2402 -0.0560
 5393W        W23597  12.526   5.825   1.478  0.1256 -0.0726 -0.4500
 5394W        W23598  13.151  15.395   0.267  0.1563  0.1694  0.1763
 5395W        W23599  11.467   4.083  13.554  0.0856  0.0952 -0.1894
 5396W        W23600  12.551   2.397   1.430  0.0130 -0.3162  0.2540
 5397W        W23601  16.313   7.946   2.013 -0.0110 -0.2377 -0.0202
 5398W        W23602   1.565  17.448   2.666 -0.0389 -0.0069 -0.1697
 5399W        W23603   6.056  16.938   2.394  0.0636 -0.0162  0.0631
 5400W        W23604   0.570  11.138   0.197  0.1081  0.0004 -0.4291
 5401W        W23605   7.996   7.010   4.339  0.1528  0.1200 -0.0022
 5402W        W23606   4.789  14.278  11.406 -0.0572 -0.0809 -0.2049
 5403W        W23607   7.648  14.441   0.545  0.1346 -0.2102  0.1472
 5404W        W23608  10.312  14.035   3.046 -0.3301  0.1939 -0.0133
 5405W        W23609   4.135  11.358   5.726 -0.1344 -0.0331  0.0146
 5406W        W23610  10.902   2.871  11.256  0.3090  0.1712  0.0159
 5407W        W23611   3.051  17.933  13.759  0.3207 -0.1416  0.1194
 5408W        W23612  13.720   2.846   3.495 -0.0902  0.1867 -0.1201
 5409W        W23613  18.376   6.614  10.520  0.0912  0.6215 -0.2908
 5410W        W23614   5.421   2.659  14.833 -0.3094  0.3198 -0.2362
 5411W        W23615   6.205  13.377   2.282  0.1445 -0.2871 -0.2478
 5412W        W23616  14.376   1.398  13.623 -0.2432  0.2448  0.4101
 5413W        W23617  10.416  16.850   3.075  0.1507 -0.0104  0.2812
 5414W        W23618   1.530   8.155   3.334 -0.1401  0.2483  0.0406
 5415W        W23619   7.763   0.918  11.469 -0.1852  0.1442  0.0020
 5416W        W23620  10.475   8.960   4.009 -0.4016  0.4009 -0.4101
 5417W        W23621   6.110   9.515  12.009 -0.0939 -0.1618  0.1903
 5418W        W23622   3.887  13.054   3.272 -0.0233 -0.3388 -0.1428
 5419W        W23623   8.189   3.891  13.408 -0.0381 -0.1386 -0.0434
 5420W        W23624   9.424   9.563   2.134 -0.0116 -0.2365  0.0038
 5421W        W23625  11.308   0.201  13.251 -0.0316 -0.1269 -0.2477
 5422W        W23626  16.362  10.946  12.688 -0.0486 -0.1014 -0.1181
 5423W        W23627  14.671  10.350   0.718  0.3012  0.1737 -0.1225
 5424W        W23628  12.337  14.105   1.192  0.2364 -0.0574  0.1297
 5425W        W23629   5.388   6.459   3.347  0.1202  0.1622  0.1057
 5426W        W23630   6.643   6.799   2.704 -0.1903 -0.4418  0.1042
 5427W        W23631   8.132  16.006  12.487  0.0547  0.0853  0.0157
 5428W        W23632  15.703  14.866  13.813 -0.0146  0.4102 -0.0081
 5429W        W23633   9.054  15.989  15.345  0.1778 -0.1322  0.4702
 5430W        W23634   5.155   5.070   2.509 -0.2141  0.0005 -0.0886
 5431W        W23635   9.384   7.960  15.070 -0.2422 -0.0598  0.2133
 5432W        W23636  16.992  16.750   2.703  0.1311  0.1345  0.1630
 5433W        W23637   4.287  16.841  12.368 -0.2280 -0.1230 -0.1080
 5434W        W23638  18.677   7.212  15.132  0.4674  0.1618 -0.2273
 5435W        W23639  18.657  17.878  15.302  0.2017  0.3301  0.2876
 5436W        W23640  11.020   9.148  11.013  0.0836  0.1205 -0.2742
 5437W        W23641   0.397  11.269   1.517 -0.3205 -0.1760 -0.3175
 5438W        W23642  16.274  11.837   5.785 -0.0974 -0.0740  0.0063
 5439W        W23643   8.433   9.290   4.885 -0.2994 -0.0284 -0.2155
 5440W        W23644   8.133   7.967  13.451  0.2384  0.3868 -0.1188
 5441W        W23645   2.624   2.908  11.999  0.1054 -0.2084  0.2222
 5442W        W23646   2.450  16.502  12.574 -0.0153 -0.2712 -0.0600
 5443W        W23647  17.568  14.575  12.526  0.0100  0.0351  0.2520
 5444W        W23648  16.364  17.778  15.408 -0.0315  0.3887 -0.1691
 5445W        W23649   6.630   9.968   0.547 -0.2449  0.0752 -0.1484
 5446W        W23650   8.151  17.383   0.611  0.1494  0.5691  0.3421
 5447W        W23651   0.124   4.573   1.503  0.1856  0.1910 -0.1746
 5448W        W23652  17.650   4.653   0.348 -0.0860 -0.2685  0.1582
 5449W        W23653   3.701  15.896  14.193  0.0005 -0.0836 -0.1171
 5450W        W23654   8.912   2.672  11.733  0.2763  0.2330 -0.0325
 5451W        W23655   1.566  17.411   4.359  0.0256  0.0522  0.0192
 5452W        W23656   0.669  12.539  10.005 -0.1035 -0.1502  0.1944
 5453W        W23657  16.077   4.848   4.221  0.4974 -0.4001  0.2833
 5454W        W23658  15.386  15.396  13.799 -0.0360  0.0902  0.2941
 5455W        W23659  16.652   3.916  14.813  0.2512 -0.1456  0.2812
 5456W        W23660  13.102   1.206   1.800 -0.2555 -0.0497 -0.0556
 5457W        W23661   7.138  16.872  15.137  0.1649 -0.1467  0.2791
 5458W        W23662  10.714   0.767  13.126  0.0824  0.3474  0.1483
 5459W        W23663  11.511  12.042  12.890 -0.2327  0.1260  0.2537
 5460W        W23664   6.185   1.705  14.655  0.2377 -0.1145 -0.2583
 5461W        W23665  16.571  16.923   2.482 -0.4582 -0.4067  0.0701
 5462W        W23666  17.140   3.869   1.271  0.2840 -0.0956 -0.3326
 5463W        W23667  18.507   1.406  11.347  0.2882  0.1788  0.0637
 5464W        W23668   5.441  18.341  11.937  0.2024  0.1542 -0.0210
 5465W        W23669   8.503  17.291  11.475 -0.0269 -0.1148  0.0258
 5466W        W23670   5.611   8.625  11.199 -0.1290 -0.0165  0.2320
 5467W        W23671  15.931   6.108  11.510 -0.1758 -0.1088 -0.3039
 5468W        W23672  16.870   8.022  12.921  0.2094 -0.1699 -0.0722
 5469W        W23673   3.658   0.483  14.791 -0.0531 -0.2253  0.2004
 5470W        W23674   8.670  10.073  10.268 -0.2891  0.0137  0.2030
 5471W        W23675  16.387   7.189   5.354  0.1943 -0.2483 -0.2369
 5472W        W23676   1.129  16.806   2.722 -0.1838  0.1139 -0.1736
 5473W        W23677  15.435  12.665  10.814 -0.1665 -0.0499 -0.0328
 5474W        W23678   4.295   3.552   2.985  0.2587  0.1508 -0.0721
 5475W        W23679   7.490   4.813   4.083 -0.0199  0.1518 -0.3095
 5476W        W23680   4.622  13.470  12.378 -0.1114  0.2486  0.1165
 5477W        W23681   7.084   2.388  12.639 -0.2230 -0.0864 -0.1303
 5478W        W23682   9.701   1.524   2.385 -0.0759 -0.3503 -0.1767
 5479W        W23683  12.002  13.791   3.901 -0.1170 -0.2026  0.1079
 5480W        W23684  15.524  11.802  11.114 -0.0056  0.0291 -0.4188
 5481W        W23685  15.865   2.712   0.480 -0.0810 -0.1559 -0.0196
 5482W        W23686  17.149  15.611   0.912 -0.1210 -0.2013  0.1915
 5483W        W23687   7.707   8.255   5.261 -0.2075  0.0773 -0.1283
 5484W        W23688   3.749  17.454   0.618  0.0574  0.1865 -0.0688
 5485W        W23689   1.562  11.095  13.708  0.1919 -0.0979  0.2513
 5486W        W23690  15.574  16.169   3.168  0.1200 -0.0954 -0.3573
 5487W        W23691  12.166  16.883  13.738  0.2851  0.2785 -0.0503
 5488W        W23692  10.350  17.372   4.405 -0.1442  0.2174 -0.1266
 5489W        W23693   9.391   5.276   2.122  0.1695  0.0463  0.1281
 5490W        W23694   8.631  12.535  14.629  0.0208  0.1631 -0.2168
 5491W        W23695   8.443  15.670  14.620 -0.0244  0.0169  0.0626
 5492W        W23696   7.593   7.832  13.541  0.1444  0.3055 -0.1244
 5493W        W23697  18.148   7.511  15.241  0.0414 -0.1339  0.0159
 5494W        W23698  16.119   9.962  11.857  0.0520  0.2464 -0.3718
 5495W        W23699  15.096   3.736   1.348 -0.0298 -0.0461 -0.2252
 5496W        W23700   5.317  14.243   3.329 -0.0604  0.1386 -0.1725
 5497W        W23701  10.057  14.359  15.120  0.4641 -0.2053 -0.0214
 5498W        W23702  10.203  15.940  15.054  0.1949  0.0254 -0.0551
 5499W        W23703  18.663   9.797   1.760  0.4511 -0.1547 -0.0728
 5500W        W23704  10.089  16.465   1.269  0.0315 -0.1435  0.3027
 5501W        W23705  14.280  15.281  14.915 -0.0243  0.2873 -0.1372
 5502W        W23706  18.318  10.786   4.150 -0.2314 -0.3072  0.0196
 5503W        W23707  16.407   2.386  11.219  0.0647 -0.1037  0.2256
 5504W        W23708   2.805   3.757  13.931  0.3433 -0.0427  0.1065
 5505W        W23709   6.304  14.201  12.180 -0.2942 -0.1525  0.0041
 5506W        W23710   8.289   7.657   2.620  0.2325  0.2462  0.0450
 5507W        W23711  13.051  12.724   5.447  0.1632 -0.3288  0.4492
 5508W        W23712   3.559  18.182  12.434  0.0042 -0.0521  0.0188
 5509W        W23713   6.789  17.972  10.862 -0.0854  0.0881  0.0613
 5510W        W23714   7.633  18.206   2.715  0.0062  0.0414 -0.2211
 5511W        W23715   3.820  17.048  10.544  0.0325  0.2580 -0.0782
 5512W        W23716  10.850   8.519   5.105 -0.1492 -0.0919 -0.0252
 5513W        W23717  11.122  17.774   0.220 -0.0879 -0.0871 -0.1445
 5514W        W23718   4.255  16.989   3.385 -0.1303  0.3129 -0.0343
 5515W        W23719   1.131  12.516  14.676 -0.0893  0.2303  0.1205
 5516W        W23720   6.133   9.347   1.520  0.1037 -0.3038 -0.0984
 5517W        W23721   4.478  15.974  14.923 -0.0728  0.2796  0.2492
 5518W        W23722  16.765  15.644  13.273 -0.1034  0.1759 -0.1532
 5519W        W23723   2.410   0.474   1.299 -0.2991 -0.1617 -0.2756
 5520W        W23724  17.652  15.156  11.864 -0.2098 -0.2916  0.1253
 5521W        W23725   3.754   3.426  14.446  0.1678 -0.2228 -0.1832
 5522W        W23726   9.861   0.331   1.885  0.0857 -0.1361  0.0494
 5523W        W23727  11.846  15.666  12.452  0.0185  0.3563 -0.0641
 5524W        W23728  16.980  18.543  15.202  0.0016  0.1534  0.1706
 5525W        W23729   4.808   1.248  13.183  0.1284  0.0469 -0.0162
 5526W        W23730   3.225   4.449   0.510 -0.2087  0.0018 -0.3428
 5527W        W23731   0.731  12.062  11.436 -0.0648 -0.0348 -0.0325
 5528W        W23732   3.625  12.237   5.084  0.2160  0.1745 -0.1611
 5529W        W23733   8.697   2.130  12.040  0.0458  0.0344 -0.1689
 5530W        W23734   5.788   9.966   2.395 -0.2064  0.0321 -0.1147
 5531W        W23735  15.577  11.613   4.589  0.2114 -0.1766 -0.0140
 5532W        W23736  11.217   3.680   2.619  0.1151 -0.2413  0.2311
 5533W        W23737   6.153   0.555   3.797  0.2459 -0.1899 -0.0673
 5534W        W23738   7.226  14.182   1.291 -0.1245  0.0430 -0.0537
 5535W        W23739  10.721   1.973   2.007 -0.3503  0.1171  0.0193
 5536W        W23740  11.875   2.579   3.269  0.1858 -0.0233 -0.1171
 5537W        W23741   7.435   8.415   0.478 -0.0912 -0.0760  0.1371
 5538W        W23742   9.539  12.635   3.870 -0.0890 -0.1725 -0.3517
 5539W        W23743  12.986  17.156  11.102  0.0321  0.2059 -0.0456
 5540W        W23744   9.852  17.862   3.599 -0.0673  0.1898  0.0443
 5541W        W23745   8.607   6.110   4.838  0.1544 -0.0684 -0.1384
 5542W        W23746  11.718   2.532  14.636 -0.0852  0.0581 -0.1231
 5543W        W23747   8.843   3.142  14.173  0.1965 -0.0357  0.1392
 5544W        W23748   7.460  12.029  14.245 -0.1603 -0.0307  0.0074
 5545W        W23749   1.050   8.723  11.337 -0.0185 -0.1558 -0.5005
 5546W        W23750   4.779   4.903  13.213  0.1547  0.2450  0.1809
 5547W        W23751   1.509  13.377  13.538 -0.2120  0.2574  0.0372
 5548W        W23752   6.480   1.743  10.909  0.2731  0.2738  0.3073
 5549W        W23753  11.901   5.542   0.775  0.3771 -0.0014  0.1824
 5550W        W23754  14.580  15.023   2.266  0.1907 -0.0311  0.0032
 5551W        W23755  18.118  11.129  13.572  0.0521 -0.2586  0.1414
 5552W        W23756  14.478  16.527   3.222  0.2743 -0.1149  0.0547
 5553W        W23757   9.028  16.288   4.221  0.0526 -0.1153 -0.2614
 5554W        W23758   9.255   9.534  11.778  0.0210 -0.2886  0.0611
 5555W        W23759  16.673  10.708   4.519  0.0966  0.2836 -0.0119
 5556W        W23760  14.716   1.317   1.232 -0.4464  0.2569  0.3540
 5557W        W23761  15.366   6.663  12.351 -0.1893  0.3966  0.2842
 5558W        W23762   6.681  10.413  13.480  0.2780 -0.2216  0.0143
 5559W        W23763   9.899  16.942   4.010 -0.0723  0.0175 -0.7746
 5560W        W23764  10.140  12.017   2.543 -0.2645  0.1293 -0.0545
 5561W        W23765  16.289   1.175  12.748 -0.0144 -0.1213 -0.0577
 5562W        W23766   4.658   7.981   4.206  0.1290  0.2675  0.0862
 5563W        W23767   7.475   4.906  14.826 -0.1273 -0.1574 -0.1099
 5564W        W23768   2.980  14.997   0.612  0.1545 -0.0171 -0.2435
 5565W        W23769  10.285  14.397  13.670  0.2086 -0.0362 -0.2182
 5566W        W23770  15.890   8.463   0.548  0.0865 -0.0948  0.1689
 5567W        W23771  15.449   0.649   1.225  0.0584  0.2692 -0.0183
 5568W        W23772   5.075  10.926  11.861 -0.1474 -0.0084 -0.0771
 5569W        W23773  11.695   2.447   0.526  0.1206 -0.1046  0.1905
 5570W        W23774   6.686   6.698  12.149  0.2522  0.0199 -0.0476
 5571W        W23775   2.103   2.971  13.221 -0.1241  0.4170  0.1629
 5572W        W23776   8.997  14.282   2.687  0.0312 -0.0976 -0.0770
 5573W        W23777  13.414   9.375  14.255 -0.1728  0.1884  0.1209
 5574W        W23778   7.576  13.658   2.961 -0.0474  0.1265 -0.2292
 5575W        W23779  17.179  13.267   1.326  0.0588 -0.1190 -0.0405
 5576W        W23780   0.553  15.970   0.247  0.2493 -0.0156  0.0925
 5577W        W23781   4.238  13.959   4.799  0.1959 -0.4302  0.0554
 5578W        W23782   8.745  10.189   3.146  0.2412  0.2449  0.0990
 5579W        W23783  13.221  17.242   1.121  0.2899 -0.0238  0.0880
 5580W        W23784   6.376   0.898  11.657 -0.0640  0.1367  0.1819
 5581W        W23785  12.704   3.854   3.820 -0.1233 -0.3584 -0.0777
 5582W        W23786   8.677  12.770  12.876  0.1192  0.1488 -0.2279
 5583W        W23787  11.067  10.462   1.673 -0.0831 -0.1912 -0.0088
 5584W        W23788   0.317   3.248   0.333  0.3029  0.1524 -0.2266
 5585W        W23789   5.732   9.097  11.035  0.0165 -0.2172  0.0907
 5586W        W23790   2.178   0.451   3.607 -0.1327  0.4290 -0.0572
 5587W        W23791   0.116   0.661   0.284 -0.0675  0.1212  0.0916
 5588W        W23792   8.104  18.182   3.466 -0.3636  0.0144 -0.1305
 5589W        W23793   2.629  11.821  13.457 -0.1907 -0.0174 -0.0746
 5590W        W23794   2.242  10.646  14.806  0.2691  0.2035  0.3199
 5591W        W23795   6.987   8.023   3.625 -0.0181  0.0131  0.1138
 5592W        W23796   1.853   9.830  14.828  0.2021  0.2577  0.0062
 5593W        W23797   3.712   9.743  12.690  0.4388 -0.2497  0.1174
 5594W        W23798   4.818  14.983   1.051  0.0918 -0.0367  0.1806
 5595W        W23799  10.016   9.710  15.329  0.1113 -0.1131 -0.0609
 5596W        W23800  17.092   9.479   2.848  0.1265  0.1184  0.1020
 5597W        W23801   5.492   2.162   0.983 -0.0847  0.1573  0.2083
 5598W        W23802   5.649  17.006   3.787 -0.3198 -0.3254  0.2546
 5599W        W23803   2.195   6.457   0.811  0.2026  0.1128 -0.0740
 5600W        W23804   9.732   9.680   1.725 -0.1392 -0.0040 -0.1848
 5601W        W23805   3.836  18.128   2.212 -0.0443  0.1465  0.0716
 5602W        W23806   5.968  16.695  14.594  0.1538 -0.0013  0.0825
 5603W        W23807  18.217  17.160   3.282 -0.1178  0.1974  0.0400
 5604W        W23808   8.194   1.436  14.338 -0.0531  0.0345 -0.1231
 5605W        W23809   0.274  16.402   4.533  0.3205 -0.0080  0.1616
 5606W        W23810   0.045  18.212  11.725  0.1524  0.2713 -0.0999
 5607W        W23811  12.901  17.433  12.919 -0.0240 -0.2028  0.4032
 5608W        W23812   5.353  13.585   4.655 -0.2566  0.2268  0.2743
 5609W        W23813   7.919   0.948   0.244  0.0948  0.0613  0.1584
 5610W        W23814  13.504  17.561  14.206 -0.0211  0.1032 -0.0783
 5611W        W23815  16.879   9.981  13.713 -0.2346  0.3336  0.1641
 5612W        W23816   0.835  15.278   0.938 -0.1854 -0.0899  0.1657
 5613W        W23817   4.723   3.015   1.045 -0.2760  0.2032 -0.0559
 5614W        W23818   6.700   4.874  13.509 -0.3594  0.1344  0.0860
 5615W        W23819  15.272  14.524   3.887 -0.1222 -0.0050 -0.1173
 5616W        W23820  12.920   9.932  12.101  0.1730 -0.2357 -0.1803
 5617W        W23821  11.575   7.725  11.253  0.4296  0.1262  0.1552
 5618W        W23822   4.337  17.237  12.059  0.2443  0.0042 -0.1694
 5619W        W23823   4.631   0.440  10.784  0.2039 -0.0779 -0.2167
 5620W        W23824  12.961   0.883  13.086  0.0836  0.1728  0.2289
 5621W        W23825  16.763   9.922   2.619 -0.1460 -0.0055 -0.0959
 5622W        W23826  17.030  14.163   3.681  0.1781 -0.0979  0.1834
 5623W        W23827  18.418   4.973  12.289  0.1009  0.3637 -0.0616
 5624W        W23828  10.197  12.510   2.702  0.1278 -0.0666 -0.1647
 5625W        W23829  15.695   0.844   0.292  0.0725 -0.0082 -0.0020
 5626W        W23830   9.904   4.372  11.354 -0.1050  0.1137 -0.1536
 5627W        W23831   7.613   3.209  12.838  0.0321  0.0214  0.0826
 5628W        W23832  16.500  18.520  12.167 -0.1285  0.2314  0.2159
 5629W        W23833  15.073  10.469  14.658 -0.0857 -0.1249 -0.0023
 5630W        W23834  16.387  11.199  12.204 -0.3073  0.0269  0.1656
 5631W        W23835  14.563   0.614   0.662 -0.2012  0.2763 -0.2369
 5632W        W23836  16.842  14.651  11.922  0.1007  0.4180 -0.1592
 5633W        W23837   1.521   0.110   4.896 -0.1033 -0.1543 -0.1232
 5634W        W23838   0.543   6.530  11.649  0.2956  0.0886  0.0191
 5635W        W23839   4.236   0.771   3.703  0.0697  0.0546  0.0479
 5636W        W23840  18.511  11.704  13.644 -0.1314  0.3111 -0.0792
 5637W        W23841  15.670   1.363  14.113  0.0309 -0.2317 -0.1965
 5638W        W23842   6.126   8.087   2.066 -0.1575 -0.0119  0.2747
 5639W        W23843   1.379   0.705  12.759 -0.1583 -0.0623  0.3480
 5640W        W23844   7.578   4.356  15.260  0.1181 -0.0111 -0.0451
 5641W        W23845   9.349  11.154   4.536  0.1541 -0.0478 -0.3639
 5642W        W23846   6.108   3.276  11.506  0.1504  0.0439 -0.0737
 5643W        W23847  18.530   2.996   0.161  0.1090 -0.1285 -0.1274
 5644W        W23848   0.390   8.467   1.088  0.0401 -0.3075  0.1139
 5645W        W23849  13.665   7.724   1.068 -0.0657 -0.3317  0.0750
 5646W        W23850   4.273   0.920  15.086 -0.3876  0.0854  0.1168
 5647W        W23851   1.988   3.148   3.558  0.0779  0.0370  0.1045
 5648W        W23852  11.809   6.518   4.544  0.0887 -0.0956 -0.0968
 5649W        W23853  14.503  11.620  15.156 -0.0611  0.1416 -0.0301
 5650W        W23854  11.474   9.462  14.540 -0.0994  0.2802  0.0731
 5651W        W23855   3.234  15.085   2.431 -0.0446 -0.2725  0.1672
 5652W        W23856  13.180  11.604  11.213  0.3385  0.0108 -0.2573
 5653W        W23857  10.868  18.442  12.993 -0.2273 -0.1285  0.0358
 5654W        W23858  11.765   1.414   2.171  0.2183  0.1775  0.0659
 5655W        W23859  15.764  15.592  14.735  0.2229 -0.3011 -0.1050
 5656W        W23860  12.326   4.158   3.533 -0.0610  0.0260 -0.1095
 5657W        W23861   7.002  13.392   1.731  0.1151  0.2454  0.1760
 5658W        W23862   7.167  11.829   4.477 -0.2267  0.1877  0.0122
 5659W        W23863  15.395   6.480  15.121 -0.1129 -0.0541  0.0689
 5660W        W23864   4.936   2.962   3.188  0.1749  0.0989 -0.2481
 5661W        W23865   4.408  12.471  14.921  0.2654  0.1992 -0.1049
 5662W        W23866   4.729  11.558  11.241 -0.0736  0.2408 -0.2670
 5663W        W23867  11.156   1.709  12.281 -0.2216 -0.3527  0.0684
 5664W        W23868   7.732   8.513   1.557 -0.1734  0.0403  0.1321
 5665W        W23869   5.368  13.745  13.685 -0.1704 -0.0062  0.0838
 5666W        W23870   5.870  10.961  12.908 -0.0714 -0.0147  0.1605
 5667W        W23871  15.382   6.460  14.135  0.3354 -0.1395 -0.0898
 5668W        W23872  11.723  12.521   4.399  0.0871 -0.2082  0.1660
 5669W        W23873  17.510   0.707  15.313  0.0443  0.1961 -0.0274
 5670W        W23874  15.211   5.753  11.226 -0.1608 -0.3289 -0.0703
 5671W        W23875   1.858   8.773  12.714  0.0190  0.1020  0.0073
 5672W        W23876   4.409  16.693   0.511 -0.1611 -0.1488 -0.0326
 5673W        W23877   9.575  11.091  12.045  0.1530  0.1039  0.1882
 5674W        W23878  15.990   3.005   4.524  0.1828  0.3266 -0.1710
 5675W        W23879   4.822   8.300   0.950  0.4156  0.2307  0.1462
 5676W        W23880  13.803  11.238   4.467  0.1087  0.1323  0.3025
 5677W        W23881   2.345  11.537  12.396 -0.0309 -0.1589 -0.4594
 5678W        W23882  13.576  17.652  11.429  0.1912 -0.1578 -0.2425
 5679W        W23883  12.574   0.899   2.008 -0.3438 -0.0938  0.1591
 5680W        W23884   9.772   1.029   0.676 -0.2121 -0.2091 -0.0734
 5681W        W23885  11.337   1.977  13.755 -0.1511  0.2331 -0.0158
 5682W        W23886   7.385  15.727   3.038  0.0846  0.2524 -0.1221
 5683W        W23887   1.815  15.178   0.336  0.0562 -0.0009  0.0051
 5684W        W23888  10.434   2.451   1.670 -0.0138 -0.2578  0.1729
 5685W        W23889  17.986   9.366   2.842 -0.0045  0.5016  0.0886
 5686W        W23890   4.231   8.144   0.976  0.3954  0.0610 -0.1317
 5687W        W23891   5.308  10.463   4.207 -0.0285  0.1779  0.0835
 5688W        W23892  16.781   8.336  14.108  0.0404 -0.0626  0.1211
 5689W        W23893  16.519   4.968  14.479  0.0284 -0.2898 -0.1359
 5690W        W23894  11.407   0.132  12.620  0.1146  0.0916 -0.4033
 5691W        W23895  16.589  16.708   4.255 -0.0492 -0.0356  0.1056
 5692W        W23896  10.103  12.995  11.535 -0.0666  0.1624 -0.0503
 5693W        W23897   2.262  14.553  11.563 -0.1247 -0.0859  0.0938
 5694W        W23898  14.953   0.829  14.816  0.3264  0.1025 -0.2092
 5695W        W23899   8.372  16.786  13.107  0.0888  0.1865 -0.2596
 5696W        W23900   3.365  10.615   1.804 -0.2064  0.3074 -0.0594
 5697W        W23901  12.554  13.012  14.080 -0.1124  0.1996  0.0510
 5698W        W23902  14.401   4.161  12.533  0.2009  0.1761 -0.1632
 5699W        W23903   3.893  11.161   4.427  0.1604 -0.3796  0.0498
 5700W        W23904  11.348  13.408  11.010 -0.0372  0.1114  0.2256
 5701W        W23905  11.924   6.053  13.022 -0.0835  0.1488 -0.0223
 5702W        W23906   3.916   9.785  11.959 -0.0128  0.1512 -0.0051
 5703W        W23907  13.512   9.931  15.189  0.0720  0.3524  0.1330
 5704W        W23908   6.922  17.860  14.360  0.1428 -0.3430 -0.2578
 5705W        W23909   6.200   6.019   4.229  0.3670  0.4304  0.3797
 5706W        W23910   9.860  17.460   1.324  0.1871  0.1145 -0.3617
 5707W        W23911   8.250   6.439   3.654  0.0185  0.2936 -0.0228
 5708W        W23912   1.070  10.090  11.967 -0.0494  0.1023  0.0985
 5709W        W23913  17.692   8.845   0.909 -0.0794  0.1424  0.2809
 5710W        W23914   0.126  10.925   3.190 -0.0422 -0.1916 -0.2068
 5711W        W23915   6.136  17.182   3.563  0.1131 -0.2461 -0.0643
 5712W        W23916  13.438  15.645   3.085 -0.0796  0.0448  0.1705
 5713W        W23917  15.547   3.522   1.288  0.0288  0.2049  0.1358
 5714W        W23918  10.838   5.023  12.712 -0.2961  0.2112 -0.2476
 5715W        W23919   1.662   4.661   3.783  0.1204 -0.2863 -0.0943
 5716W        W23920   0.921  15.965   3.331 -0.1320 -0.2075 -0.0783
 5717W        W23921   6.637   2.088  13.089 -0.2376  0.1200 -0.0376
 5718W        W23922   1.809   0.292  10.246  0.0516  0.1861 -0.1913
 5719W        W23923  11.292  13.765   3.372  0.0003 -0.2045  0.1186
 5720W        W23924  14.868   4.431  11.725 -0.0179  0.1857  0.1514
 5721W        W23925  13.532  16.621  13.260 -0.1502  0.1858  0.3907
 5722W        W23926   9.487   4.297   0.706 -0.0246 -0.0722  0.3807
 5723W        W23927  15.481   8.114   1.273  0.1640  0.4243 -0.1111
 5724W        W23928   4.761  10.467  13.970 -0.1659 -0.1361 -0.0474
 5725W        W23929  12.292  15.538  12.387  0.0451  0.0038 -0.1185
 5726W        W23930  11.065  11.424   0.873 -0.0464  0.1045 -0.2142
 5727W        W23931  10.916  15.928   2.305  0.1363  0.4140  0.0873
 5728W        W23932   7.770   5.155   3.727  0.1354  0.3824 -0.0561
 5729W        W23933   4.243   9.545   2.876 -0.0165 -0.1973  0.0244
 5730W        W23934   0.171   5.115  12.016  0.0604  0.1571 -0.0149
 5731W        W23935  17.267  14.928   1.873  0.0788 -0.1932  0.0528
 5732W        W23936   1.715   6.272   0.947  0.2963  0.0093  0.3315
 5733W        W23937  18.596   8.908  13.829  0.0895  0.0390  0.0057
 5734W        W23938  16.939   3.010  13.056 -0.2863  0.1239 -0.0306
 5735W        W23939  10.382  16.065  11.425  0.0750  0.0758 -0.0777
 5736W        W23940   8.208  15.806   0.419  0.1420 -0.1406  0.0873
 5737W        W23941  11.672   2.162  10.050  0.0004 -0.1107  0.0624
 5738W        W23942  12.654   0.643   5.149 -0.0339 -0.0224 -0.3515
 5739W        W23943  15.503   8.259  14.138  0.2911 -0.0706 -0.0775
 5740W        W23944   4.875   7.215  11.131  0.1124 -0.2665  0.4656
 5741W        W23945   7.881  15.724   2.750  0.0750  0.1270 -0.0236
 5742W        W23946  14.217  18.370  11.767 -0.0394  0.2045  0.2196
 5743W        W23947   8.248   4.522  14.627  0.0566  0.1050 -0.1204
 5744W        W23948   0.985   3.442   3.851  0.0333  0.0822 -0.2107
 5745W        W23949   2.353  16.590  13.372  0.2469  0.0509  0.0822
 5746W        W23950   1.165  17.166  15.114 -0.0000 -0.0786 -0.1860
 5747W        W23951  16.019   7.976   1.517  0.0041 -0.2182  0.2489
 5748W        W23952   4.208  17.682  12.340 -0.1409 -0.1205 -0.2279
 5749W        W23953   8.216   3.481   4.512 -0.0371  0.3463 -0.0547
 5750W        W23954   3.524   9.996  14.626  0.0978 -0.0477  0.0859
 5751W        W23955   3.041  15.904   2.115 -0.0127  0.1564  0.0324
 5752W        W23956  15.115   0.770   3.036 -0.1441 -0.1249 -0.2675
 5753W        W23957   5.621  17.889   1.046 -0.1748  0.0964 -0.2507
 5754W        W23958   3.984   5.382  12.155  0.4187 -0.1445 -0.0067
 5755W        W23959  13.372   6.922   1.304  0.0339  0.2970  0.0766
 5756W        W23960  16.680  17.863   1.876  0.1879 -0.4625  0.0794
 5757W        W23961  14.531  13.286   2.426 -0.2794  0.1307 -0.0030
 5758W        W23962  10.859   9.310   0.943 -0.4444  0.0367  0.0546
 5759W        W23963   8.243   1.908   4.698 -0.4080 -0.1190 -0.3042
 5760W        W23964  16.160  13.978   1.760  0.1520  0.0680 -0.2756
 5761W        W23965   5.148   8.508   2.313  0.2209  0.1725 -0.0010
 5762W        W23966  10.861   4.617   3.511 -0.0734  0.4571 -0.1034
 5763W        W23967  15.122  11.124  12.084 -0.4242  0.1001 -0.0247
 5764W        W23968   8.497   3.197   5.586 -0.1949  0.1392  0.2903
 5765W        W23969   7.567  16.894   1.538 -0.0600  0.0565 -0.0040
 5766W        W23970  15.710   9.590   4.165  0.1004 -0.0887  0.4180
 5767W        W23971   2.647   5.709  12.959  0.2287  0.0170  0.3167
 5768W        W23972   1.146  14.167   3.037  0.1411 -0.0473  0.1010
 5769W        W23973  17.952  18.065  14.410  0.0484  0.1354  0.1477
 5770W        W23974  15.176  12.760  14.794  0.1656  0.1895  0.2393
 5771W        W23975  17.560   3.099   1.088 -0.0627 -0.1718 -0.1642
 5772W        W23976  12.995   2.049   1.700  0.1205  0.0561  0.1505
 5773W        W23977  15.279  11.740   1.121  0.0922 -0.0939 -0.2130
 5774W        W23978  15.912  12.659   0.450 -0.0322 -0.2707  0.0309
 5775W        W23979  12.331   2.810  15.005 -0.0021 -0.2146  0.3640
 5776W        W23980   4.497  15.164  15.293  0.3511 -0.4604  0.0920
 5777W        W23981   3.027   1.075   0.897  0.4971  0.1689 -0.0409
 5778W        W23982   5.999   4.877   0.855  0.3780 -0.2335 -0.0691
 5779W        W23983  12.528  16.292  14.966  0.1976  0.0359  0.0371
 5780W        W23984  15.419   3.682   0.382 -0.1247 -0.3255  0.0055
 5781W        W23985   2.444   4.532   3.337 -0.3732 -0.0856  0.0704
 5782W        W23986  15.480   7.923   6.093 -0.0358  0.2427  0.2299
 5783W        W23987   0.679   1.647  11.261 -0.0748 -0.0042 -0.3395
 5784W        W23988   7.547   1.572  13.128  0.3450  0.1224  0.3458
 5785W        W23989  12.110   1.503   1.249 -0.2016 -0.0190  0.1261
 5786W        W23990  10.181   6.610  12.361 -0.1403  0.3783 -0.0306
 5787W        W23991   4.245   1.979  11.012  0.3654  0.3720  0.1033
 5788W        W23992   4.129   7.353   1.014  0.1172 -0.3207  0.0754
 5789W        W23993   5.233   2.698  12.329 -0.3403  0.0905  0.0252
 5790W        W23994   8.559  18.445   0.436 -0.0559 -0.3454  0.0318
 5791W        W23995  12.064  15.065   2.336 -0.2637  0.2047  0.1069
 5792W        W23996  12.189   1.679   4.315  0.0413 -0.0749  0.0605
 5793W        W23997   9.819  14.331   2.030  0.1389 -0.1033  0.3551
 5794W        W23998   4.056   3.712  13.124  0.0281 -0.4727 -0.1968
 5795W        W23999   5.853  10.837  15.460  0.1184  0.1504  0.2314
 5796W        W24000  12.574   9.335  13.055 -0.1405  0.0977  0.3439
 5797W        W24001  15.241  10.910  15.057  0.0674  0.0689  0.1645
 5798W        W24002  15.851   0.033  14.624  0.0124 -0.1619 -0.1332
 5799W        W24003   6.966   9.285  12.813  0.1296 -0.1217  0.1005
 5800W        W24004   7.785   6.188  13.569 -0.1126 -0.0140 -0.2875
 5801W        W24005  17.985   6.844   4.608 -0.1856  0.1715  0.0621
 5802W        W24006  16.361   3.098  12.827  0.1649 -0.1846  0.4747
 5803W        W24007  12.690   7.873  11.781 -0.3971  0.1686  0.1266
 5804W        W24008   7.563   2.397  11.831  0.2504 -0.0397  0.2440
 5805W        W24009  16.481  10.798   2.738 -0.0667 -0.0160 -0.0111
 5806W        W24010  17.878   9.282  15.130  0.2038  0.1077 -0.0389
 5807W        W24011   2.913  13.380   2.446 -0.2570 -0.1654  0.1677
 5808W        W24012   4.801   8.192   1.857  0.1049 -0.1418  0.0124
 5809W        W24013   2.593  18.084   4.336  0.0571  0.5308  0.1520
 5810W        W24014  15.549  13.118   0.382  0.3669 -0.1091  0.0187
 5811W        W24015  15.161   6.014  14.973  0.3453  0.3471 -0.2053
 5812W        W24016  17.854   0.953  11.082  0.1149 -0.3426  0.0433
 5813W        W24017   1.528   1.670  13.293 -0.0122 -0.1894 -0.4490
 5814W        W24018   4.571  16.225   1.738 -0.1360 -0.1878  0.0419
 5815W        W24019   1.907  12.097   0.370 -0.2333  0.0805  0.0370
 5816W        W24020  10.270   4.991  11.821 -0.1376  0.2241 -0.0106
 5817W        W24021   8.540  17.420   1.615 -0.1974  0.3919  0.2927
 5818W        W24022  17.773  13.332   0.470  0.0135  0.2718  0.5886
 5819W        W24023  11.747  16.756   1.677  0.2622  0.0035  0.3277
 5820W        W24024  12.267   6.813   4.309  0.3235 -0.4242 -0.1764
 5821W        W24025   9.357  17.972   0.269 -0.0695  0.2546 -0.1260
 5822W        W24026  17.798   1.020   0.042  0.1744 -0.1169 -0.0461
 5823W        W24027  13.890  17.613  13.907 -0.0653 -0.0543  0.0883
 5824W        W24028   7.468  10.929   2.563 -0.1665 -0.1475 -0.1452
 5825W        W24029  12.590  13.317  13.653 -0.0025 -0.1308  0.0283
 5826W        W24030   8.896  13.365  15.214 -0.0662 -0.2609 -0.3487
 5827W        W24031  18.119  10.701   1.451  0.0717 -0.1371  0.1060
 5828W        W24032   7.750   8.733  13.792  0.0306 -0.0056  0.0452
 5829W        W24033   7.408  11.480   4.841 -0.1001 -0.2767 -0.2250
 5830W        W24034   0.094  15.169   1.669 -0.0498 -0.1102  0.2566
 5831W        W24035   5.698   3.321   0.613  0.3101  0.3070 -0.0931
 5832W        W24036   4.278  15.380  11.330 -0.3119 -0.0142 -0.3714
 5833W        W24037   2.149   4.515   0.162  0.0053  0.0635  0.0934
 5834W        W24038   3.090  18.163   3.273 -0.3071  0.1114  0.2268
 5835W        W24039  16.138   1.855   3.426 -0.1030  0.0677 -0.0036
 5836W        W24040   5.940  15.235   0.270 -0.2755 -0.2529  0.0421
 5837W        W24041  13.641  15.540   2.415 -0.1566 -0.3111  0.1951
 5838W        W24042   3.904  10.508  11.562  0.2260 -0.1349  0.0425
 5839W        W24043   1.615   2.936  11.979  0.1888 -0.0678 -0.1501
 5840W        W24044  14.161  10.068   4.907  0.2054  0.3832  0.1041
 5841W        W24045  18.671   7.390  14.625 -0.0120 -0.2091 -0.0242
 5842W        W24046   1.309  11.660   2.028  0.0874  0.0248 -0.0714
 5843W        W24047  18.505  18.152   3.009  0.1540  0.1727  0.3998
 5844W        W24048  14.305   6.539  13.867  0.0942  0.1211  0.1305
 5845W        W24049   1.115   6.533  14.881 -0.1222  0.0701  0.0309
 5846W        W24050   6.047   6.517  10.848 -0.2434  0.0887  0.0078
 5847W        W24051   7.596  17.778  10.256  0.1831  0.2265 -0.0576
 5848W        W24052  14.045  10.607  14.810  0.0512 -0.0105 -0.2784
 5849W        W24053  13.405   1.300  12.870 -0.3812 -0.1622 -0.3287
 5850W        W24054   4.697   7.696  13.463  0.0319 -0.3258 -0.3369
 5851W        W24055   6.745   4.373   0.400 -0.2239  0.0702  0.2561
 5852W        W24056  10.270   2.022  11.313  0.1128  0.2834  0.1767
 5853W        W24057  18.581  15.444  12.469  0.1365 -0.4110  0.0865
 5854W        W24058   6.164   5.337   4.322 -0.0135 -0.1939  0.1516
 5855W        W24059  11.575  17.334   2.143  0.0199  0.1332  0.1381
 5856W        W24060   0.813  15.391  13.181 -0.4918 -0.0367 -0.0197
 5857W        W24061   8.820   1.591  12.244 -0.1322 -0.1740 -0.0734
 5858W        W24062   0.557   0.703   1.459  0.2228  0.0442  0.1638
 5859W        W24063  14.734  13.758   2.124 -0.3109  0.0300 -0.1218
 5860W        W24064  12.073  13.492  13.553 -0.0138  0.2331 -0.0229
 5861W        W24065  15.738  10.147  12.838  0.0765 -0.1668  0.1327
 5862W        W24066  17.997   3.475   1.077  0.1057 -0.0440 -0.1978
 5863W        W24067   7.608   2.731   1.966  0.2767 -0.1162 -0.0152
 5864W        W24068  16.437   6.702   3.616  0.5260  0.2001 -0.1777
 5865W        W24069   8.636   4.331  12.838 -0.3970  0.1978  0.1078
 5866W        W24070  12.718  18.402  12.711 -0.0087  0.1596  0.4224
 5867W        W24071  13.919   9.176  15.293  0.1314  0.0315 -0.2169
 5868W        W24072   2.778   8.776  14.706  0.1360  0.2960 -0.0578
 5869W        W24073   9.711   9.809   4.983  0.4728  0.2998 -0.3468
 5870W        W24074  10.412   3.847   3.277  0.1204  0.1283 -0.0746
 5871W        W24075  13.290  18.097  15.035 -0.3018  0.0115  0.0790
 5872W        W24076   0.156  10.369  13.669  0.1265  0.1775  0.2639
 5873W        W24077   1.981  18.061  11.814  0.2340 -0.1647  0.0195
 5874W        W24078   0.874   5.662  12.988 -0.1654  0.0298 -0.1150
 5875W        W24079   2.947   8.898  12.918  0.0657 -0.2409 -0.1728
 5876W        W24080  17.132   5.915  13.046 -0.1051 -0.2430 -0.3040
 5877W        W24081  15.672   0.507  14.085  0.0191  0.1136  0.1387
 5878W        W24082  14.515  17.078   3.230  0.0221  0.0513 -0.1028
 5879W        W24083   1.083  16.276  11.889 -0.0659  0.3511 -0.0246
 5880W        W24084  13.755   4.274   0.318  0.1770  0.0887 -0.1629
 5881W        W24085  18.340  11.601   3.681  0.0425  0.1215  0.3305
 5882W        W24086   6.250  12.865  14.721 -0.2319  0.2126  0.0181
 5883W        W24087   0.536   9.553  12.375 -0.0372 -0.0939  0.4371
 5884W        W24088  12.812  14.469   0.368 -0.1750 -0.0491 -0.0258
 5885W        W24089  10.067  17.556  13.758 -0.0149  0.2576 -0.1488
 5886W        W24090   9.421   4.763  12.986 -0.0437  0.1663  0.1603
 5887W        W24091   1.397  13.131   4.060  0.1435 -0.1813  0.0035
 5888W        W24092  14.043  12.361   0.492  0.2901  0.1798  0.1866
 5889W        W24093   8.390   1.654  10.027  0.1272 -0.1032 -0.1235
 5890W        W24094   0.770  14.402  12.006 -0.0139 -0.0330  0.0545
 5891W        W24095   2.929   4.148   2.869  0.1841 -0.0231  0.0739
 5892W        W24096   9.003  13.107  14.080  0.0959  0.0810 -0.0122
 5893W        W24097  16.624   3.040  15.153 -0.0223  0.2147  0.4362
 5894W        W24098   6.328   4.172   0.467 -0.1404  0.1712  0.5379
 5895W        W24099  10.348   1.571   2.843 -0.0100 -0.0352 -0.1520
 5896W        W24100   5.805   0.556   1.194  0.0921 -0.1755  0.6152
 5897W        W24101  16.773   6.274   2.167  0.2279 -0.0178  0.0813
 5898W        W24102  17.158  18.034  14.964  0.2320  0.3200 -0.3411
 5899W        W24103  18.524  13.489   3.243 -0.0811  0.1494 -0.2762
 5900W        W24104  13.141   7.121   4.183  0.0016 -0.3367 -0.1065
 5901W        W24105  13.153  12.395   4.591 -0.0564  0.2133  0.1053
 5902W        W24106  11.158   5.757  15.135  0.1600  0.1614  0.0451
 5903W        W24107  12.086   8.235   0.451  0.1967  0.1918  0.0990
 5904W        W24108   9.564  13.138  13.829 -0.2165 -0.0876 -0.1596
 5905W        W24109   6.587   0.102  14.863  0.0469  0.0181 -0.3051
 5906W        W24110  12.704   6.431   2.502  0.1439 -0.1390 -0.0411
 5907W        W24111   5.474   6.632  11.649  0.1614 -0.1342 -0.0020
 5908W        W24112   6.243   8.571  13.208 -0.1586  0.2513  0.0016
 5909W        W24113   4.108  18.167  10.725 -0.4868  0.0043 -0.0057
 5910W        W24114   7.771   6.475   0.497 -0.1989  0.0464  0.2703
 5911W        W24115  11.006   4.485  12.865  0.1388 -0.0968  0.0188
 5912W        W24116   8.294   6.705  12.942  0.1975 -0.2730  0.0039
 5913W        W24117   1.689   8.908  13.187 -0.1833  0.0981  0.0923
 5914W        W24118   1.354   4.134   4.383  0.0622 -0.0676  0.0522
 5915W        W24119   6.711  11.026  12.832 -0.3765 -0.0223 -0.2313
 5916W        W24120   1.289  16.328  14.668 -0.1123  0.1222 -0.3895
 5917W        W24121  10.984   9.518   4.671 -0.0222  0.2880 -0.0343
 5918W        W24122   8.767   3.812  10.818 -0.1110  0.0542  0.0885
 5919W        W24123   8.660  17.927   1.480 -0.3102  0.0512 -0.2150
 5920W        W24124   5.420  10.997  12.735  0.2821 -0.0205 -0.0529
 5921W        W24125  15.320   6.449   1.756  0.0946 -0.0684  0.2395
 5922W        W24126   0.978  12.039   0.239  0.0872 -0.1472  0.3290
 5923W        W24127  16.351   4.446  13.578 -0.0326  0.3589 -0.1750
 5924W        W24128   3.033   4.646   1.984  0.3465  0.0287 -0.1229
 5925W        W24129  16.087  10.583   1.229 -0.1729 -0.1278  0.0699
 5926W        W24130   8.464   7.687  14.939 -0.1757  0.1824 -0.3723
 5927W        W24131   5.515   0.297   1.572  0.2580  0.1782 -0.2498
 5928W        W24132   0.892   2.387  12.329 -0.1797  0.1634 -0.0072
 5929W        W24133   5.936  16.708  12.060  0.0837 -0.1407  0.0286
 5930W        W24134  16.183   5.370  13.577  0.0045  0.0953  0.3647
 5931W        W24135   4.552   0.806   2.119  0.0945 -0.0640  0.1463
 5932W        W24136   8.142   8.886  15.237 -0.4324  0.1226  0.3072
 5933W        W24137   0.958  15.568   3.040 -0.6644 -0.1395 -0.2233
 5934W        W24138  15.451   8.228   4.289 -0.2724  0.2086 -0.2587
 5935W        W24139   2.663  13.935   1.523  0.4423 -0.0865 -0.0093
 5936W        W24140  17.166   5.488  12.739  0.1699 -0.4395  0.0193
 5937W        W24141   6.966  14.608   1.168 -0.2585 -0.0138 -0.2633
 5938W        W24142   9.975   4.517   2.763  0.1365 -0.4118 -0.1219
 5939W        W24143  11.841   3.467  11.703 -0.2424 -0.4038 -0.1824
 5940W        W24144  11.830  10.169   3.916  0.2824 -0.0387  0.1163
 5941W        W24145  11.618  16.906  10.901 -0.1836 -0.1497  0.0308
 5942W        W24146  11.060  12.885   3.125  0.2459 -0.3894 -0.1924
 5943W        W24147  12.994   1.093  14.336 -0.0096  0.0969 -0.0139
 5944W        W24148   8.269   2.226   5.060 -0.0731  0.1139 -0.3075
 5945W        W24149  13.973   7.711  12.189  0.0967 -0.1880  0.4663
 5946W        W24150  18.571  11.544  11.216  0.3408  0.0498 -0.2319
 5947W        W24151  15.411  17.814   0.010 -0.1817 -0.1886 -0.1684
 5948W        W24152   0.247  17.238  12.796  0.2847  0.0302 -0.3852
 5949W        W24153  17.095   1.590  12.718 -0.0718  0.1209  0.1856
 5950W        W24154   7.850   8.057   0.334 -0.0149 -0.1191 -0.1330
 5951W        W24155   3.071   1.858   0.923  0.0837  0.3559  0.0774
 5952W        W24156  16.214  15.080  14.225 -0.0712  0.1513 -0.0361
 5953W        W24157  18.152   8.697  12.822 -0.2511 -0.1137 -0.2970
 5954W        W24158   9.870   2.694   3.257 -0.1591 -0.2086  0.0283
 5955W        W24159  12.861   5.727   0.746  0.0285 -0.0340  0.1418
 5956W        W24160   4.825   0.800  11.628 -0.0735  0.0867  0.1953
 5957W        W24161   8.688   6.411   3.904  0.1334  0.3288 -0.0980
 5958W        W24162  10.290   5.681  14.458 -0.1229 -0.0558 -0.1606
 5959W        W24163   3.005   8.152   1.532 -0.2705  0.0588 -0.1367
 5960W        W24164  18.622   1.691  14.757  0.0927  0.0872 -0.1116
 5961W        W24165   4.542  13.498   3.568  0.2277  0.0953  0.1564
 5962W        W24166  13.832  13.690   2.708  0.3821  0.0659 -0.0891
 5963W        W24167  17.759   0.060   4.126  0.3170  0.0037  0.0284
 5964W        W24168   5.878   4.235  11.886 -0.1097 -0.2582 -0.1404
 5965W        W24169   8.717  17.820  13.258 -0.2941 -0.3563  0.3451
 5966W        W24170  16.081   6.644   2.739 -0.0612  0.2715  0.2169
 5967W        W24171  12.760  13.467   0.710  0.1511 -0.0072 -0.0284
 5968W        W24172  14.302  15.984  12.258 -0.0072  0.0902 -0.0653
 5969W        W24173   1.242   9.866  14.715  0.2550 -0.2179 -0.1857
 5970W        W24174   6.116  12.507   4.588 -0.2033 -0.0917  0.2149
 5971W        W24175   3.215  18.156   4.271  0.1776 -0.2276 -0.1253
 5972W        W24176   1.932   7.815  11.583 -0.0347  0.1455  0.0678
 5973W        W24177   7.151   3.782  13.624 -0.0535  0.1564  0.0143
 5974W        W24178  15.148  16.216   1.082 -0.0618 -0.3668  0.0752
 5975W        W24179  11.234   1.509   2.909  0.4187  0.0615  0.1716
 5976W        W24180  17.821  18.016   0.967 -0.2120 -0.0596  0.3577
 5977W        W24181   4.785  12.908  13.197 -0.0241 -0.1578  0.2189
 5978W        W24182   7.642   8.695   3.525 -0.4737 -0.1115 -0.1551
 5979W        W24183   6.309  10.959   4.449  0.0837  0.0381  0.2370
 5980W        W24184   4.232   8.368   2.793 -0.1727 -0.3709 -0.2002
 5981W        W24185   7.041   1.956  12.855  0.2010  0.1456 -0.0176
 5982W        W24186   5.243   6.630  13.207  0.1764 -0.1957  0.2919
 5983W        W24187   6.346   6.313  15.461 -0.1999  0.2282 -0.0830
 5984W        W24188  17.945   7.830  11.300  0.0019  0.0584 -0.0335
 5985W        W24189   9.516   0.868   4.700  0.0990  0.2489 -0.2984
 5986W        W24190  14.251   4.899   5.609 -0.3971 -0.0124  0.0891
 5987W        W24191   6.225   9.806  14.200  0.1006  0.0864 -0.1859
 5988W        W24192  14.545  14.262   1.225 -0.1546  0.2019 -0.1985
 5989W        W24193   5.712  13.320   0.451  0.1766  0.0545 -0.0514
 5990W        W24194   3.307   5.165   4.278 -0.3104 -0.0153 -0.1469
 5991W        W24195  11.627  10.626  11.797 -0.2552  0.0472  0.2247
 5992W        W24196  16.301   0.268   3.452  0.2751 -0.1548 -0.1823
 5993W        W24197  13.541  18.104   1.178 -0.2265 -0.1471  0.1416
 5994W        W24198  13.112   1.895  11.174 -0.3886 -0.0552 -0.0183
 5995W        W24199   1.566   0.711   0.522 -0.3353  0.0966  0.1155
 5996W        W24200  10.109   2.677  12.931  0.0885 -0.3334  0.0537
 5997W        W24201  14.722  18.287  10.612 -0.2562 -0.0875 -0.1533
 5998W        W24202   9.983  18.059   1.862  0.1421  0.1040 -0.0796
 5999W        W24203   1.367  14.626  13.285 -0.1230  0.1304  0.0243
 6000W        W24204  16.312  14.368   0.059  0.0412  0.2728  0.0162
 6001W        W24205  13.267  16.240   4.584  0.1693 -0.1391  0.0603
 6002W        W24206   2.854   7.626   3.110 -0.1046  0.0117  0.2126
 6003W        W24207  15.677   4.096   4.279 -0.0022  0.1900 -0.3171
 6004W        W24208  17.429   5.907   5.209 -0.0383  0.2709  0.1737
 6005W        W24209  15.935   0.178   3.832  0.0754  0.0442 -0.0379
 6006W        W24210   9.044  13.464   0.654 -0.1408 -0.0316 -0.0149
 6007W        W24211  18.535   9.823   4.179 -0.3752  0.4887 -0.0176
 6008W        W24212   5.105   8.764   4.105  0.0700  0.4793 -0.0782
 6009W        W24213   5.397  11.149   1.231  0.0684  0.2975  0.0695
 6010W        W24214   6.893  14.912  14.877  0.1351 -0.0588 -0.2877
 6011W        W24215  13.400  14.842   2.858  0.2656 -0.1288  0.0993
 6012W        W24216   3.321   0.392   1.723 -0.0134 -0.1353  0.1326
 6013W        W24217   1.731  11.505   1.790  0.1329 -0.1438  0.0805
 6014W        W24218   0.997   5.019  12.077 -0.1629 -0.3115  0.0801
 6015W        W24219  12.601   1.039  14.631 -0.2831 -0.1580  0.1235
 6016W        W24220  16.287  15.620   0.724  0.1229 -0.1973 -0.1213
 6017W        W24221   0.374   5.076  11.528 -0.1675  0.0560  0.1814
 6018W        W24222   1.833   9.746   0.359 -0.1934 -0.1273 -0.1624
 6019W        W24223  18.136  11.796   2.374 -0.0694  0.1255 -0.1886
 6020W        W24224   7.042   3.484   3.739  0.0904  0.0372 -0.0195
 6021W        W24225   4.016  12.555   3.494  0.2827  0.0286  0.0795
 6022W        W24226   4.644   6.498  13.969  0.3828 -0.0371 -0.1134
 6023W        W24227  12.168  14.871  11.069  0.0983 -0.0490 -0.5621
 6024W        W24228  15.742   2.500   3.557  0.1678 -0.3443  0.0368
 6025W        W24229  16.617   0.142  13.156  0.2763 -0.2752  0.2903
 6026W        W24230  11.611   7.049   2.497  0.0041  0.0314  0.0522
 6027W        W24231   2.636   4.293   1.936  0.2609 -0.5155  0.0192
 6028W        W24232  15.639   7.107  13.115 -0.1182 -0.2571 -0.0586
 6029W        W24233   8.711   3.112  13.656  0.1009  0.1613  0.0947
 6030W        W24234  17.033   1.265   2.454  0.1323  0.2876 -0.1121
 6031W        W24235   7.216   1.535  13.781 -0.1653  0.0176  0.1425
 6032W        W24236   2.361   6.247   3.291 -0.1913  0.1692  0.0684
 6033W        W24237  16.070  17.571  12.278 -0.0580  0.0037 -0.2608
 6034W        W24238   0.179   0.784  11.481 -0.0553 -0.0268  0.0982
 6035W        W24239   3.788  12.678   2.944 -0.0694  0.1266  0.0873
 6036W        W24240   3.287  16.258  14.016 -0.2809 -0.1123 -0.2680
 6037W        W24241   6.614  13.651   1.967 -0.2448 -0.0142 -0.0110
 6038W        W24242  17.406   1.752  13.517 -0.3923 -0.2381  0.1101
 6039W        W24243  13.779   3.690  12.999 -0.0561 -0.0348 -0.0349
 6040W        W24244   3.007  11.864   1.723 -0.0520  0.0767 -0.5716
 6041W        W24245   7.641   2.424  13.508  0.0873 -0.1920  0.0333
 6042W        W24246  15.150   4.092   4.294  0.2334 -0.3745  0.0574
 6043W        W24247  17.473   1.881   1.929  0.0497 -0.2007  0.2591
 6044W        W24248   8.047   8.872   1.293  0.0043  0.1100  0.1308
 6045W        W24249  18.567   0.199   2.472 -0.3004  0.0073 -0.0660
 6046W        W24250   3.857   2.379  12.393 -0.0062  0.2822  0.1341
 6047W        W24251   9.999  11.860  10.825 -0.0477  0.0182 -0.2134
 6048W        W24252  17.297  17.562  11.295 -0.0439  0.1855 -0.0558
 6049W        W24253  13.338  16.863  11.590  0.1642  0.0096 -0.1412
 6050W        W24254  15.698   8.770   4.974 -0.1771 -0.2458  0.0012
 6051W        W24255  16.022  15.540   4.615 -0.0460 -0.0617 -0.2307
 6052W        W24256   7.326   1.263   4.254  0.0304  0.0443  0.5286
 6053W        W24257  10.889   9.259  14.784  0.0249 -0.1753  0.1103
 6054W        W24258   7.468  10.824   3.079 -0.2262  0.0319  0.4139
 6055W        W24259  12.265  11.280   2.687  0.1540  0.2557  0.1999
 6056W        W24260  14.499   9.450  12.476 -0.0994  0.0147  0.1216
 6057W        W24261  17.705  11.174   4.126  0.1063 -0.1467 -0.1746
 6058W        W24262   7.617   6.625   2.750 -0.2985  0.5009  0.1209
 6059W        W24263   1.354   6.031  12.617  0.1887  0.0390  0.1315
 6060W        W24264  17.544  10.164  15.342  0.1756  0.0631  0.2372
 6061W        W24265   0.703   9.277   1.651 -0.0340 -0.3295  0.2802
 6062W        W24266   1.933  11.720   0.859  0.1707  0.0044  0.0793
 6063W        W24267  16.256   5.591   4.430 -0.0790  0.3176  0.2063
 6064W        W24268  12.899  14.204  13.766  0.0004  0.0947 -0.2289
 6065W        W24269   8.057   2.889  14.204  0.2327 -0.2135 -0.0368
 6066W        W24270   9.626   0.994  14.223  0.1170  0.0593  0.1172
 6067W        W24271  17.189  11.222   3.060 -0.2287 -0.2046 -0.1112
 6068W        W24272   4.689   6.204   5.167  0.1996 -0.0755 -0.0676
 6069W        W24273   3.060   4.821   3.696  0.3407 -0.3296  0.0535
 6070W        W24274   2.848  17.471  13.893  0.1016  0.1664  0.1017
 6071W        W24275  15.098   4.803   4.298  0.0805 -0.0981 -0.1474
 6072W        W24276   1.116   6.651   3.387 -0.1154 -0.2747 -0.0070
 6073W        W24277  12.364   0.994  15.130 -0.0153 -0.1900 -0.0007
 6074W        W24278   9.270  10.743   3.640  0.0422 -0.0682 -0.0381
 6075W        W24279   1.217  17.648  14.279  0.0325  0.0067 -0.1995
 6076W        W24280   8.321  15.282   3.510 -0.3739  0.1646  0.1015
 6077W        W24281  16.407  13.595   4.563 -0.1203  0.0974 -0.0596
 6078W        W24282   6.812  13.523  13.786  0.0629  0.1354 -0.1621
 6079W        W24283   8.677  15.626   2.131  0.0685 -0.4232 -0.0927
 6080W        W24284  18.452   7.757   3.034 -0.2053 -0.2002  0.3138
 6081W        W24285   2.667   3.574  11.472 -0.1217 -0.2308 -0.2482
 6082W        W24286   4.173   5.773   1.894 -0.1095 -0.3560 -0.1211
 6083W        W24287  12.078  12.435  10.247  0.4282  0.3038 -0.1284
 6084W        W24288  18.657   9.468  15.139  0.0827  0.4462 -0.3130
 6085W        W24289  15.711   7.905  13.581  0.1950 -0.2383  0.1353
 6086W        W24290  12.055   3.397  14.898 -0.2837  0.0509  0.2338
 6087W        W24291   3.108  18.337  12.376  0.3469 -0.2408  0.0402
 6088W        W24292   2.903   2.067   4.387  0.4695  0.0070 -0.3058
 6089W        W24293   5.518  10.956   2.972 -0.2133  0.2180 -0.1221
 6090W        W24294  12.103   9.208  13.145  0.1251  0.1949  0.1957
 6091W        W24295   0.483   6.204  13.832  0.1710 -0.0229 -0.0610
 6092W        W24296   9.908  18.385   2.697 -0.0605 -0.3411  0.2867
 6093W        W24297  14.455   8.167  14.005 -0.0316 -0.2898 -0.1375
 6094W        W24298  13.591   5.908  12.419 -0.1743 -0.1019  0.2034
 6095W        W24299   2.176  13.681   4.070  0.1006  0.0714  0.3290
 6096W        W24300   7.434   9.381   2.987 -0.1166 -0.1335 -0.0121
 6097W        W24301  17.414  15.776   4.528 -0.1193 -0.3051 -0.0253
 6098W        W24302  14.644   5.545   3.481  0.0444  0.2006 -0.0029
 6099W        W24303  17.612  14.570  14.874  0.3604 -0.1612  0.0199
 6100W        W24304  18.478   4.953   4.341 -0.0427  0.0183 -0.0116
 6101W        W24305  15.990   9.006  12.854 -0.0564  0.0180  0.0910
 6102W        W24306  17.119   1.441  13.839 -0.0827  0.3296 -0.2592
 6103W        W24307  18.480  12.048  12.506 -0.0583 -0.0839 -0.1333
 6104W        W24308  16.875  17.036   3.547  0.1040 -0.0146  0.2792
 6105W        W24309   1.293   3.107   3.266  0.2412 -0.0561 -0.1132
 6106W        W24310   7.075   5.467   1.357 -0.1442  0.0828 -0.1889
 6107W        W24311   0.718  18.117   4.533  0.1019  0.1031  0.0728
 6108W        W24312   4.020  17.384   1.104 -0.0678 -0.0344 -0.2701
 6109W        W24313  13.353   6.529   1.778  0.0869  0.2326  0.4218
 6110W        W24314   3.286  11.016   2.582 -0.0045  0.0098  0.1610
 6111W        W24315  13.076  11.543  13.855  0.0828  0.2541 -0.0807
 6112W        W24316  16.028   6.009   5.278 -0.3172  0.1324  0.3489
 6113W        W24317   6.659  15.520   2.074 -0.0471  0.0023  0.2550
 6114W        W24318  11.546  18.178  12.203  0.3258 -0.1007  0.0744
 6115W        W24319   5.260   1.391   4.998 -0.0467  0.0750  0.4271
 6116W        W24320  12.266  13.639  10.894  0.2131 -0.0957 -0.0678
 6117W        W24321  17.304  10.053   3.282  0.1198 -0.2873 -0.6046
 6118W        W24322  10.962  12.043  12.867  0.0790 -0.0376 -0.0069
 6119W        W24323   4.207   5.449   3.388 -0.0458  0.1438 -0.0935
 6120W        W24324   5.175  12.805  11.445  0.2072 -0.3548 -0.1848
 6121W        W24325   2.545   6.125   0.717  0.2598 -0.0163  0.0887
 6122W        W24326   4.983   3.077  15.463 -0.1836  0.1733 -0.0254
 6123W        W24327  12.827   0.050  12.347  0.3403 -0.0759  0.0409
 6124W        W24328   0.838  11.584   1.651 -0.0534 -0.1183 -0.2106
 6125W        W24329   7.631  11.892   4.619  0.4311  0.0234  0.2425
 6126W        W24330   1.700   1.781  12.618 -0.1090  0.0722 -0.0307
 6127W        W24331   3.779  17.181   3.541 -0.1648 -0.2479  0.0347
 6128W        W24332  12.267   0.020   4.421  0.0182  0.2471 -0.1878
 6129W        W24333   7.386   2.212  13.911 -0.3875  0.2996  0.1246
 6130W        W24334   8.770   2.389  11.015 -0.2927  0.0279  0.2209
 6131W        W24335   0.451  13.253   1.628 -0.2514  0.0041  0.2022
 6132W        W24336   1.118  15.638  11.179 -0.1740 -0.1232  0.0014
 6133W        W24337  17.016   0.069   0.163 -0.3803  0.0951  0.0313
 6134W        W24338   0.829   5.068  13.735 -0.1873 -0.1627 -0.0256
 6135W        W24339  15.089  10.793  11.271  0.1188 -0.0187  0.2760
 6136W        W24340   7.045  18.220   1.959  0.1169 -0.1183  0.1149
 6137W        W24341  12.799   2.525   2.969 -0.0185 -0.2393 -0.0103
 6138W        W24342  14.928  15.343   1.132 -0.3790 -0.0750 -0.1449
 6139W        W24343  15.877  11.232   0.681  0.0906  0.3816 -0.5390
 6140W        W24344   4.204  16.360  11.558 -0.1890  0.1873  0.0540
 6141W        W24345  11.822  18.136   0.447 -0.0691 -0.3484 -0.1300
 6142W        W24346   7.574   3.510   4.362 -0.0779 -0.0745 -0.0623
 6143W        W24347  18.021  13.185   3.133 -0.2233  0.0799 -0.0108
 6144W        W24348   0.727   4.601   0.557 -0.0051  0.0935  0.0418
 6145W        W24349  17.938   6.526  14.706  0.0206 -0.0552  0.0926
 6146W        W24350  13.953  11.159   1.725 -0.1560 -0.0320 -0.0659
 6147W        W24351  11.077  14.114  15.088 -0.0772  0.1727  0.0660
 6148W        W24352   3.953   2.676   2.552 -0.0686  0.2734  0.0780
 6149W        W24353   1.654  14.741   4.456 -0.0508  0.0070  0.3278
 6150W        W24354  15.953   0.763   2.794 -0.2577 -0.0550  0.1240
 6151W        W24355  10.282  14.270   1.699  0.0165 -0.0307 -0.1237
 6152W        W24356  14.446  10.321  13.890  0.0017  0.0357  0.0729
 6153W        W24357  18.460   9.568   0.474 -0.1923 -0.2463 -0.3060
 6154W        W24358   7.463   8.699  14.849 -0.0459  0.0147  0.0900
 6155W        W24359   1.944  15.625   0.469  0.0302 -0.1474 -0.0577
 6156W        W24360   1.748   5.968  15.014  0.0248 -0.2204 -0.0329
 6157W        W24361   9.857   6.809  11.236  0.1085 -0.0236  0.0675
 6158W        W24362   6.755   1.214  10.205  0.3278 -0.0066  0.0914
 6159W        W24363   8.776  17.091  12.663  0.1857 -0.1558 -0.0727
 6160W        W24364   4.472   1.626   1.610 -0.1883  0.0285  0.1193
 6161W        W24365   2.154  11.829   2.857 -0.0556  0.1385  0.1267
 6162W        W24366   4.469   3.315   2.524  0.3214  0.2244 -0.2096
 6163W        W24367  15.598  15.207   2.099  0.0890 -0.1420  0.0231
 6164W        W24368  15.382   4.728  13.937 -0.0717  0.2307 -0.3412
 6165W        W24369   1.778   4.183  14.810  0.0891 -0.2072  0.1301
 6166W        W24370   3.157  10.181   1.998  0.0617 -0.0432  0.2250
 6167W        W24371   1.390   8.638  12.839 -0.0756 -0.2502 -0.1602
 6168W        W24372   4.134   9.031  11.175  0.1269  0.2439 -0.1370
 6169W        W24373  15.947  16.142   2.230 -0.3047 -0.1227 -0.3466
 6170W        W24374   2.482   4.923   4.808 -0.1142  0.2141  0.0555
 6171W        W24375   8.462   9.819   0.275  0.0762 -0.2633 -0.1047
 6172W        W24376  14.840   3.999   4.725 -0.0396 -0.1807 -0.0377
 6173W        W24377  17.378   7.795   2.596  0.2363 -0.3866 -0.0614
 6174W        W24378   0.145  10.798   1.716  0.4062  0.0856 -0.0184
 6175W        W24379   0.473  11.351   4.093 -0.1264  0.0487  0.1214
 6176W        W24380   9.729   7.403  12.103  0.1158 -0.0864 -0.2057
 6177W        W24381   6.259   5.933   0.314  0.0290 -0.0457 -0.1358
 6178W        W24382   0.842  11.889  12.767  0.4032  0.1509 -0.0499
 6179W        W24383   5.884   7.046   4.398  0.3026 -0.0791 -0.2883
 6180W        W24384  15.095  12.057   1.521 -0.1670  0.1067 -0.5044
 6181W        W24385   2.776  10.653   9.865 -0.3164 -0.1397  0.1999
 6182W        W24386  15.928   2.820   1.695 -0.1997  0.2573  0.0654
 6183W        W24387   9.074   8.668  12.085 -0.0335  0.3954 -0.0701
 6184W        W24388  11.435  12.073   4.227 -0.2414 -0.2636 -0.0335
 6185W        W24389   6.941   0.879   3.271 -0.2743 -0.0703  0.2509
 6186W        W24390  16.448  15.041  11.139  0.1786 -0.0212 -0.0175
 6187W        W24391  17.959  11.542   1.978  0.1881  0.0154  0.1561
 6188W        W24392  13.411  15.596   3.993 -0.2595 -0.0977 -0.0236
 6189W        W24393   8.371  17.880   0.430 -0.0536  0.1446 -0.0646
 6190W        W24394  11.464  16.750   3.495  0.0591  0.1613  0.0654
 6191W        W24395  12.146   7.083   2.575  0.5140 -0.2761  0.1279
 6192W        W24396   2.681  14.942   4.996  0.1378 -0.1862  0.0031
 6193W        W24397  11.259  18.045  14.246 -0.3253  0.0549 -0.0229
 6194W        W24398  16.677  14.022   2.624 -0.2395  0.1475 -0.0860
 6195W        W24399  14.585   8.032  15.276 -0.0997 -0.1114  0.0973
 6196W        W24400   1.972  11.545   2.505  0.1386  0.0289 -0.2656
 6197W        W24401   7.989  13.745   3.810  0.0082  0.2743 -0.0699
 6198W        W24402   6.717  12.262  11.984 -0.1993  0.3870 -0.1355
 6199W        W24403  16.214  18.177  13.830  0.0765 -0.0177  0.1784
 6200W        W24404  12.721  16.569   3.920 -0.1749 -0.1921  0.1692
 6201W        W24405   5.056  14.346   3.794  0.2016  0.0019  0.0514
 6202W        W24406  15.865  16.340  13.412  0.3676  0.2394  0.2251
 6203W        W24407  15.934   0.088  13.569 -0.1443 -0.1309 -0.0308
 6204W        W24408  12.935   3.616   4.233  0.1007 -0.2422 -0.1239
 6205W        W24409  16.114   8.092   0.221  0.0606 -0.0849  0.0550
 6206W        W24410   0.156  16.713  12.789  0.1590  0.0268  0.0823
 6207W        W24411   5.461   7.454  11.861 -0.1488 -0.2243 -0.2023
 6208W        W24412   0.730  12.588  12.070  0.0288  0.0435  0.1223
 6209W        W24413  17.179  17.751   1.622  0.4091 -0.5315  0.3044
 6210W        W24414   6.064   0.616  11.925  0.1040 -0.1090 -0.3016
 6211W        W24415  15.059   8.529  12.232 -0.3498 -0.1024 -0.2198
 6212W        W24416  14.651   6.005  13.223  0.0899 -0.0398  0.2122
 6213W        W24417  18.221   1.752  15.150  0.2645 -0.0001 -0.0749
 6214W        W24418   6.780  10.858   2.167 -0.1196 -0.1901  0.2945
 6215W        W24419  14.600   4.859  11.752  0.2019 -0.1149  0.0101
 6216W        W24420  16.205  13.602   4.116  0.0778  0.0621 -0.1668
 6217W        W24421  16.579   7.271   2.454  0.0323  0.1174 -0.2242
 6218W        W24422   8.745   2.663  13.469 -0.2364  0.2360 -0.0943
 6219W        W24423  13.403  17.298  13.698 -0.0003 -0.1752 -0.1608
 6220W        W24424  18.670   2.018  11.905  0.2370 -0.1268  0.1114
 6221W        W24425  14.489   0.605  14.556 -0.0856  0.0409 -0.0672
 6222W        W24426  14.774  10.122   3.548  0.4339  0.0513 -0.3284
 6223W        W24427   8.786   3.357   4.611  0.1168 -0.0637  0.5362
 6224W        W24428   2.822  18.206  14.645  0.0425  0.0747  0.3232
 6225W        W24429  13.938  18.248   0.353  0.1914 -0.3998 -0.2832
 6226W        W24430   4.282  16.707  11.853  0.0494 -0.2205 -0.1637
 6227W        W24431   9.975   2.655   1.245 -0.0165  0.1064  0.0430
 6228W        W24432  15.207  11.538   1.630 -0.0373 -0.2703 -0.1391
 6229W        W24433   5.625   8.134  12.015 -0.1268 -0.1113  0.0410
 6230W        W24434   6.503  15.299   3.952 -0.1869  0.3085 -0.3353
 6231W        W24435  17.538  15.197   2.639 -0.2749 -0.0956  0.5157
 6232W        W24436   9.782   7.042   4.847 -0.1088 -0.0594  0.0641
 6233W        W24437  10.106  13.606   2.553 -0.1167 -0.0676  0.4474
 6234W        W24438  17.474  13.272  15.035  0.1715  0.0533 -0.3533
 6235W        W24439   4.874  11.854   4.651  0.2647 -0.2027  0.3335
 6236W        W24440   2.670  12.155  12.925 -0.0076 -0.1061  0.1863
 6237W        W24441  12.450   3.478   4.156  0.0777 -0.1513 -0.0918
 6238W        W24442   2.611  17.210  11.750  0.1245 -0.0061  0.2437
 6239W        W24443   1.141   1.639   3.038 -0.1203 -0.0530  0.2121
 6240W        W24444   0.457   2.301  15.321 -0.2167 -0.1125  0.2687
 6241W        W24445  10.286   9.758   1.304  0.0715  0.0915 -0.2260
 6242W        W24446  18.193  11.937   4.531 -0.1331 -0.0747 -0.0696
 6243W        W24447   6.727   8.496   1.070 -0.0434 -0.0296 -0.1220
 6244W        W24448   4.522  15.739   0.906 -0.1207  0.0469  0.2123
 6245W        W24449   6.948  13.731  10.515 -0.1169 -0.1507  0.1463
 6246W        W24450  18.546  12.040   1.163  0.0057  0.0202 -0.1177
 6247W        W24451  15.429  15.121   0.609 -0.1010  0.1757  0.0916
 6248W        W24452   9.392   6.653  13.359  0.0157 -0.0207  0.0246
 6249W        W24453  18.443   1.269  13.243  0.2252  0.0956 -0.0618
 6250W        W24454  11.824   8.827  13.659 -0.1130  0.1241 -0.0156
 6251W        W24455   7.433   8.939  10.478 -0.2188  0.1011  0.4784
 6252W        W24456  12.564  12.093  14.410  0.1625  0.2590  0.2243
 6253W        W24457  18.488   0.899  11.713  0.3967  0.0582 -0.2311
 6254W        W24458   7.992   4.707   0.953  0.1562 -0.0503  0.4004
 6255W        W24459  17.399  15.715  11.098 -0.1801 -0.1430 -0.3325
 6256W        W24460   9.970  10.367  11.525  0.3227 -0.0072  0.2675
 6257W        W24461  15.014  17.939  15.076  0.1411  0.3247  0.0427
 6258W        W24462   1.925  15.014  12.784 -0.1490  0.0704 -0.2334
 6259W        W24463   8.072  11.754   0.914 -0.0185 -0.0161 -0.1642
 6260W        W24464   8.277  15.759  15.152 -0.0334  0.1200  0.3768
 6261W        W24465   6.991  12.455  11.138  0.1494  0.0097 -0.1826
 6262W        W24466  16.412   8.790  14.905  0.1556  0.0531  0.1859
 6263W        W24467   9.744  10.069  11.850  0.1262 -0.3332 -0.2800
 6264W        W24468  14.264  14.253   3.928  0.2345 -0.3340  0.0380
 6265W        W24469  16.643  10.663  12.288  0.1625 -0.0499 -0.0265
 6266W        W24470   4.644   2.093   2.508 -0.0517 -0.2063 -0.0684
 6267W        W24471  14.260   2.646   2.719 -0.1190  0.0988  0.2192
 6268W        W24472   0.907   4.700   1.534 -0.0365 -0.2021  0.0518
 6269W        W24473   5.190  16.832   1.148 -0.0118 -0.0182 -0.1139
 6270W        W24474   6.572  14.851  10.584  0.0293  0.0551 -0.2259
 6271W        W24475   5.964  18.134  11.289 -0.3688 -0.0734 -0.1793
 6272W        W24476  18.024  14.925   0.202  0.0615  0.0443 -0.0401
 6273W        W24477  17.921   5.741   3.451  0.1624  0.0088  0.0024
 6274W        W24478   1.454   7.213   3.800 -0.1063 -0.1048  0.1640
 6275W        W24479   0.288  17.671   4.097 -0.0616  0.0898 -0.0946
 6276W        W24480   2.613  12.764   4.223  0.1383 -0.3972 -0.0453
 6277W        W24481   0.477  10.789   1.300  0.1355  0.2209  0.0365
 6278W        W24482   0.652  15.524  11.401  0.1431  0.2404  0.1627
 6279W        W24483   7.731  16.332  14.532  0.0662  0.1792  0.1019
 6280W        W24484  12.931   3.196   2.699 -0.0768  0.2401 -0.2023
 6281W        W24485  11.072  15.004   0.163  0.1163 -0.0954  0.2197
 6282W        W24486  18.456   8.169  13.583  0.0545 -0.0428 -0.2825
 6283W        W24487   3.817   1.284   0.761 -0.0308 -0.0259  0.0945
 6284W        W24488  11.757  10.223   2.515 -0.0916  0.0202 -0.1432
 6285W        W24489  18.132  13.384   0.070 -0.0572 -0.0504  0.1927
 6286W        W24490  13.834   8.113   0.091  0.2100  0.1405 -0.1032
 6287W        W24491   5.743   1.214   2.888 -0.0191  0.0724  0.2735
 6288W        W24492   9.679   6.328  14.853 -0.1571  0.0186 -0.1675
 6289W        W24493  10.566  17.591  15.301 -0.3686 -0.1515 -0.2313
 6290W        W24494   6.625   3.162  11.568  0.0958 -0.0708 -0.1113
 6291W        W24495   8.939   1.894   1.088 -0.0974  0.1157 -0.0604
 6292W        W24496  11.782   5.039  15.320  0.1826  0.1241 -0.0152
 6293W        W24497   4.509   0.451  14.137  0.1828 -0.0255  0.2647
 6294W        W24498  15.389   3.687   1.780 -0.0883 -0.0784 -0.3183
 6295W        W24499   0.883   5.240  14.666 -0.2684  0.0347 -0.2296
 6296W        W24500   3.521   4.043  14.898  0.0155 -0.0559  0.0427
 6297W        W24501   8.878  10.233  14.285  0.1151  0.1743 -0.0303
 6298W        W24502  10.869  16.390  15.439 -0.0659 -0.0208 -0.1348
 6299W        W24503   4.877  13.064   2.807  0.0950 -0.1129 -0.1243
 6300W        W24504  13.646   9.309  11.947  0.1275  0.0885 -0.0595
 6301W        W24505  15.664   8.597   3.042  0.4793 -0.1100  0.0781
 6302W        W24506   3.766  14.267  12.158  0.0295 -0.1628  0.3262
 6303W        W24507   5.237   8.220   5.323  0.0672  0.5245  0.1482
 6304W        W24508   7.628   6.976   0.906  0.0369 -0.2294  0.0329
 6305W        W24509  12.521  15.050  13.146  0.2017  0.2898 -0.0877
 6306W        W24510  14.488   2.081   2.661 -0.3376  0.1422 -0.1760
 6307W        W24511  15.982  14.806   4.978  0.3822  0.1814 -0.0759
 6308W        W24512   3.106   8.941   0.033  0.0719  0.1042  0.0309
 6309W        W24513   4.889  11.821  12.894  0.2528 -0.1140  0.0792
 6310W        W24514   8.564  14.589   0.455 -0.0747 -0.0866  0.0436
 6311W        W24515  13.084  14.374   2.514  0.0980 -0.0106 -0.1326
 6312W        W24516  13.301   4.059   0.327 -0.0819  0.2317 -0.1928
 6313W        W24517   8.707  17.834   1.981  0.2179  0.2770 -0.0116
 6314W        W24518   1.886   4.240  10.278  0.2672 -0.1764  0.1345
 6315W        W24519  13.499  12.314   0.438  0.2252  0.0087 -0.4483
 6316W        W24520  12.303   5.228   2.788  0.0884  0.2106 -0.2222
 6317W        W24521  11.563   4.736  10.839  0.3429  0.0912  0.0453
 6318W        W24522   3.531   7.005   3.487 -0.0717  0.3244  0.0793
 6319W        W24523   8.269  13.551  11.691 -0.0590 -0.1930 -0.1023
 6320W        W24524  17.734  12.683  14.877  0.1820 -0.1223  0.0220
 6321W        W24525   1.330  13.317  14.644  0.0157 -0.1257 -0.0753
 6322W        W24526  10.395   2.780   3.870  0.3437  0.1263  0.2443
 6323W        W24527   5.908  11.854   0.928  0.0058 -0.1535 -0.0917
 6324W        W24528  11.897  16.098   0.681  0.0099 -0.1011  0.0582
 6325W        W24529  17.561  16.228   0.415  0.2407 -0.0750  0.0620
 6326W        W24530   9.292  14.445  13.303  0.1707 -0.0804 -0.1252
 6327W        W24531   2.475  16.176   1.766  0.1543 -0.1076 -0.1778
 6328W        W24532   7.251  11.329  14.187  0.4331  0.2155 -0.1511
 6329W        W24533   1.253   4.496   3.412  0.1158 -0.1740  0.1739
 6330W        W24534  17.522  17.325   4.503 -0.1746  0.0438 -0.1778
 6331W        W24535   1.601   7.042   2.861 -0.0078 -0.1178 -0.1567
 6332W        W24536   0.622   9.813  12.894 -0.2925  0.0398  0.1655
 6333W        W24537   7.632  10.695  13.512  0.1429 -0.1410 -0.0956
 6334W        W24538  15.708  14.985  10.773 -0.1209  0.2480 -0.0333
 6335W        W24539   9.541   5.944  14.545  0.1166  0.4126 -0.1780
 6336W        W24540   8.041  14.898  11.504 -0.1209  0.0417  0.0735
 6337W        W24541   2.192   3.702  15.393  0.0893  0.2871  0.1460
 6338W        W24542  13.285   8.968   4.687 -0.2597 -0.1062 -0.0415
 6339W        W24543   5.188   9.147  12.076 -0.3055  0.3538  0.1794
 6340W        W24544   3.695   5.530   1.081  0.1623  0.3320 -0.0649
 6341W        W24545   2.683  13.351   0.602 -0.2523 -0.1843 -0.2367
 6342W        W24546  11.943  15.685  11.078 -0.1239 -0.1111 -0.2920
 6343W        W24547   3.064   3.890  11.740  0.1654  0.1011  0.1085
 6344W        W24548  15.601  11.852   1.518 -0.1244  0.1173  0.2732
 6345W        W24549   4.473  12.651  10.936 -0.0205  0.0349 -0.1846
 6346W        W24550   1.557  12.527   1.129 -0.0219  0.0867 -0.1001
 6347W        W24551  18.398  13.932   4.096 -0.0521  0.2647 -0.1646
 6348W        W24552  18.692  13.394   2.317 -0.0457  0.1955 -0.0324
 6349W        W24553  18.449   7.151   3.162  0.0215 -0.1449  0.0705
 6350W        W24554   8.729   2.613  14.881 -0.3328 -0.0390  0.0976
 6351W        W24555   0.860  15.012  14.227 -0.1508 -0.2042 -0.1474
 6352W        W24556   6.135  15.113   1.147 -0.1435 -0.1740  0.0719
 6353W        W24557  13.331  12.650   9.800 -0.0048  0.1997  0.1372
 6354W        W24558  15.767  18.271   3.983  0.0388 -0.0222 -0.4022
 6355W        W24559  18.217  17.820  12.460 -0.0934 -0.1428  0.0893
 6356W        W24560  18.458   2.436   4.806 -0.3377  0.2621 -0.0000
 6357W        W24561   4.008  10.909  12.519  0.1069  0.0198  0.3049
 6358W        W24562   9.061   6.239   4.901 -0.1592  0.0352  0.6228
 6359W        W24563  13.737  10.864  13.468  0.2628  0.1275 -0.0197
 6360W        W24564  16.918   8.241  11.497 -0.1541  0.0737 -0.0638
 6361W        W24565  10.271   4.260   1.700 -0.0864 -0.0166  0.4050
 6362W        W24566   8.859   8.965   2.666 -0.0529 -0.1360 -0.1870
 6363W        W24567  18.290   4.356   0.650  0.1556  0.1145 -0.0712
 6364W        W24568  11.231   4.271  12.251  0.3408  0.1131 -0.0752
 6365W        W24569   6.291  11.789  14.219 -0.0032 -0.1497  0.0654
 6366W        W24570   1.875   6.008   3.337  0.1657  0.0655 -0.2696
 6367W        W24571  17.809   1.738   3.289 -0.4294  0.1533 -0.1742
 6368W        W24572   7.971  15.210   2.841 -0.1372  0.0773 -0.2151
 6369W        W24573  17.416   9.704  15.115 -0.1496  0.0223  0.0485
 6370W        W24574  14.792   7.197  15.146 -0.1744  0.0517  0.0507
 6371W        W24575  13.191  10.279   1.043 -0.2550 -0.1367 -0.4224
 6372W        W24576   9.405   5.386   4.629 -0.1135 -0.1244  0.2514
 6373W        W24577   9.618  10.412  11.129 -0.2478 -0.1797  0.0509
 6374W        W24578   8.160  13.924   1.686 -0.2601  0.0325  0.0324
 6375W        W24579   9.176   5.029  12.474 -0.3085  0.1939  0.1909
 6376W        W24580   5.295  12.979   1.929 -0.1883  0.2171  0.1953
 6377W        W24581   6.290   2.452   3.866  0.3507 -0.4703  0.1246
 6378W        W24582   7.909  16.437   1.050  0.2638  0.0900  0.0320
 6379W        W24583  16.471   8.017   1.254  0.0853  0.0436 -0.1016
 6380W        W24584   2.622  16.626   1.982  0.2385 -0.3327  0.0795
 6381W        W24585   2.526   1.452   3.798 -0.1404 -0.0192 -0.4050
 6382W        W24586   8.761  18.641  14.187 -0.0193 -0.1709  0.0250
 6383W        W24587   9.072  16.831  15.267  0.2836 -0.0008  0.0722
 6384W        W24588  10.335   6.972  11.591 -0.0761  0.0792 -0.0285
 6385W        W24589   9.520  10.909  14.079 -0.0630  0.0119  0.1810
 6386W        W24590  11.319  17.212  11.561 -0.1923  0.0847 -0.1740
 6387W        W24591   1.321   2.604   3.275  0.1976 -0.0349  0.1153
 6388W        W24592   3.706   1.042   3.259  0.2631  0.2096 -0.0452
 6389W        W24593   4.000   4.840  11.128  0.1684 -0.1812  0.1298
 6390W        W24594   0.879  16.171  14.846 -0.2769  0.2878 -0.4777
 6391W        W24595  11.180   9.613  10.760  0.0956 -0.1886  0.2712
 6392W        W24596  12.562  10.146  10.893  0.0770 -0.1153 -0.2472
 6393W        W24597  13.178  13.739   0.977 -0.0387  0.0588 -0.0905
 6394W        W24598   4.656  12.424  11.491 -0.1825 -0.0210 -0.0413
 6395W        W24599  16.629   1.630  11.421 -0.2680  0.1547 -0.0645
 6396W        W24600   6.577  12.606  10.939 -0.0906 -0.3705 -0.1085
 6397W        W24601   0.739   9.347  12.970  0.3969 -0.0460  0.0437
 6398W        W24602   0.586  11.701  13.249 -0.1117 -0.1857  0.0357
 6399W        W24603   6.957  12.363   0.171  0.1142  0.3210 -0.2132
 6400W        W24604  14.601  10.938  12.152 -0.1723 -0.0454 -0.0389
 6401W        W24605  10.772   4.312  10.051  0.2264  0.0734 -0.1619
 6402W        W24606   0.628  15.686   4.010  0.0844 -0.0696 -0.0264
 6403W        W24607   5.035   8.366  13.437 -0.1395 -0.1151 -0.0907
 6404W        W24608  10.036  17.741  15.294  0.1535 -0.3445  0.0631
 6405W        W24609  11.677   6.433   0.046 -0.2416 -0.2884  0.5626
 6406W        W24610   1.129  16.437   0.280 -0.0047 -0.0373  0.2580
 6407W        W24611   2.647   8.721   2.931  0.2466  0.0436 -0.2971
 6408W        W24612  14.769  11.776   3.183  0.3499  0.1798 -0.1441
 6409W        W24613  12.865  12.938   0.654  0.0025 -0.1206 -0.1018
 6410W        W24614   8.449  13.784   2.069  0.0412  0.1437 -0.3011
 6411W        W24615  17.711  15.966  13.107  0.2036 -0.2676  0.1048
 6412W        W24616  12.114   6.151   4.708  0.2953  0.0073  0.4831
 6413W        W24617   8.164   0.646  10.719  0.3152  0.1301 -0.1766
 6414W        W24618   1.332   2.767  13.788  0.1653  0.1430  0.0328
 6415W        W24619   3.671   4.588   1.647 -0.5480 -0.0584  0.0531
 6416W        W24620   1.665   4.267  12.882  0.2380 -0.2339  0.0129
 6417W        W24621   9.185  15.430  12.939 -0.1705  0.1020 -0.2279
 6418W        W24622  12.811   3.133   1.004 -0.0238  0.0655 -0.0733
 6419W        W24623  13.583   1.937   9.828  0.2092 -0.3243 -0.1429
 6420W        W24624  16.467  15.646  12.877 -0.0217  0.5169  0.4047
 6421W        W24625  11.441  18.043  13.660  0.3006 -0.0331  0.0897
 6422W        W24626  10.368  10.472  15.226 -0.1536  0.0573 -0.2636
 6423W        W24627  16.220  17.419   2.107 -0.2864  0.0378  0.0310
 6424W        W24628   5.397  11.213   5.088 -0.1887 -0.3556 -0.1604
 6425W        W24629   5.710  14.104  11.450  0.0217 -0.2094 -0.1349
 6426W        W24630   0.682   0.784  14.583  0.0023  0.0039  0.0128
 6427W        W24631   1.622   9.935  11.101 -0.1540 -0.1240 -0.0022
 6428W        W24632  17.184   7.016  14.710 -0.2029 -0.2219  0.2228
 6429W        W24633   6.986   1.774   0.782 -0.0719  0.3465  0.0440
 6430W        W24634   4.135   0.636  10.804 -0.1616  0.0163 -0.2838
 6431W        W24635   1.005   8.384  13.028 -0.1532 -0.1774  0.1505
 6432W        W24636   3.492   5.389  15.168 -0.1642 -0.0600  0.1425
 6433W        W24637  16.843  13.995   1.790 -0.1297  0.0746  0.2477
 6434W        W24638   4.746   6.091  11.066 -0.1068 -0.0950 -0.1230
 6435W        W24639   7.165   0.984  13.971  0.0784 -0.1827 -0.0633
 6436W        W24640  12.126  12.028  12.709  0.1146 -0.0743  0.0171
 6437W        W24641  15.618   2.359   1.920  0.2250  0.2722  0.0978
 6438W        W24642   8.078   2.037   1.764 -0.0902 -0.2295  0.1015
 6439W        W24643   5.278   9.997   1.637 -0.1834 -0.4918  0.0827
 6440W        W24644   1.176  16.319  15.231 -0.1814 -0.0115  0.1605
 6441W        W24645   8.942  17.967   0.532  0.0325  0.0819 -0.0335
 6442W        W24646  10.020   9.617  14.695  0.1155 -0.0817  0.0195
 6443W        W24647   4.172   1.391   0.423 -0.1078 -0.0898  0.2997
 6444W        W24648  17.508   1.501   0.783 -0.1076 -0.2221 -0.0476
 6445W        W24649   5.942   7.598  11.694 -0.0578  0.0546 -0.0554
 6446W        W24650   3.501   8.016  15.153 -0.0269 -0.1080  0.2879
 6447W        W24651   6.899  10.366   3.523 -0.0614 -0.1449  0.2674
 6448W        W24652  18.282   8.998  14.926 -0.0942 -0.2460 -0.1871
 6449W        W24653  15.254  16.633  11.128  0.1718 -0.0354  0.1531
 6450W        W24654   5.794  14.040   3.566 -0.4162  0.0524  0.0328
 6451W        W24655  12.934  10.282   2.828  0.2436 -0.1617 -0.1975
 6452W        W24656   4.726   5.157  14.030  0.1151 -0.2493  0.1562
 6453W        W24657   3.593  17.972  10.560 -0.0910  0.2762 -0.0214
 6454W        W24658  18.591   4.090  14.957 -0.0513  0.2008  0.1996
 6455W        W24659   6.985   6.683   3.952  0.2210 -0.0115  0.2113
 6456W        W24660  11.747  13.267  13.906 -0.2711 -0.2514  0.0749
 6457W        W24661  12.304  17.327   3.841  0.0303  0.0660  0.1474
 6458W        W24662   6.101  15.171  11.319 -0.1780  0.0038  0.1129
 6459W        W24663   3.649  12.461   3.842  0.2698  0.0157 -0.3948
 6460W        W24664  11.146  13.757   4.291 -0.2449  0.1587  0.0571
 6461W        W24665   5.564   3.637   5.389  0.1863  0.0645  0.2591
 6462W        W24666  17.732  17.939  13.677  0.0223 -0.0311  0.0945
 6463W        W24667  18.044   8.356   3.087  0.3012 -0.0205  0.3243
 6464W        W24668   1.945  12.671   0.687  0.1401 -0.2784  0.0098
 6465W        W24669  15.280   7.953   4.991 -0.1726 -0.0346  0.1638
 6466W        W24670   9.607  18.034   2.270 -0.1086  0.0149  0.1249
 6467W        W24671   4.308   3.672  14.375  0.0995 -0.0181  0.1030
 6468W        W24672   8.837   5.909  13.242  0.3131 -0.1061 -0.1021
 6469W        W24673  10.870   6.983  11.140 -0.1802  0.1407 -0.5096
 6470W        W24674   3.008  13.017   4.405 -0.0188 -0.3496 -0.0719
 6471W        W24675   3.914   4.390  14.787 -0.3901  0.0501 -0.0089
 6472W        W24676   2.969   6.023   2.901 -0.2620 -0.0881  0.0118
 6473W        W24677   8.238   4.620   3.004 -0.0328  0.1362 -0.0074
 6474W        W24678   8.867   0.342   2.734 -0.0353  0.1253  0.1015
 6475W        W24679  15.474   2.920   1.242 -0.2585 -0.1454 -0.0456
 6476W        W24680  13.376   1.233  15.157 -0.1336  0.1639 -0.1996
 6477W        W24681  11.335  12.630   2.296  0.4842  0.0374  0.2664
 6478W        W24682   8.376   3.544  11.797 -0.2673 -0.2929 -0.1385
 6479W        W24683  17.002  15.965   4.836 -0.2210  0.0062  0.1698
 6480W        W24684   3.853   9.062   1.052  0.0622 -0.3202  0.0668
 6481W        W24685   1.668  12.595   2.036 -0.4251 -0.1416 -0.2861
 6482W        W24686  11.678   3.448   1.475  0.1823 -0.0048  0.3583
 6483W        W24687   8.658  13.809  13.007 -0.1867  0.0522 -0.0598
 6484W        W24688  15.681  13.974   9.913 -0.2422 -0.0551  0.2406
 6485W        W24689   4.598   1.782  12.046 -0.1629  0.4321  0.2548
 6486W        W24690   2.257   9.659  11.689  0.4462 -0.0868 -0.1077
 6487W        W24691  15.045  18.445  15.198 -0.2874  0.1710  0.2988
 6488W        W24692  14.204  13.719   4.067 -0.0081  0.2971 -0.0587
 6489W        W24693  18.537   7.137   2.659  0.2541 -0.4325  0.5094
 6490W        W24694  16.169   7.590   0.329 -0.2096  0.0778  0.0527
 6491W        W24695   8.017  10.481   1.782  0.1630 -0.1580  0.1543
 6492W        W24696   3.905  18.653  13.696 -0.0329 -0.0465 -0.1798
 6493W        W24697   2.932  13.790  14.693  0.1541 -0.0559  0.2255
 6494W        W24698  18.505   9.025  10.719  0.1191 -0.1101  0.0074
 6495W        W24699   3.313  18.254  10.896 -0.0817 -0.0286  0.2089
 6496W        W24700  17.091  10.504   1.319  0.2005  0.0042 -0.1265
 6497W        W24701  17.219  10.448   3.673 -0.1952  0.0806  0.2523
 6498W        W24702  12.844   6.035  15.431 -0.3518  0.3600 -0.0975
 6499W        W24703  12.624   8.315  13.192  0.2838 -0.0890 -0.0318
 6500W        W24704  13.098   3.031  15.164  0.1296 -0.0870 -0.3225
 6501W        W24705   2.706   2.282   1.812  0.2536 -0.3473  0.0843
 6502W        W24706   2.214   4.990   2.534 -0.2982 -0.2162  0.0300
 6503W        W24707  11.418  10.474   2.152 -0.0315 -0.0135  0.2912
 6504W        W24708  13.929   3.176  13.838 -0.1333  0.0505  0.0267
 6505W        W24709   3.430  11.382  11.514  0.3703 -0.1500 -0.1606
 6506W        W24710   3.301  16.835  12.151  0.1983  0.0086 -0.1744
 6507W        W24711  14.837  14.845  14.074  0.3174 -0.1602 -0.0009
 6508W        W24712  10.128  15.017  11.100  0.1074  0.3098  0.0664
 6509W        W24713  11.855  18.281   2.179  0.1514 -0.3651  0.1333
 6510W        W24714   7.655   2.262   1.812  0.3367 -0.0623 -0.2434
 6511W        W24715  14.255   8.376   2.133 -0.1061  0.2911  0.0304
 6512W        W24716  15.330   4.623   0.347 -0.1661 -0.1525 -0.1511
 6513W        W24717   2.406   4.874   0.330 -0.5517 -0.1858  0.0034
 6514W        W24718   0.629  15.082   2.029 -0.0774  0.2325  0.2174
 6515W        W24719   8.413   2.695   2.242 -0.1270  0.4010  0.0363
 6516W        W24720   7.629   8.857  11.436  0.4415  0.3934  0.2859
 6517W        W24721  12.488  12.642  13.259  0.1900  0.1900 -0.0557
 6518W        W24722   1.299   2.245  15.230 -0.0588 -0.2447 -0.1262
 6519W        W24723   1.862  14.341   1.559  0.0036 -0.1483  0.2814
 6520W        W24724  15.599   1.431   3.375 -0.3386  0.1028 -0.1599
 6521W        W24725  18.684  12.764  14.270 -0.1589 -0.0502 -0.1439
 6522W        W24726  13.631  11.294   0.786  0.0131  0.2307  0.0777
 6523W        W24727  16.086   8.743  11.801 -0.1724  0.1189  0.0683
 6524W        W24728  18.191   6.304   1.501 -0.0535  0.0828  0.0160
 6525W        W24729  15.380   5.952  14.346  0.0874 -0.2552 -0.0618
 6526W        W24730   4.131  11.072  10.494 -0.0500 -0.0081 -0.1714
 6527W        W24731  12.792  15.844   0.254  0.2960 -0.1013  0.0206
 6528W        W24732   9.240   2.718   1.627  0.0677  0.2736 -0.1064
 6529W        W24733  15.137  10.930   3.346  0.2120 -0.0770 -0.3185
 6530W        W24734   3.273   2.071   2.722 -0.0870  0.2726  0.2879
 6531W        W24735  13.548  12.003  10.892  0.2661 -0.0256 -0.0696
 6532W        W24736  15.414  17.874  14.467  0.1750  0.1771  0.0341
 6533W        W24737  15.163  13.588  15.076 -0.0345  0.0371  0.0344
 6534W        W24738   3.436  14.624   2.492 -0.0689 -0.0695 -0.3976
 6535W        W24739   8.533  11.907   4.661  0.0568  0.4170  0.0901
 6536W        W24740  11.523   5.258   3.603 -0.1148 -0.1970 -0.0586
 6537W        W24741  12.641   8.299  10.157 -0.2875 -0.3448 -0.1458
 6538W        W24742  16.737  11.282   0.270  0.2377 -0.1446 -0.0149
 6539W        W24743  10.441   7.641   1.883 -0.0898  0.0531 -0.2114
 6540W        W24744  14.381   7.663  13.395  0.0984  0.2439  0.1702
 6541W        W24745  10.997   7.273   0.179  0.1646  0.0558  0.4319
 6542W        W24746   6.651  13.915   5.535  0.2680 -0.0777  0.1332
 6543W        W24747  17.007  18.418   0.573  0.0016  0.1392 -0.2343
 6544W        W24748   7.806   5.018   2.186  0.0288 -0.0096  0.2760
 6545W        W24749   7.635   5.428  12.943  0.1040 -0.1192  0.2283
 6546W        W24750  12.368   8.054   3.066 -0.1220  0.0914 -0.0626
 6547W        W24751  10.155  11.621  13.070  0.0819 -0.2653  0.0506
 6548W        W24752   6.625  10.140  14.515 -0.0821 -0.0967 -0.0707
 6549W        W24753  11.769  16.595  13.872 -0.0652 -0.2340  0.3219
 6550W        W24754   8.477   6.842   3.937  0.4137  0.5302 -0.1757
 6551W        W24755  13.783   1.181   0.875 -0.1215 -0.1687  0.2084
 6552W        W24756   2.077   7.337   2.086 -0.0372 -0.1820  0.0406
 6553W        W24757   6.510   9.295  14.862 -0.1047  0.2246 -0.0603
 6554W        W24758  12.755  11.792  14.116  0.0430  0.0294 -0.2146
 6555W        W24759   4.917   9.234   4.229 -0.1739 -0.0991  0.5047
 6556W        W24760   6.671  13.832  11.774 -0.2554  0.1637  0.0482
 6557W        W24761  11.251  14.704   1.494 -0.2173  0.0526 -0.1433
 6558W        W24762   8.024  11.103   2.414  0.1114  0.0419  0.0713
 6559W        W24763  17.742  12.038   4.220  0.0466  0.0648 -0.1028
 6560W        W24764   8.692   9.005   2.263  0.2034 -0.0426 -0.0906
 6561W        W24765  15.417  15.072  12.885 -0.2736  0.1108 -0.1607
 6562W        W24766   1.185   2.534  13.200  0.1225 -0.1244  0.3249
 6563W        W24767  12.637  17.375   4.219 -0.0879  0.1037 -0.2244
 6564W        W24768   2.284   7.907  12.407  0.2679  0.1202  0.3200
 6565W        W24769  10.209  13.066   2.707 -0.0436  0.1443  0.2231
 6566W        W24770  13.751  16.055  12.028 -0.3055 -0.1686 -0.1649
 6567W        W24771  12.036   3.266  13.905 -0.0015  0.0844 -0.2361
 6568W        W24772  13.456  16.245  10.916 -0.2179 -0.0398  0.1374
 6569W        W24773   5.191   5.709  11.062  0.0969 -0.0862  0.1277
 6570W        W24774   0.917   6.561   0.535 -0.1035 -0.0117  0.1134
 6571W        W24775   3.373   2.652   3.452 -0.1598 -0.0778  0.0740
 6572W        W24776  14.528   7.377   0.141  0.3131 -0.2556  0.0884
 6573W        W24777   3.833  15.444  13.326  0.2987  0.0464  0.1822
 6574W        W24778   8.581   9.500   2.091  0.1670 -0.1688 -0.2948
 6575W        W24779   4.792  17.479   3.755 -0.2713 -0.0931 -0.0464
 6576W        W24780   8.728   6.092  14.870 -0.3925 -0.3934  0.3441
 6577W        W24781  16.577   3.688   0.972  0.0397 -0.1030  0.0098
 6578W        W24782  16.261  16.221   3.589  0.0548  0.1138  0.0642
 6579W        W24783  13.892   8.712   0.619 -0.0914 -0.2689 -0.0192
 6580W        W24784  12.306   7.824   4.554  0.2913  0.1474  0.2289
 6581W        W24785  12.645  18.329   4.138  0.0280 -0.1107  0.0589
 6582W        W24786   9.286   3.570   4.011 -0.0959 -0.1291  0.0625
 6583W        W24787  17.195   5.727  14.199  0.1940 -0.0829 -0.0148
 6584W        W24788   3.501   3.535   2.293  0.1400 -0.0987  0.0106
 6585W        W24789   6.968   8.803   0.004 -0.0037 -0.0018  0.1550
 6586W        W24790   2.907   5.151   1.592  0.3594 -0.0774  0.4663
 6587W        W24791   8.984   6.409   2.093 -0.2915 -0.1916  0.0323
 6588W        W24792  13.642  12.937   2.315  0.1062  0.0028  0.1155
 6589W        W24793   7.068  15.345  14.458  0.2316  0.0936  0.0193
 6590W        W24794  14.059   9.041  11.873  0.1136  0.0592 -0.2181
 6591W        W24795   4.459  13.984   4.379 -0.1365 -0.1178  0.1123
 6592W        W24796   4.357   1.975  15.082  0.3642 -0.2521 -0.0679
 6593W        W24797   4.801   6.395  13.392  0.1142 -0.1536 -0.3747
 6594W        W24798   4.243  17.976  15.303  0.0470  0.0884  0.0114
 6595W        W24799  14.788   5.168  14.780 -0.1234 -0.3652 -0.0114
 6596W        W24800   0.859  13.517  11.467  0.1743  0.0970 -0.0631
 6597W        W24801  12.370  14.455  13.727  0.0011  0.0964 -0.0307
 6598W        W24802  12.314  10.436   3.822 -0.1345  0.2050  0.0567
 6599W        W24803   1.945  12.023   4.516 -0.0517  0.0254 -0.1480
 6600W        W24804   9.942  10.116   3.931 -0.2955  0.1657  0.1745
 6601W        W24805   8.263  10.090   3.323  0.3676 -0.1012 -0.0784
 6602W        W24806   1.310  14.328  14.232 -0.0355 -0.2302 -0.0883
 6603W        W24807   8.510  17.406   0.126 -0.1237  0.2011  0.1148
 6604W        W24808  11.180   8.020   4.518  0.1945  0.2175 -0.2002
 6605W        W24809   3.018   4.897  13.166 -0.2968 -0.2382  0.1294
 6606W        W24810   7.103  17.501  12.423 -0.0278 -0.0324 -0.0622
 6607W        W24811  16.799   1.151  12.942 -0.0897 -0.4472 -0.1162
 6608W        W24812   9.960   7.811   0.345 -0.1151 -0.2185 -0.0271
 6609W        W24813  11.501   6.528   4.957  0.0149  0.0585  0.0319
 6610W        W24814  12.679  12.122  12.002  0.1496  0.1990 -0.2505
 6611W        W24815   3.555  13.809  13.449  0.4054 -0.1898 -0.0200
 6612W        W24816  16.794  10.410   2.595 -0.1439 -0.3792  0.1418
 6613W        W24817  17.306  12.218   4.048  0.1135 -0.2431  0.1842
 6614W        W24818   4.096  15.031   1.926  0.1749  0.2647  0.3269
 6615W        W24819  18.485   1.245  10.739 -0.3427  0.1544 -0.1466
 6616W        W24820   3.297  14.793  13.301  0.0548 -0.1733  0.0932
 6617W        W24821   5.919   3.212   4.714  0.1703 -0.0823  0.0683
 6618W        W24822  18.300   9.484  13.447  0.1008  0.1482 -0.1590
 6619W        W24823   7.219   0.873  12.830  0.2791 -0.1093 -0.2304
 6620W        W24824  14.783  12.033   2.305  0.3460  0.1146  0.0099
 6621W        W24825  14.539   3.573   2.444 -0.0864  0.0505  0.3773
 6622W        W24826  15.702   4.584   0.658 -0.5589 -0.2113 -0.0834
 6623W        W24827   1.912   6.216   6.085 -0.0124  0.2306  0.2980
 6624W        W24828  17.374  13.521  13.113  0.2091 -0.2782  0.1156
 6625W        W24829   2.007   7.888  12.790  0.1253  0.0082  0.0303
 6626W        W24830   6.356  11.017   0.278  0.0450 -0.0859 -0.1645
 6627W        W24831   1.832  10.311  14.750 -0.0508 -0.1498  0.0212
 6628W        W24832   7.126   9.045  12.297  0.0709 -0.1254  0.1511
 6629W        W24833   5.971  10.083  15.173 -0.1177 -0.1716 -0.4002
 6630W        W24834  16.940   0.175   2.780  0.2033 -0.0173 -0.0357
 6631W        W24835   9.055   4.060   1.307  0.3208 -0.1556 -0.0117
 6632W        W24836  12.961  14.891   2.546  0.0244  0.0225  0.2691
 6633W        W24837   4.673  12.389  13.543  0.0803  0.0990  0.2348
 6634W        W24838   8.821   4.495   4.418 -0.3129 -0.0013  0.0817
 6635W        W24839  13.265  15.326  13.368 -0.1454 -0.0106  0.3943
 6636W        W24840  16.557   4.543   1.407  0.3237  0.0120  0.1079
 6637W        W24841   1.747   5.530  14.766 -0.1723  0.0649  0.0867
 6638W        W24842  14.966   6.370  13.652  0.1843  0.0968 -0.1755
 6639W        W24843  17.181   2.601   3.912 -0.0761  0.0885  0.0001
 6640W        W24844  11.479  16.814   2.198 -0.0003  0.2511 -0.2230
 6641W        W24845   7.739   7.867   3.824  0.1494 -0.0491  0.0782
 6642W        W24846  17.901  15.164   3.928 -0.0239 -0.0327  0.0476
 6643W        W24847  15.072  13.478   0.211 -0.0424 -0.0186  0.1321
 6644W        W24848  12.164   2.240   4.131  0.0931 -0.0930 -0.2426
 6645W        W24849   1.213  16.607  13.046 -0.2220 -0.0924  0.2041
 6646W        W24850  12.794   3.917   0.471  0.2357  0.0971  0.2789
 6647W        W24851  10.275   6.533   4.327 -0.2002 -0.0947 -0.4502
 6648W        W24852  12.806   8.624  12.315 -0.0931 -0.0255  0.1167
 6649W        W24853  12.679  18.369   1.651  0.1214 -0.0058 -0.3608
 6650W        W24854   9.858  15.280  14.587 -0.2406  0.2813  0.2631
 6651W        W24855  12.018  10.993  11.843 -0.0050 -0.0939  0.1755
 6652W        W24856   8.841   0.303  15.351  0.0970  0.0367  0.1701
 6653W        W24857   6.209   1.380   9.539 -0.2885  0.2019 -0.0075
 6654W        W24858   3.406  11.060   0.819  0.5216  0.0679 -0.3473
 6655W        W24859   2.115   7.506   3.468 -0.1311 -0.0120 -0.0684
 6656W        W24860  12.169  14.744  11.937 -0.1018  0.3240  0.1559
 6657W        W24861   5.443  16.082   0.686  0.1775  0.1312  0.0503
 6658W        W24862  15.772  18.378  13.756 -0.1723 -0.4172 -0.0655
 6659W        W24863   5.810   1.494   0.876 -0.0128 -0.1140 -0.1641
 6660W        W24864   1.840  15.473   1.794  0.1208 -0.0441  0.1934
 6661W        W24865   2.131   9.350   3.863 -0.1351  0.1205  0.0575
 6662W        W24866   6.329  11.190  12.295  0.0586 -0.4087 -0.0791
 6663W        W24867   1.606   2.452   4.018 -0.4977 -0.0593  0.1090
 6664W        W24868   4.450  18.034  14.087  0.0266 -0.0907  0.0068
 6665W        W24869  14.980  16.055   0.187  0.2435  0.0237  0.4443
 6666W        W24870   6.015  14.382  12.722  0.0704  0.0093  0.1157
 6667W        W24871   4.346  17.291   2.664 -0.1486  0.0502  0.1665
 6668W        W24872  10.077   8.204  12.341  0.1073  0.0973 -0.1757
 6669W        W24873  13.539  11.728  13.023 -0.0081  0.1582  0.0657
 6670W        W24874  18.238   8.007   1.321  0.1452  0.1169  0.0706
 6671W        W24875  12.383  14.561  13.231 -0.1069 -0.0133  0.2567
 6672W        W24876  12.824   5.893   3.941 -0.1977  0.0639 -0.2533
 6673W        W24877   8.197  11.554   2.648  0.1116 -0.2362  0.1569
 6674W        W24878   5.798   9.737  11.715 -0.1033 -0.0670 -0.0254
 6675W        W24879  11.496  11.231  14.001 -0.1028 -0.1808  0.0332
 6676W        W24880  12.776  17.568   4.671  0.1752  0.0796  0.4769
 6677W        W24881   0.715   0.564  13.645 -0.0634  0.0968 -0.1648
 6678W        W24882  16.835   6.429   2.669 -0.1279  0.0457  0.6052
 6679W        W24883   2.159  11.629  13.313  0.0108  0.1371 -0.0263
 6680W        W24884   5.336   6.030  11.657 -0.1452 -0.3805  0.0325
 6681W        W24885   1.846  13.664   2.731 -0.0951  0.1833  0.0448
 6682W        W24886  18.129   8.756  14.005 -0.1510 -0.0803  0.0800
 6683W        W24887  11.214   5.031  11.031  0.1347  0.1385 -0.0092
 6684W        W24888  13.651   3.471   4.017  0.1289 -0.0383 -0.2421
 6685W        W24889  14.220  14.379  13.791 -0.1707 -0.2609  0.2149
 6686W        W24890  17.476  10.341   5.837 -0.0062 -0.1809  0.0753
 6687W        W24891   3.390  16.857  10.814 -0.3337 -0.1259  0.0799
 6688W        W24892  16.056   3.481  12.656 -0.1523 -0.0763  0.0827
 6689W        W24893  13.634   3.498   3.527  0.1853 -0.2498  0.3540
 6690W        W24894  17.169  13.194  10.729 -0.0291 -0.0199 -0.2525
 6691W        W24895   9.355   5.111   9.753  0.0618  0.1744  0.3064
 6692W        W24896   0.303   5.891   3.328  0.1752  0.0440 -0.3834
 6693W        W24897   6.407   8.016   3.993  0.0963 -0.2532  0.0222
 6694W        W24898  17.595   7.572   2.951 -0.0565 -0.0983 -0.0912
 6695W        W24899  17.158  16.413  12.022 -0.2224 -0.2558 -0.2782
 6696W        W24900  17.633   2.388  14.792 -0.2786 -0.1667 -0.1242
 6697W        W24901  15.974   3.154   4.021  0.2353  0.0766  0.1728
 6698W        W24902   4.589   2.745  12.336  0.6334 -0.0401 -0.0155
 6699W        W24903   6.289   9.663   4.122  0.4947 -0.1352 -0.0678
 6700W        W24904  14.601   1.371   3.710 -0.0398  0.0993  0.2783
 6701W        W24905   3.996   7.014   3.194 -0.1653 -0.1146  0.2371
 6702W        W24906  15.296   8.522  15.094  0.3404  0.0241  0.1262
 6703W        W24907   0.327   9.201  12.658  0.2378 -0.1116  0.0112
 6704W        W24908   7.499   1.331  14.195 -0.1263 -0.1084 -0.1784
 6705W        W24909  16.791   5.073  12.814 -0.1721  0.0723  0.4174
 6706W        W24910  15.367   0.253   3.750  0.0722 -0.1537 -0.1245
 6707W        W24911  17.207   0.830  12.939 -0.1441 -0.3163 -0.4244
 6708W        W24912   3.683  12.946   0.496  0.3571 -0.0317 -0.1992
 6709W        W24913   0.715   6.667  14.042 -0.1347  0.1159  0.3708
 6710W        W24914  18.618   5.765  11.295 -0.1289 -0.1144  0.1066
 6711W        W24915  15.720   9.525  15.250  0.0727 -0.0759  0.2431
 6712W        W24916   4.203  10.466  13.946  0.1220 -0.0831 -0.0265
 6713W        W24917  15.797  16.114   3.648  0.2656  0.0723 -0.1136
 6714W        W24918   0.608   4.739  15.052 -0.1714 -0.0162 -0.2781
 6715W        W24919  18.270   3.662   5.155  0.3096  0.1170 -0.3364
 6716W        W24920   4.483   6.895   4.479  0.0371 -0.2666  0.1932
 6717W        W24921   7.389  15.203   2.996  0.1061 -0.3559 -0.0992
 6718W        W24922  13.047  10.597  12.391 -0.0076 -0.0549 -0.1098
 6719W        W24923  15.120   1.048   2.537  0.3490  0.0375  0.1240
 6720W        W24924   2.859  14.438  10.305 -0.2236 -0.2494 -0.1005
 6721W        W24925   8.752   2.701   5.637  0.5187 -0.0776 -0.0300
 6722W        W24926  14.458  14.728   3.209 -0.1396 -0.1383  0.0148
 6723W        W24927   6.563  18.611  11.179 -0.3139  0.0226  0.0270
 6724W        W24928  13.328   8.116   4.317 -0.4160 -0.3894 -0.1285
 6725W        W24929   0.756  17.783  14.198 -0.0644  0.3735  0.0402
 6726W        W24930  17.754  17.594   3.254  0.1731  0.0503 -0.0593
 6727W        W24931  15.190  15.204   0.153  0.0281 -0.0212 -0.0460
 6728W        W24932  10.579  15.255  10.963 -0.1173 -0.2298  0.0014
 6729W        W24933   6.842   8.788   4.697 -0.1208  0.1762 -0.2378
 6730W        W24934  13.504   8.215  12.295  0.2938  0.0833 -0.1031
 6731W        W24935   5.357   2.531  15.436 -0.1081 -0.2859  0.2520
 6732W        W24936  11.400   7.685   3.311  0.1569  0.0079 -0.2014
 6733W        W24937  13.359   3.501  12.985 -0.0496 -0.0070  0.2590
 6734W        W24938  17.684  12.194   1.468  0.1403  0.3123  0.2115
 6735W        W24939  11.644  14.111  14.286 -0.1837  0.2406 -0.2071
 6736W        W24940  17.919   5.328  14.087  0.0910 -0.1753 -0.0105
 6737W        W24941   2.682   3.544   0.770 -0.0396 -0.1153 -0.0823
 6738W        W24942   2.093  10.164   0.794  0.0557  0.1258 -0.0883
 6739W        W24943  17.284  12.959   0.937 -0.0806  0.0530  0.3662
 6740W        W24944  10.841   0.126  12.447  0.0592  0.1721  0.0394
 6741W        W24945  14.093   3.713  12.617 -0.0150  0.1949 -0.0091
 6742W        W24946  14.706   6.003   3.247  0.3408 -0.1011 -0.1246
 6743W        W24947   1.025   9.165   4.146  0.1380  0.0807  0.0901
 6744W        W24948   5.078   3.786   2.878  0.4182 -0.2504  0.2229
 6745W        W24949   7.142  12.707  11.936 -0.1659  0.0240  0.0745
 6746W        W24950   3.758  15.057  12.983  0.2507  0.0421 -0.2134
 6747W        W24951   6.391  13.021   4.066  0.1108  0.3772  0.0395
 6748W        W24952  18.437  12.335   4.207  0.0193  0.0838  0.0816
 6749W        W24953   3.522   4.881   2.798  0.3175  0.0618  0.2877
 6750W        W24954   0.383   3.765  13.217  0.0476  0.2475 -0.1012
 6751W        W24955   7.382   8.595   2.510 -0.0686 -0.0620  0.0309
 6752W        W24956   0.993   2.991  11.378 -0.1796  0.0033  0.1317
 6753W        W24957  12.886   0.134  14.642 -0.1500  0.0096 -0.2266
 6754W        W24958  10.170   1.790   2.286  0.0115 -0.0473 -0.2269
 6755W        W24959   3.275   6.868  12.649  0.1065  0.2825 -0.1489
 6756W        W24960   8.907   4.144   2.192 -0.2018  0.1159  0.2402
 6757W        W24961   8.866  12.856   0.926 -0.0280  0.0478  0.1037
 6758W        W24962   8.906  17.682   4.727 -0.0990  0.2213  0.1538
 6759W        W24963  13.037   0.728  13.997  0.0438 -0.0371  0.5351
 6760W        W24964   7.067  15.349  11.991  0.3317  0.1192 -0.0015
 6761W        W24965   2.478  14.904  15.036 -0.0620 -0.0101 -0.2882
 6762W        W24966   5.935  11.628  11.519  0.2492 -0.0999 -0.1808
 6763W        W24967  11.598  12.020   3.747 -0.0467 -0.1194 -0.0527
 6764W        W24968   9.727  16.719  12.447 -0.1715  0.0263 -0.0053
 6765W        W24969  15.277   3.520   3.569  0.4426  0.2328 -0.1798
 6766W        W24970   3.760  16.942  14.132 -0.3540  0.4696 -0.0268
 6767W        W24971  15.685  16.447   4.043 -0.0101  0.0302  0.0464
 6768W        W24972  13.370   4.272   2.905  0.3884 -0.1355 -0.1267
 6769W        W24973  15.362   4.072   3.309 -0.1520 -0.0674 -0.0690
 6770W        W24974   3.839  17.782  13.372 -0.2117  0.2511 -0.2440
 6771W        W24975   0.583  12.201  10.989  0.0539  0.1584  0.4030
 6772W        W24976   4.765   9.241  13.890  0.0851 -0.3899 -0.1530
 6773W        W24977  13.257   6.206  11.068  0.2061 -0.0434 -0.0987
 6774W        W24978  14.115   7.639   0.654 -0.1588 -0.0036 -0.1597
 6775W        W24979  13.299  15.144   0.924 -0.0769  0.0921  0.1018
 6776W        W24980   5.586   8.381   4.410  0.0865 -0.0330  0.0751
 6777W        W24981   1.981  14.526  14.639  0.0301  0.0835 -0.1625
 6778W        W24982  10.853  17.542   3.282 -0.1396  0.1218  0.1552
 6779W        W24983   9.054  16.124   0.360  0.1647 -0.0541 -0.1719
 6780W        W24984  14.250  12.028  14.476  0.0485  0.3608  0.0032
 6781W        W24985  11.612   9.888   1.061  0.0405  0.0699 -0.3949
 6782W        W24986  14.383   2.135   3.196 -0.0030 -0.1167  0.1848
 6783W        W24987   0.817   2.529  11.518  0.2290 -0.0302 -0.0638
 6784W        W24988   5.168   4.870   3.629 -0.1044  0.0228  0.3072
 6785W        W24989   2.721  10.484  14.583  0.2099  0.3324  0.1228
 6786W        W24990   9.785   4.314  12.355 -0.0730  0.0299  0.1160
 6787W        W24991   9.499  15.310  13.871 -0.1626 -0.1999 -0.0351
 6788W        W24992   8.983  14.964   1.004 -0.1078 -0.1666  0.1406
 6789W        W24993  17.285   9.990  12.097 -0.0549  0.1837 -0.1280
 6790W        W24994   8.235   6.375  13.774 -0.0387 -0.2927 -0.0601
 6791W        W24995  15.945  13.785  11.379 -0.1826  0.2868 -0.0734
 6792W        W24996   9.623  18.389   1.150  0.2325  0.2647 -0.1318
 6793W        W24997  15.216  14.902  10.022 -0.2215  0.0121 -0.1425
 6794W        W24998   7.259  18.082  12.344  0.2641  0.0274 -0.2603
 6795W        W24999   5.846   2.192   3.766  0.3884 -0.0407  0.1619
 6796W        W25000   0.258   1.760   1.101  0.1269 -0.2104 -0.0092
 6797W        W25001  12.275  15.764   0.024  0.0878 -0.2581 -0.1440
 6798W        W25002   9.611   1.972  14.359  0.1016 -0.0054 -0.1317
 6799W        W25003   6.282  17.321  15.108 -0.1057 -0.1744 -0.0528
 6800W        W25004  15.235   6.478   3.948  0.1354  0.1931  0.0351
 6801W        W25005   1.639  14.658   2.664 -0.1150 -0.4537  0.1635
 6802W        W25006   1.046   4.635  11.812  0.0462 -0.5164  0.0946
 6803W        W25007  10.759   4.564   4.826 -0.1940  0.2705  0.6623
 6804W        W25008   9.147   6.561  14.191 -0.0428 -0.0559 -0.0017
 6805W        W25009   8.341   7.653  12.623 -0.2972  0.2444 -0.1968
 6806W        W25010   6.003   3.383  13.673 -0.1040 -0.0725  0.1022
 6807W        W25011   7.389   8.839  11.914  0.2748  0.1135 -0.3378
 6808W        W25012  13.819   6.350  11.843 -0.1466  0.1440 -0.0267
 6809W        W25013  17.942   1.985   1.776  0.0542  0.0574 -0.2015
 6810W        W25014   9.818  17.859  11.142  0.0004 -0.0828  0.2543
 6811W        W25015   2.759  13.112  13.970 -0.0330  0.2080  0.0131
 6812W        W25016  10.486   4.265   3.640  0.2892 -0.1238  0.0384
 6813W        W25017   8.096  13.253   2.053  0.2847 -0.0451  0.2560
 6814W        W25018  14.697   3.676  15.093  0.0994  0.2216  0.0859
 6815W        W25019   9.970  15.177  13.766 -0.0074 -0.1073  0.1493
 6816W        W25020  15.284   5.243  11.432 -0.0174 -0.0388 -0.0107
 6817W        W25021  15.275   1.272  12.670  0.4160  0.1509 -0.3597
 6818W        W25022   4.604  12.741  12.263 -0.1889  0.0585 -0.3609
 6819W        W25023   0.854   3.828  13.472 -0.2408  0.0848  0.0614
 6820W        W25024  11.184   5.804   5.064 -0.0382 -0.3995  0.0412
 6821W        W25025   0.967  16.702   3.855 -0.0689 -0.0168  0.0214
 6822W        W25026   2.212   2.404   1.792  0.2315 -0.1628  0.4762
 6823W        W25027   2.441  11.207   1.126  0.0869 -0.3721  0.2548
 6824W        W25028  15.251   2.345   3.070 -0.0188  0.1696 -0.0118
 6825W        W25029   1.744   1.136   4.107 -0.1865  0.1863  0.2637
 6826W        W25030   7.158   0.123   1.008 -0.2624 -0.2107  0.4626
 6827W        W25031   3.274   7.625   2.000  0.0652  0.0343 -0.2443
 6828W        W25032   5.454   8.103  13.199 -0.0364 -0.1382 -0.1923
 6829W        W25033  15.681   3.324  11.574 -0.0368 -0.1123 -0.3828
 6830W        W25034   0.715  10.664   2.859  0.2895  0.0567 -0.1559
 6831W        W25035  15.289  17.826   0.543 -0.0588 -0.1702 -0.0656
 6832W        W25036   0.300   1.579   4.349 -0.1095  0.1290 -0.3800
 6833W        W25037  16.857   1.021  13.836 -0.1036 -0.0452 -0.1679
 6834W        W25038   4.773   2.987   0.516  0.1648 -0.1707 -0.4781
 6835W        W25039  16.604   7.982   0.442 -0.0143 -0.0782  0.0621
 6836W        W25040  14.706   0.842   3.951  0.1022 -0.4800  0.2355
 6837W        W25041   8.915  13.608  11.192 -0.3157  0.0325  0.1317
 6838W        W25042   2.386  11.283  13.754  0.2641  0.4095  0.3283
 6839W        W25043  17.140   2.194  11.426 -0.1565  0.3304 -0.1327
 6840W        W25044   2.247   3.624   2.304  0.1732  0.1975  0.0403
 6841W        W25045  11.031  15.399  11.041 -0.3992 -0.2003 -0.1458
 6842W        W25046  14.247   2.946   5.583  0.1144 -0.0469 -0.2665
 6843W        W25047   2.685   7.172  11.300  0.2990  0.0216 -0.0441
 6844W        W25048   7.709  16.027  14.131 -0.3255 -0.1277 -0.1612
 6845W        W25049  16.186   0.455  13.827  0.2171 -0.0787 -0.0089
 6846W        W25050   3.916  13.825   9.575 -0.0533  0.3028 -0.0231
 6847W        W25051   0.542  14.132   5.188  0.0942 -0.1336  0.2152
 6848W        W25052   1.836   7.931   3.767 -0.0364 -0.2615 -0.0797
 6849W        W25053  13.503   2.254  10.726  0.2731  0.0436 -0.6097
 6850W        W25054  13.166   2.699  11.783 -0.1322  0.0902 -0.1780
 6851W        W25055   2.279   8.057  15.456  0.1314 -0.0069  0.1592
 6852W        W25056   7.092   0.031  10.516  0.1064  0.0112  0.1831
 6853W        W25057  11.964  12.129  13.201 -0.0109 -0.1321 -0.1464
 6854W        W25058  10.296  13.888  15.061  0.2466  0.0188  0.1007
 6855W        W25059   2.374   0.162   2.493  0.0647 -0.4476  0.0097
 6856W        W25060   6.313  13.460  10.313 -0.2173 -0.0821  0.1081
 6857W        W25061   3.172   2.723  13.488 -0.1283 -0.0151 -0.1414
 6858W        W25062   6.809  13.319   0.214 -0.4465 -0.4460  0.0179
 6859W        W25063   0.672   4.403  11.644  0.1617 -0.0907  0.0806
 6860W        W25064  18.090   7.163   2.325  0.1928  0.1416 -0.0977
 6861W        W25065  17.659   7.412   3.995 -0.0796 -0.2557 -0.1014
 6862W        W25066   6.035   8.323  12.265 -0.0764 -0.1682 -0.0235
 6863W        W25067  10.384   2.352  13.234  0.3675  0.4841 -0.0508
 6864W        W25068  12.924  14.228   1.909  0.0898  0.1432 -0.0659
 6865W        W25069  18.511  14.151  10.794  0.3716 -0.1214  0.0086
 6866W        W25070   1.828   5.162   3.449 -0.0855 -0.0733 -0.0293
 6867W        W25071  13.421  15.582  14.274 -0.0337 -0.1946  0.0738
 6868W        W25072   6.661   7.948  13.996 -0.1757  0.1283 -0.3974
 6869W        W25073   0.988   7.095  13.755  0.0352 -0.1390  0.5290
 6870W        W25074  13.947  12.002   4.643  0.0878  0.1442  0.1426
 6871W        W25075   1.936   3.912   1.272 -0.1132  0.0203  0.2598
 6872W        W25076   1.256   3.002  13.064 -0.2469 -0.4514 -0.0094
 6873W        W25077  15.226  15.442   2.337  0.0872  0.0396 -0.2513
 6874W        W25078   5.759  16.820  13.761 -0.0013  0.2047 -0.0604
 6875W        W25079  12.910   4.653   4.203 -0.1299 -0.2290  0.0714
 6876W        W25080  17.586   8.521   0.273 -0.2106  0.0558 -0.2248
 6877W        W25081  13.037   9.075  13.902  0.0466 -0.2559  0.1036
 6878W        W25082  18.676   9.193   4.850  0.2991 -0.1367  0.0080
 6879W        W25083   9.323   6.104  13.279  0.4810 -0.2284 -0.0064
 6880W        W25084  10.873  18.492  14.952 -0.1300  0.1879  0.1961
 6881W        W25085   3.701   6.456   0.799  0.1781  0.1106 -0.0102
 6882W        W25086  12.094   3.310   2.639 -0.4668 -0.0096 -0.2355
 6883W        W25087   5.605   4.713  10.681  0.0797  0.1215 -0.2064
 6884W        W25088   2.194   6.907   3.501  0.0398  0.0025  0.1320
 6885W        W25089  11.707  10.103   1.503 -0.1456 -0.0977  0.2173
 6886W        W25090  17.098  10.341   0.008 -0.0516  0.0476  0.0472
 6887W        W25091   5.714   2.114  15.418  0.3481 -0.0226  0.1509
 6888W        W25092   3.046   8.780   1.072  0.0421 -0.0276 -0.0683
 6889W        W25093   4.075  13.900  13.564 -0.1178  0.2143 -0.1312
 6890W        W25094  13.069  16.785   4.249 -0.0791  0.0935  0.1513
 6891W        W25095  16.315   3.313   1.478  0.0905  0.1392  0.1210
 6892W        W25096  12.349  18.442  13.008 -0.1552  0.1646 -0.2649
 6893W        W25097  15.159  18.270   2.026  0.3316  0.1610  0.3234
 6894W        W25098   9.922   8.233   0.135 -0.1340 -0.3851  0.0183
 6895W        W25099   1.042   8.679  12.402  0.3165  0.1960  0.0495
 6896W        W25100   7.965   6.630  10.677 -0.0850 -0.0187  0.2565
 6897W        W25101   5.366   5.478   4.252  0.4903  0.4373  0.2088
 6898W        W25102  14.191  13.608  12.984  0.0454  0.1294 -0.2010
 6899W        W25103   1.501  11.530   3.497 -0.1667  0.0201 -0.0089
 6900W        W25104  10.726  10.137   0.538 -0.1285  0.1065  0.0248
 6901W        W25105  10.681   0.759  10.740 -0.1519 -0.0736 -0.2718
 6902W        W25106  12.195  17.821  13.896 -0.0339  0.0656  0.2656
 6903W        W25107  18.416  14.717   2.905  0.0010 -0.0979 -0.1209
 6904W        W25108  15.565   6.493  11.434  0.3543  0.0382 -0.3700
 6905W        W25109   6.528   7.600  11.752 -0.2240 -0.1468  0.1078
 6906W        W25110   6.035   7.933  14.269 -0.2836  0.0521 -0.1119
 6907W        W25111   0.555  17.867   2.685 -0.2362 -0.2706  0.2019
 6908W        W25112   0.029  11.276  13.607  0.1694  0.1243  0.0976
 6909W        W25113  11.752  13.802   3.460  0.0526 -0.2079 -0.0014
 6910W        W25114  17.935  11.311  12.048 -0.1243 -0.1509 -0.0679
 6911W        W25115   2.223   8.671   0.783  0.0715 -0.2528  0.0000
 6912W        W25116  13.296   6.309   2.245 -0.2957  0.0266 -0.1749
 6913W        W25117   8.464   4.321   2.686 -0.0239 -0.2274  0.2354
 6914W        W25118  11.530   2.868   0.302  0.1921 -0.4887 -0.1485
 6915W        W25119  18.088   7.699  13.861  0.0692  0.0968 -0.1301
 6916W        W25120   1.511  17.492  10.751  0.2627  0.1785 -0.0354
 6917W        W25121  11.387  11.086   5.250 -0.0064 -0.0741 -0.0834
 6918W        W25122   7.279  12.699  15.152 -0.0320 -0.1301 -0.5359
 6919W        W25123  14.467   6.708   2.092 -0.1712  0.1513 -0.1013
 6920W        W25124   4.835  13.525   5.345 -0.4560 -0.1625 -0.1530
 6921W        W25125  14.123  18.166  11.291 -0.3257  0.1759 -0.1100
 6922W        W25126   4.789   4.254   2.490  0.1510  0.1790 -0.1539
 6923W        W25127   1.973   9.749  12.875  0.0617  0.0189  0.0217
 6924W        W25128   1.787  14.505  13.513 -0.2972 -0.1497  0.0212
 6925W        W25129   9.430  12.356  15.269 -0.0721 -0.0999  0.1947
 6926W        W25130   3.346  14.746  12.775  0.0915 -0.2884 -0.0158
 6927W        W25131  10.066  15.249   0.198  0.2783  0.0517 -0.0138
 6928W        W25132  18.014   5.238   0.353  0.1029  0.2019  0.4744
 6929W        W25133  10.039  10.953  14.375  0.1256 -0.2669 -0.1311
 6930W        W25134   5.458   6.142   2.529 -0.4256 -0.2547  0.1206
 6931W        W25135  13.946   9.894   0.936  0.1991 -0.0220  0.1204
 6932W        W25136   6.416  13.704   0.956 -0.0383  0.0262 -0.1225
 6933W        W25137  13.694  15.308  13.743 -0.3748 -0.2523  0.2057
 6934W        W25138  18.209   3.233   2.572 -0.0446 -0.0413  0.2269
 6935W        W25139  14.958  11.605   2.194 -0.3075 -0.0321  0.1854
 6936W        W25140   4.686   5.403  15.292  0.0201  0.4064 -0.0618
 6937W        W25141  12.417   4.837   4.258 -0.4762 -0.3313 -0.3433
 6938W        W25142   7.676  13.985  14.861 -0.1240 -0.0398 -0.1820
 6939W        W25143   8.608  14.389  14.934  0.0477  0.0849  0.0905
 6940W        W25144   8.096  10.484  15.159 -0.0610  0.0012  0.2456
 6941W        W25145   5.355  14.321   2.130  0.1568  0.0351 -0.0702
 6942W        W25146   6.195  13.426  10.800  0.0166  0.4679  0.1078
 6943W        W25147   8.739   4.599  14.054  0.0052  0.0849 -0.0625
 6944W        W25148   1.345   6.471   2.846  0.0223 -0.0433  0.0042
 6945W        W25149   8.157   7.509   3.088 -0.3274  0.3342 -0.2481
 6946W        W25150   9.865   6.549  15.238  0.1944 -0.1386  0.0932
 6947W        W25151   2.467  15.962   4.102  0.0475  0.2081  0.0662
 6948W        W25152   9.566  16.413  14.861  0.1832 -0.0353  0.1196
 6949W        W25153   3.026   5.589   4.344  0.0570  0.2121  0.1020
 6950W        W25154  11.390   5.609   2.403 -0.1867 -0.1675  0.0037
 6951W        W25155  11.651   9.718  10.608  0.0261 -0.2638  0.0431
 6952W        W25156   5.569   4.039   4.051  0.0999 -0.2461 -0.0690
 6953W        W25157   7.321  17.889   0.583 -0.0160  0.3579 -0.2422
 6954W        W25158  16.354  16.268   9.961  0.2240 -0.0563 -0.0351
 6955W        W25159   0.001  14.760  14.007  0.2201  0.0099 -0.2386
 6956W        W25160   1.350   5.423  14.371 -0.0368  0.1534 -0.1472
 6957W        W25161  16.490  18.418   0.513 -0.1624  0.1242  0.1083
 6958W        W25162   2.161   7.369  14.426 -0.1821 -0.1991 -0.1872
 6959W        W25163   5.475   4.094  13.867  0.0752  0.2042 -0.0919
 6960W        W25164   7.385  15.890  14.506 -0.0937 -0.0479 -0.1816
 6961W        W25165   2.364   3.908   4.044 -0.0253 -0.1145 -0.2291
 6962W        W25166   9.108   4.254  13.137  0.2489 -0.2930  0.2197
 6963W        W25167   4.660  14.880  14.872 -0.1332 -0.1035  0.1536
 6964W        W25168   0.332   4.976   0.544  0.0056 -0.1782 -0.0632
 6965W        W25169  15.590   0.184  11.257  0.1069  0.0854 -0.1629
 6966W        W25170  14.031   0.644  14.372 -0.1998 -0.1719  0.2328
 6967W        W25171   7.784  14.912  11.989 -0.0945 -0.2763  0.2539
 6968W        W25172  10.871  13.020  10.977 -0.0967  0.1626 -0.1736
 6969W        W25173   3.236   0.928   0.358  0.0232 -0.1618 -0.4152
 6970W        W25174  12.908   7.356   2.279 -0.0472  0.0184  0.0557
 6971W        W25175   1.840   1.101   3.546  0.0736  0.2465  0.0403
 6972W        W25176   2.962  13.713   2.051 -0.2312  0.0118  0.1679
 6973W        W25177  15.018   7.536  14.422 -0.0812 -0.0910 -0.0227
 6974W        W25178   9.502   6.875   4.124  0.1993 -0.0101 -0.1883
 6975W        W25179   0.557   3.292  14.665  0.2220 -0.0243 -0.1944
 6976W        W25180   8.649   7.333  14.668  0.0015  0.0707  0.2348
 6977W        W25181  16.477  15.757   3.506  0.0339 -0.1882  0.2618
 6978W        W25182  15.945  12.089   0.911 -0.1916 -0.2699 -0.2308
 6979W        W25183   2.654   9.973  11.411 -0.0689 -0.0673  0.0798
 6980W        W25184  15.768  10.662  12.664  0.1665  0.1977 -0.2600
 6981W        W25185   5.535  13.700   1.427  0.0720  0.0211  0.2888
 6982W        W25186  18.442  11.799   3.215  0.2914 -0.0437 -0.3710
 6983W        W25187  17.175  16.059  12.336 -0.0139 -0.0025 -0.2973
 6984W        W25188   2.249  11.190   3.745 -0.1895  0.0886 -0.3061
 6985W        W25189  14.148  11.241   0.754  0.1759 -0.0896  0.3952
 6986W        W25190  17.188   6.491  14.756  0.1770 -0.0635  0.1032
 6987W        W25191  15.986   4.437   1.225 -0.0022 -0.2980  0.0496
 6988W        W25192   5.713   0.377  13.119 -0.3623  0.0840 -0.0026
 6989W        W25193   7.942   6.626  12.167  0.0319  0.1113  0.1202
 6990W        W25194   3.456   0.031  14.846 -0.2192  0.1395  0.1266
 6991W        W25195  15.788   8.688   4.092 -0.0267 -0.0680 -0.1289
 6992W        W25196  18.354   7.240  11.605 -0.0012  0.0833  0.2087
 6993W        W25197  13.212  15.154   3.172 -0.0131 -0.0898 -0.0481
 6994W        W25198  16.229  16.627  12.552  0.0461  0.0095 -0.0597
 6995W        W25199  15.289   4.575   3.076  0.2290  0.0394  0.0175
 6996W        W25200   7.390   5.878  11.422  0.0297 -0.3279 -0.0742
 6997W        W25201  14.422  12.594  11.246 -0.0394 -0.0122 -0.1825
 6998W        W25202   1.336  11.733   1.539 -0.2649 -0.4992  0.1446
 6999W        W25203   4.403   1.672   0.721 -0.1773 -0.1420 -0.1962
 7000W        W25204   5.816   5.960   1.604 -0.0305 -0.1493  0.1471
 7001W        W25205  15.519   2.703   4.506 -0.0664 -0.3396 -0.0877
 7002W        W25206   9.990   4.962  13.705  0.0487 -0.1059  0.2054
 7003W        W25207  17.256  14.682  14.169 -0.1031 -0.2852 -0.1897
 7004W        W25208   3.644  11.789  14.846  0.0215 -0.0138  0.1311
 7005W        W25209  12.125  11.423   1.640 -0.0045  0.3040  0.0058
 7006W        W25210  13.840  14.068  14.002  0.3270  0.3341  0.0489
 7007W        W25211   6.676   2.117   2.306  0.1128  0.2189 -0.1608
 7008W        W25212  12.796   7.659  12.378  0.1748  0.1035 -0.2311
 7009W        W25213   8.974  18.335  13.256  0.3873 -0.2240  0.1508
 7010W        W25214  14.110   0.845  10.503  0.0084  0.0744 -0.0527
 7011W        W25215   5.318  12.579   0.611 -0.1978 -0.0367  0.1628
 7012W        W25216   4.536   9.977  12.738  0.0594 -0.0698 -0.2236
 7013W        W25217  11.208  11.569  13.586  0.0943 -0.0583 -0.0941
 7014W        W25218   4.547   8.181  15.373 -0.1333  0.0643  0.1447
 7015W        W25219   7.182  17.444  14.269 -0.3333  0.2095  0.0520
 7016W        W25220  12.005  10.494   0.440 -0.0992 -0.1229  0.5026
 7017W        W25221  18.422   5.225  11.096  0.0940  0.3697  0.1680
 7018W        W25222   3.883   0.449  10.424 -0.0054  0.1491  0.0979
 7019W        W25223   2.651  12.356   2.315 -0.1072  0.1230 -0.0813
 7020W        W25224   7.039  10.824  11.292  0.2711 -0.0849 -0.0614
 7021W        W25225   6.179   6.159  13.301  0.2891  0.1011  0.0408
 7022W        W25226  18.456  10.671   1.917 -0.0391 -0.0002 -0.1514
 7023W        W25227   3.984   7.625   1.493  0.0411  0.0380  0.0451
 7024W        W25228   5.793  17.872  10.900 -0.1718 -0.1019 -0.2344
 7025W        W25229  16.308  16.864  14.034  0.0693 -0.1355  0.2457
 7026W        W25230   1.969  14.501   5.471  0.0199 -0.0147  0.1525
 7027W        W25231   5.599  13.050   0.974  0.0191 -0.1955  0.0190
 7028W        W25232   6.899   4.846  14.737  0.0152 -0.2631 -0.2338
 7029W        W25233  12.380   5.715  15.273 -0.0485  0.1814 -0.2827
 7030W        W25234  15.065   6.651   1.321 -0.0035 -0.1431 -0.0110
 7031W        W25235   4.967  15.211  14.659 -0.0530 -0.1720  0.2191
 7032W        W25236  12.251   7.349   4.325  0.2854  0.1708 -0.1408
 7033W        W25237  17.341  14.585   3.602  0.1787  0.0035 -0.0515
 7034W        W25238   9.780  11.702  13.492  0.1537  0.1709  0.0199
 7035W        W25239   3.300   1.583  10.653 -0.2709 -0.1394 -0.5199
 7036W        W25240   2.632   4.510  10.921 -0.2927 -0.0024  0.0958
 7037W        W25241  13.563   9.256  11.324  0.0511  0.2257 -0.1381
 7038W        W25242   0.458   3.024   2.342 -0.1754  0.1442  0.4083
 7039W        W25243   7.596   4.620  13.547  0.0814 -0.4121  0.2339
 7040W        W25244  17.413   3.950   3.749 -0.1693  0.3166  0.2809
 7041W        W25245   9.669   6.333  13.654 -0.1743  0.0038  0.1930
 7042W        W25246  17.944   9.627  13.165 -0.0701 -0.0485  0.1114
 7043W        W25247   8.228   5.295  12.607 -0.1584 -0.0734 -0.0666
 7044W        W25248   5.547  13.799  14.544 -0.1128 -0.2124  0.1973
 7045W        W25249   1.167   3.843  10.428 -0.1395  0.1637  0.0045
 7046W        W25250  16.567   4.009  12.282 -0.1251  0.2368  0.0045
 7047W        W25251  10.509  16.382  11.065  0.2880  0.0884 -0.1027
 7048W        W25252   5.698  10.486   2.935 -0.2430 -0.0574  0.0074
 7049W        W25253   3.324  13.938  11.460  0.2520 -0.2082  0.3077
 7050W        W25254   7.923  13.984  11.380 -0.2706 -0.0905  0.0824
 7051W        W25255   3.075  18.379   2.815  0.0857  0.2075  0.1203
 7052W        W25256   5.852  15.939   0.945  0.1780  0.0979 -0.0537
 7053W        W25257  12.800   9.520  13.979 -0.1805  0.2035 -0.0474
 7054W        W25258   2.662  13.693   3.966  0.0608  0.1304  0.3508
 7055W        W25259   8.217   6.235  14.395 -0.0621 -0.0918 -0.1378
 7056W        W25260   9.908  15.746  12.769  0.0814  0.1854 -0.3717
 7057W        W25261   2.437   9.074  13.822 -0.0152  0.1437  0.0519
 7058W        W25262   5.625  12.117   5.206 -0.1055 -0.2762 -0.1699
 7059W        W25263  18.332  11.475  14.490  0.1706  0.0045 -0.0906
 7060W        W25264  17.733   1.921  14.987  0.0835 -0.2119 -0.3312
 7061W        W25265  16.003   7.648   3.754  0.0759 -0.2247 -0.1081
 7062W        W25266  15.204  15.916  13.525 -0.1463  0.1825 -0.2541
 7063W        W25267  11.214   7.822   3.853 -0.0274  0.0842  0.1133
 7064W        W25268  17.876   0.648  13.862 -0.0084  0.0269 -0.1105
 7065W        W25269   5.234  15.937   0.149 -0.2554 -0.2360 -0.1588
 7066W        W25270  12.280  13.776  14.400  0.2448  0.3427  0.2333
 7067W        W25271   4.664   5.735   3.755 -0.0733  0.0752 -0.0525
 7068W        W25272  10.401   4.040   2.091  0.2657  0.0648  0.0154
 7069W        W25273   6.974  16.537  10.632 -0.0236 -0.0170 -0.1242
 7070W        W25274  17.310   0.152   0.669 -0.0522 -0.0268 -0.0254
 7071W        W25275  16.426  18.264   5.602  0.4374 -0.2775 -0.0968
 7072W        W25276   7.351   7.794   4.632 -0.2046  0.0157  0.1125
 7073W        W25277  13.815  10.329   4.575 -0.0069  0.3794  0.0196
 7074W        W25278  11.270   4.962  10.509  0.0393  0.2174 -0.0053
 7075W        W25279   7.060  13.563   3.697  0.0882  0.0412  0.0289
 7076W        W25280  12.362   5.175  13.272 -0.0312  0.2213 -0.0637
 7077W        W25281   3.504  13.419   3.964 -0.0637  0.2412  0.2867
 7078W        W25282  13.954   4.660   3.467 -0.0494 -0.0701  0.0070
 7079W        W25283   9.429   3.320  11.962 -0.6219  0.0387  0.4929
 7080W        W25284   9.377   2.055   1.212  0.0997 -0.0356 -0.1360
 7081W        W25285  17.089   4.769   2.415  0.1141 -0.1269 -0.2072
 7082W        W25286   9.467   1.060  15.282 -0.0457 -0.2850  0.0454
 7083W        W25287  14.073  14.943  14.104  0.1918  0.3139 -0.0446
 7084W        W25288  14.740  16.268   3.562 -0.0499 -0.1537  0.0133
 7085W        W25289  13.068   7.352   2.943  0.0278 -0.1271 -0.2557
 7086W        W25290   4.127   6.343  12.590  0.2064 -0.1992  0.1585
 7087W        W25291   3.835  12.969   4.610 -0.0106 -0.0707 -0.0204
 7088W        W25292   2.215   3.043   3.083  0.3314 -0.2146 -0.0352
 7089W        W25293  18.392   0.665   2.193  0.0681 -0.1137  0.1310
 7090W        W25294  14.696   2.980   0.903 -0.0850  0.1617  0.0902
 7091W        W25295   3.454   2.519   2.688 -0.2671  0.0037  0.3673
 7092W        W25296  18.014  15.414   0.282 -0.0561  0.1564 -0.2032
 7093W        W25297  12.805   1.630   0.036  0.1391  0.1632  0.2448
 7094W        W25298  14.794   8.080   4.873 -0.1523  0.2671  0.0289
 7095W        W25299  15.332   0.838   4.167  0.2281 -0.0028  0.4979
 7096W        W25300   2.659   6.420   4.458 -0.0520  0.2585  0.0955
 7097W        W25301   2.588  16.841  11.343 -0.3206  0.2414  0.0894
 7098W        W25302   0.753   6.691  13.006  0.1090  0.2279  0.2351
 7099W        W25303  14.531   9.138  14.286  0.1422  0.3011  0.0261
 7100W        W25304  17.041   6.875   2.422  0.0137 -0.3585  0.3203
 7101W        W25305  14.265  15.407   4.434  0.4100 -0.3971 -0.0051
 7102W        W25306   8.084  14.398   2.443  0.0552 -0.0745 -0.0395
 7103W        W25307  14.381   1.069  12.470  0.1495 -0.1650  0.1767
 7104W        W25308   3.389   8.588   3.337  0.1405 -0.1063 -0.0387
 7105W        W25309  16.821  12.035  12.120 -0.1323  0.1814  0.2254
 7106W        W25310  18.548  16.994  13.951 -0.0350  0.1941 -0.2045
 7107W        W25311  10.789   9.248   0.396 -0.4591 -0.1181  0.1636
 7108W        W25312   3.650   6.982   3.981  0.1023  0.0590 -0.2039
 7109W        W25313   9.790   7.268  10.522  0.0390 -0.0527  0.3982
 7110W        W25314   3.034  13.086   1.520  0.1150  0.1976  0.1265
 7111W        W25315   2.845   1.114   3.638 -0.0181 -0.0046 -0.0480
 7112W        W25316   8.541  11.300   3.342  0.2395  0.0508  0.0961
 7113W        W25317   2.918   2.191  12.628  0.1792 -0.0748 -0.0645
 7114W        W25318  17.088   1.234   0.708  0.0271  0.0446  0.3139
 7115W        W25319  11.360   7.548  15.468 -0.0685  0.0315  0.0460
 7116W        W25320   3.300   9.558   0.293  0.0533  0.0243 -0.0564
 7117W        W25321  11.908   2.608   4.354  0.1706 -0.1596  0.2125
 7118W        W25322  11.574  16.016   0.264  0.3526  0.0563  0.1198
 7119W        W25323   1.831  13.143  14.310 -0.3770  0.0922  0.2001
 7120W        W25324  17.775   9.530  13.730 -0.1574 -0.0508  0.4191
 7121W        W25325   1.139  11.425  13.686 -0.0144  0.3709  0.0190
 7122W        W25326  15.700   2.627  12.886 -0.1182  0.2230 -0.1790
 7123W        W25327   3.357  15.803  12.044 -0.1295 -0.0833 -0.0814
 7124W        W25328  13.688  16.421   2.738  0.2677  0.3995 -0.0031
 7125W        W25329  15.641  17.637  12.533  0.0200 -0.2874  0.1540
 7126W        W25330   5.228  13.170  12.902  0.1687 -0.1376 -0.3799
 7127W        W25331  13.575  10.682  13.026  0.0647  0.2667  0.0046
 7128W        W25332   7.667  12.723   3.872  0.1049  0.0622 -0.0502
 7129W        W25333  10.938   3.452  13.184  0.1145  0.1155  0.0920
 7130W        W25334  13.174  18.374  11.531  0.1670  0.2233 -0.0447
 7131W        W25335  16.409  18.333  11.722  0.0615  0.0835 -0.1620
 7132W        W25336  12.899   5.856  14.486 -0.2103 -0.1654  0.2648
 7133W        W25337   3.747  14.866   5.004  0.2259 -0.0519  0.1841
 7134W        W25338   5.915   8.421  14.715 -0.0151 -0.3880 -0.1759
 7135W        W25339   1.934   3.813  14.356 -0.1515  0.0797 -0.1185
 7136W        W25340   8.254  16.107   0.847 -0.5806  0.0095 -0.1014
 7137W        W25341   8.872   4.602  12.503  0.2733 -0.0276  0.0932
 7138W        W25342  10.346   6.311   0.924  0.0427 -0.0672 -0.0273
 7139W        W25343   3.928   8.799  12.889 -0.0228 -0.1751  0.3514
 7140W        W25344  14.077   8.927  11.403  0.0644 -0.3604  0.0512
 7141W        W25345   9.492   9.035  14.194 -0.0651  0.1227  0.0829
 7142W        W25346   3.693  11.962  13.887  0.0797 -0.2851  0.0529
 7143W        W25347  14.659   2.982   4.638  0.0842 -0.0112 -0.2901
 7144W        W25348   3.172   6.298  12.761 -0.0466  0.0077 -0.1954
 7145W        W25349   6.867   2.391  13.667 -0.1119  0.0104  0.1826
 7146W        W25350   2.844  14.264  14.579 -0.0626 -0.0351  0.0049
 7147W        W25351   3.020   9.757   2.215 -0.0394  0.1162  0.1486
 7148W        W25352  12.854  16.565   1.927 -0.0152 -0.0926  0.2610
 7149W        W25353  13.709   2.540  14.388  0.2361  0.5637 -0.0592
 7150W        W25354   0.603   7.611  13.187  0.2686 -0.0298  0.2516
 7151W        W25355  11.647   0.246  11.021  0.0309 -0.1450  0.0387
 7152W        W25356  11.648  12.972   4.015  0.1609 -0.3275 -0.1462
 7153W        W25357   9.518  13.079   4.007 -0.1302  0.0177 -0.1871
 7154W        W25358   5.830  10.718   1.002 -0.1213 -0.0370  0.1140
 7155W        W25359   0.297   7.468   1.153  0.0733  0.1429 -0.1150
 7156W        W25360   1.686  12.825  11.895 -0.0603  0.0835 -0.1572
 7157W        W25361   3.094   5.177  13.657 -0.2294  0.0734 -0.1469
 7158W        W25362  16.791   4.708  13.197 -0.2212  0.0877  0.0113
 7159W        W25363  16.036   2.888   3.606  0.0595 -0.0102 -0.2377
 7160W        W25364   9.742   9.244  10.648 -0.3976 -0.0883  0.0548
 7161W        W25365   6.469   5.887  14.555  0.3043 -0.0351 -0.0761
 7162W        W25366   4.928  17.398  10.763 -0.0175 -0.3214 -0.0118
 7163W        W25367   9.901   4.243  14.855 -0.2206 -0.0136 -0.0377
 7164W        W25368   0.314   6.324   2.959 -0.2862  0.2419 -0.0044
 7165W        W25369   4.053  12.233   3.105 -0.0463 -0.0192 -0.0267
 7166W        W25370  10.335   5.103   0.474 -0.1540  0.0227 -0.1313
 7167W        W25371  14.944  15.333  14.018  0.1339 -0.1484 -0.0932
 7168W        W25372   3.501  16.482  11.117 -0.2474  0.2185 -0.2818
 7169W        W25373   0.194   8.473  12.281  0.0111 -0.4953 -0.0948
 7170W        W25374   9.275   1.787  13.888  0.1692  0.1494 -0.1294
 7171W        W25375  15.501  12.388  15.115 -0.3153  0.0321 -0.1873
 7172W        W25376   0.940   7.344   0.838  0.0697  0.0670 -0.2990
 7173W        W25377   5.420   9.154  10.657  0.1636 -0.0509 -0.2792
 7174W        W25378   0.654   4.334   2.221 -0.1450 -0.0122 -0.0281
 7175W        W25379  10.373  10.677   2.186  0.2288 -0.0966 -0.1117
 7176W        W25380  17.764  11.502   1.195  0.1682  0.0092  0.3147
 7177W        W25381   8.009   0.251  14.823  0.2001 -0.0972 -0.2735
 7178W        W25382  17.443   8.806  14.492  0.2202  0.2169 -0.0061
 7179W        W25383  13.126  12.356  11.783 -0.0079 -0.1370 -0.2104
 7180W        W25384   0.429  12.501  11.401  0.0037 -0.2559  0.2650
 7181W        W25385   1.527   7.628   3.569  0.0540  0.0722  0.0202
 7182W        W25386  16.938  13.765  14.713  0.0979 -0.0226 -0.1038
 7183W        W25387   3.789  14.225   0.092  0.0177  0.1743  0.5066
 7184W        W25388  16.287  16.998  14.477 -0.1099  0.0190  0.0553
 7185W        W25389  11.334   5.398  12.562 -0.1474  0.0381 -0.1469
 7186W        W25390   9.123  15.704  13.824 -0.1915 -0.1750 -0.1686
 7187W        W25391   0.411   8.768   0.677  0.0068 -0.2192  0.0757
 7188W        W25392   1.725   3.375   3.193  0.2104 -0.1550  0.1382
 7189W        W25393   1.410   5.526  11.503  0.0330 -0.0526  0.1422
 7190W        W25394  10.438  11.704  14.000 -0.0551  0.0354 -0.1706
 7191W        W25395   3.526  18.373  13.909 -0.1409  0.0434  0.0645
 7192W        W25396   2.331   3.799  12.809 -0.2774 -0.0748  0.1516
 7193W        W25397   4.122   0.002   4.344  0.0476  0.0480  0.0432
 7194W        W25398  16.603   0.345   1.127 -0.0931  0.0492 -0.0785
 7195W        W25399   8.474   8.293   3.465 -0.2016 -0.1801  0.6360
 7196W        W25400  14.776   4.067   1.642  0.0978  0.0533 -0.1062
 7197W        W25401  17.689   8.141  12.236 -0.0232 -0.1069 -0.0853
 7198W        W25402   9.590  15.652   0.956 -0.0649 -0.0212 -0.0048
 7199W        W25403  15.411   1.987   0.083  0.0948 -0.2735  0.0789
 7200W        W25404  13.436  10.186  10.793 -0.1425 -0.3703  0.2012
 7201W        W25405   6.741  13.914  14.723 -0.0467  0.1640 -0.1212
 7202W        W25406   0.634   8.810  14.267  0.1436  0.2083  0.0694
 7203W        W25407  16.148   0.091   0.367  0.3692  0.1765 -0.2105
 7204W        W25408  12.131   5.569  14.094 -0.1395 -0.0647  0.1342
 7205W        W25409  16.438  15.114  13.705 -0.0871 -0.3942  0.1047
 7206W        W25410   0.334   6.742  12.060  0.1149 -0.0130  0.0421
 7207W        W25411   0.532  17.472   1.055  0.1503 -0.0071  0.0032
 7208W        W25412   6.277  14.192  14.960 -0.3423  0.1227 -0.0403
 7209W        W25413   4.361   0.481  14.783 -0.0209  0.0069  0.1653
 7210W        W25414   2.797   4.319   2.429  0.2263  0.1024 -0.1365
 7211W        W25415  16.549  14.101  13.161 -0.0493 -0.3166 -0.1826
 7212W        W25416   4.933   4.181  12.549  0.0065 -0.0002 -0.1565
 7213W        W25417   5.585   3.114   1.158 -0.1369 -0.1007  0.2662
 7214W        W25418   2.110  11.136  14.689 -0.1087  0.1329 -0.1577
 7215W        W25419  17.554   0.425  12.685  0.1273 -0.0369  0.1672
 7216W        W25420  12.501   9.765  15.006 -0.1269  0.0854  0.0542
 7217W        W25421  12.953  17.433  11.984 -0.0496  0.0206 -0.0579
 7218W        W25422  14.241   0.721   3.776  0.0799  0.0123 -0.0391
 7219W        W25423   6.178   9.874   2.726  0.0311  0.2250  0.3130
 7220W        W25424  12.117  10.807  13.507 -0.0142  0.2363  0.0721
 7221W        W25425  17.716   3.426  11.647  0.0383 -0.3660  0.0784
 7222W        W25426   1.895   7.970  14.407 -0.1685  0.2336  0.1491
 7223W        W25427   9.579  10.291  10.598  0.0978  0.1715 -0.2254
 7224W        W25428   7.820  12.162   3.870 -0.1199  0.2033 -0.0101
 7225W        W25429  14.143  10.737   0.323 -0.0906  0.0329 -0.0378
 7226W        W25430   0.475   1.678   3.723 -0.0230  0.1618  0.0667
 7227W        W25431   4.589   6.967  14.138  0.1525 -0.3380  0.1693
 7228W        W25432  18.147  16.761  13.144 -0.3720  0.2378 -0.0881
 7229W        W25433   8.235   5.879  12.394 -0.0749 -0.3197 -0.1976
 7230W        W25434   5.760   4.480   3.166 -0.2176  0.2965  0.0172
 7231W        W25435   7.626  11.360   3.288  0.0814  0.0171 -0.1217
 7232W        W25436  10.969  10.261   4.090  0.2477  0.1080 -0.2945
 7233W        W25437  15.606   4.863  14.482 -0.1816 -0.0513  0.1084
 7234W        W25438   4.917   7.450  12.872  0.2303  0.0556 -0.1332
 7235W        W25439  15.592  12.085  10.715  0.2603  0.1942 -0.0265
 7236W        W25440   4.153  15.174  13.656 -0.1560 -0.0589  0.1806
 7237W        W25441  10.415  16.820  12.937 -0.0251 -0.2478 -0.1853
 7238W        W25442  15.686  17.316   2.076 -0.2284 -0.1387 -0.0536
 7239W        W25443  16.879  18.280   1.602 -0.0662 -0.4293  0.1199
 7240W        W25444  10.579  11.701  11.963  0.0718 -0.0054 -0.4851
 7241W        W25445  16.138  10.131   2.031 -0.1839 -0.0557  0.1033
 7242W        W25446  14.607  15.661  12.611  0.1313  0.0109  0.1769
 7243W        W25447  12.185  17.369  11.569 -0.3194  0.0258 -0.0840
 7244W        W25448  10.169   8.647   0.360  0.2231  0.1916 -0.0015
 7245W        W25449   4.825   8.912  15.389 -0.3281 -0.1778 -0.0621
 7246W        W25450   2.838  12.589   1.657 -0.1299 -0.0418  0.0786
 7247W        W25451  10.247   5.128  12.683  0.0737  0.0505 -0.0216
 7248W        W25452  15.173   1.549   4.164 -0.1638 -0.0077 -0.2181
 7249W        W25453   1.353   7.797   3.075  0.0890  0.0917  0.3649
 7250W        W25454  15.594   7.385   2.956  0.1126 -0.2794  0.2614
 7251W        W25455  14.025  13.879  11.930 -0.1544 -0.1639 -0.0703
 7252W        W25456  15.867  18.015   2.808 -0.0301 -0.4028 -0.1818
 7253W        W25457   5.222   3.384   4.025 -0.3107  0.0722  0.1646
 7254W        W25458   1.649   3.763   2.784  0.2828  0.1117  0.0614
 7255W        W25459  17.340  12.940  13.106  0.3218 -0.0359 -0.3775
 7256W        W25460  18.291   0.192   2.040  0.0379  0.1186  0.1924
 7257W        W25461  10.011  11.718   2.136  0.0157 -0.1513 -0.4040
 7258W        W25462   3.635   4.816   0.457  0.1606  0.3023  0.0946
 7259W        W25463   6.290  18.168  14.596 -0.1971  0.3608 -0.0716
 7260W        W25464  10.288   3.510  14.172  0.0911  0.2135 -0.0325
 7261W        W25465  12.763  14.526  11.018  0.3348  0.1239 -0.2311
 7262W        W25466   5.176   8.681   4.766 -0.1284  0.0459 -0.1558
 7263W        W25467  14.070  12.737   2.586 -0.0101  0.0940 -0.1868
 7264W        W25468   0.771   3.194  11.820 -0.0193 -0.0308  0.1309
 7265W        W25469  18.243   0.819  13.016  0.0370 -0.1070 -0.1476
 7266W        W25470   5.101  11.728   2.891  0.0109 -0.1089 -0.2978
 7267W        W25471  18.540   4.490   2.455 -0.0404  0.2139  0.1588
 7268W        W25472  15.173   8.416   6.135  0.4983 -0.0214  0.2157
 7269W        W25473   4.993  15.464  14.129  0.1227  0.1146  0.2816
 7270W        W25474   6.654  14.239   0.575  0.0442 -0.0557  0.0778
 7271W        W25475  13.293  14.854  13.648 -0.0513  0.3363  0.1483
 7272W        W25476   7.976  16.432  12.646  0.1930 -0.0693 -0.1900
 7273W        W25477  12.872   6.651  11.562 -0.3256 -0.1098 -0.0193
 7274W        W25478  16.877   2.549  11.161 -0.0690  0.0910  0.1601
 7275W        W25479   8.390   9.688   2.965 -0.1108  0.1645  0.1447
 7276W        W25480  17.751  17.130   4.994 -0.0034  0.2024 -0.2788
 7277W        W25481  16.190   8.152   2.421 -0.0469  0.1495 -0.1772
 7278W        W25482   5.714   3.707  12.622 -0.1392 -0.1058  0.0224
 7279W        W25483  11.107  10.306   3.261 -0.0184 -0.0962  0.1732
 7280W        W25484   9.316  18.593   3.890  0.2833  0.2478 -0.0480
 7281W        W25485   2.143   9.960  11.235 -0.1600  0.2065 -0.1890
 7282W        W25486   5.981  18.171  11.913  0.1763 -0.2641 -0.2971
 7283W        W25487   5.537   8.185   3.513  0.1083  0.0962 -0.0672
 7284W        W25488   0.569  16.497   2.375  0.1381 -0.2205  0.0828
 7285W        W25489  11.730   8.353   1.645  0.3469  0.1279  0.3003
 7286W        W25490  10.776  16.308  11.999  0.0519 -0.0326  0.4583
 7287W        W25491   7.090  13.944  13.837 -0.0756 -0.0038  0.3123
 7288W        W25492  10.156   6.724  12.899  0.0512 -0.0329  0.2763
 7289W        W25493  12.921  11.310  13.376  0.1443 -0.0557  0.0208
 7290W        W25494  10.737  15.345  15.014  0.1392  0.1194  0.1011
 7291W        W25495   4.470  12.111   9.786 -0.0738 -0.2312  0.0331
 7292W        W25496  13.009   5.936   1.849 -0.1610 -0.1628 -0.0668
 7293W        W25497  16.942  12.025  12.724  0.1271  0.1493  0.1335
 7294W        W25498   6.563   8.249  12.471  0.3088 -0.2806 -0.0338
 7295W        W25499   4.015  14.668  13.226 -0.0669 -0.0866  0.2618
 7296W        W25500   7.830   4.724   3.334 -0.2113  0.1723  0.0830
 7297W        W25501   5.469   0.065  11.088 -0.0067  0.0519 -0.2170
 7298W        W25502   8.019   1.913  11.187  0.1547  0.0518 -0.0709
 7299W        W25503  12.541  10.180  15.243  0.1798  0.0745  0.1979
 7300W        W25504   7.163   5.305  13.368  0.5279 -0.0849 -0.1059
 7301W        W25505  12.697   0.614  10.411 -0.0145  0.0012 -0.0623
 7302W        W25506   1.797  10.981   1.840 -0.1889  0.1629  0.0784
 7303W        W25507  14.195  14.559   1.957  0.1433 -0.1195  0.3725
 7304W        W25508  12.747  17.877  12.727  0.3990  0.2111 -0.2422
 7305W        W25509  11.610   2.466   1.539  0.2533 -0.0652  0.1865
 7306W        W25510   9.197   9.964  13.478 -0.0136 -0.0220 -0.2037
 7307W        W25511   3.049  17.691   0.547  0.1531  0.0887 -0.1984
 7308W        W25512   7.596   6.656  14.887 -0.0163 -0.2883  0.0258
 7309W        W25513  11.357  15.073   3.965  0.1636  0.1126  0.2627
 7310W        W25514  14.213   0.879   2.146 -0.0527 -0.2215  0.1908
 7311W        W25515   7.137   7.978  12.304 -0.0790  0.0066 -0.3069
 7312W        W25516   7.362   2.897  13.725 -0.3209  0.1380  0.0007
 7313W        W25517  17.394   6.704   3.308  0.2355  0.0154  0.2476
 7314W        W25518  14.415  13.829   0.989 -0.0212 -0.0039  0.1957
 7315W        W25519   1.762   1.855   4.280  0.2213  0.0262 -0.1490
 7316W        W25520  10.946  16.372   2.167  0.1644 -0.0769 -0.1152
 7317W        W25521   7.285  15.275   0.644 -0.4580 -0.1317  0.1533
 7318W        W25522   1.036   6.168   0.186  0.0751  0.2442 -0.1898
 7319W        W25523  16.464  12.789   0.253  0.2008 -0.1201 -0.1993
 7320W        W25524   9.736   2.031  13.072 -0.1672  0.0084 -0.0236
 7321W        W25525   3.825   6.494   1.342  0.2759  0.0453 -0.0667
 7322W        W25526   7.492   6.092   2.653  0.2765  0.0522 -0.1628
 7323W        W25527   4.757   8.083   2.820 -0.0526  0.1796 -0.2278
 7324W        W25528  17.791   4.501   3.050  0.0428 -0.0953  0.2540
 7325W        W25529   2.681   7.825   2.646  0.2975 -0.2194 -0.0435
 7326W        W25530   0.465   5.800  14.810  0.2993  0.1977 -0.0828
 7327W        W25531  10.347   3.125   2.600  0.0060 -0.2979 -0.2552
 7328W        W25532  13.889   8.964  13.401  0.1950  0.1542 -0.0235
 7329W        W25533  15.311   4.039  11.008  0.0059 -0.1247  0.3406
 7330W        W25534  12.146   3.861  12.389 -0.1635  0.1776 -0.1207
 7331W        W25535   9.814  17.915  11.657  0.1040 -0.0570 -0.1587
 7332W        W25536  10.126  11.311  14.033 -0.1099 -0.0528 -0.0398
 7333W        W25537   8.602  11.644   1.913  0.0356 -0.2140  0.2707
 7334W        W25538  16.404   9.772   0.459 -0.1843 -0.2324  0.1386
 7335W        W25539   8.730   0.928   1.422 -0.0072 -0.0238  0.0680
 7336W        W25540  11.199   8.871   0.163 -0.0939  0.1627  0.0370
 7337W        W25541   1.624  14.857  13.873  0.1963 -0.3147  0.1313
 7338W        W25542   7.479   4.142  12.698 -0.2501  0.1290  0.0986
 7339W        W25543   5.778   0.880   0.630  0.0175  0.1976 -0.0639
 7340W        W25544   3.222   6.654   0.231  0.2413 -0.2076  0.0770
 7341W        W25545   2.129  14.741  10.781 -0.0113  0.0269  0.0212
 7342W        W25546  17.330   0.584   2.998  0.0040  0.0717 -0.3918
 7343W        W25547  11.075   9.624   2.099 -0.0264 -0.1391  0.0278
 7344W        W25548  14.265  17.268  12.544  0.3556  0.0785 -0.1104
 7345W        W25549   9.672   9.028  15.464 -0.3547  0.1436  0.2257
 7346W        W25550  14.795  15.019  15.332 -0.2590  0.2939 -0.2578
 7347W        W25551  17.941   1.020   2.152  0.2410  0.1677  0.0538
 7348W        W25552   4.980   2.730  15.082  0.2864  0.0415 -0.2981
 7349W        W25553  13.475   5.985   4.555 -0.1293 -0.1647  0.1872
 7350W        W25554  17.463  17.176  13.105 -0.0654 -0.3371  0.0104
 7351W        W25555   4.638   0.032  15.327 -0.1153  0.3123  0.5585
 7352W        W25556  17.350  14.802  12.080  0.2038  0.3365  0.0629
 7353W        W25557   8.786   0.561   3.755  0.0082  0.0146 -0.1017
 7354W        W25558   5.641   4.660  12.032 -0.2875  0.4493  0.1536
 7355W        W25559   4.769  12.767  15.230  0.1149 -0.1034 -0.0089
 7356W        W25560   6.612   0.865   3.899 -0.4154  0.0036  0.3684
 7357W        W25561  10.064  17.539  11.824 -0.0706 -0.1359 -0.2128
 7358W        W25562  18.307  17.643  10.638  0.0474  0.0616  0.0961
 7359W        W25563  14.209  16.094   4.793 -0.0142 -0.0251  0.0093
 7360W        W25564  16.323   0.642  15.139  0.1515 -0.3378 -0.1895
 7361W        W25565  13.096  10.261  15.119 -0.2346 -0.0201 -0.0905
 7362W        W25566   5.026  12.871   1.501  0.0954  0.0913 -0.2298
 7363W        W25567  15.261  14.771  15.396  0.3531 -0.1222 -0.3823
 7364W        W25568   4.620   2.620   1.363 -0.2244 -0.2581 -0.1788
 7365W        W25569  15.699  18.269  14.544 -0.1316 -0.0040 -0.2230
 7366W        W25570  16.014  15.328  12.948 -0.0652 -0.1147 -0.4140
 7367W        W25571  17.601  10.491   0.414 -0.0862 -0.1206  0.1892
 7368W        W25572   6.020  17.216  12.053 -0.0514  0.3093  0.3951
 7369W        W25573  17.811   6.968   0.895  0.1081 -0.0288 -0.1111
 7370W        W25574  14.968   9.261  11.497 -0.2283 -0.2071  0.0691
 7371W        W25575   4.079   1.497   1.099  0.1762 -0.0627 -0.0798
 7372W        W25576   1.099   9.650  13.258  0.2693  0.1345  0.0493
 7373W        W25577  13.857  15.153  15.103  0.0797 -0.1971 -0.4020
 7374W        W25578  12.928  18.687  11.252  0.0049  0.2624  0.1839
 7375W        W25579  15.970   6.095   0.607  0.1651 -0.2238 -0.3323
 7376W        W25580   1.137  15.661  13.498 -0.2138 -0.1255  0.0839
 7377W        W25581   5.634  15.330  13.165  0.3001  0.0433 -0.0413
 7378W        W25582   7.093   9.999   3.208 -0.0592  0.1271  0.0996
 7379W        W25583  14.676   9.740   3.893 -0.3119 -0.0822 -0.0474
 7380W        W25584  12.322   7.417  13.681  0.2742 -0.0189  0.0621
 7381W        W25585  14.924  17.076  11.307 -0.0845  0.4712 -0.2777
 7382W        W25586   3.859  10.366   1.878  0.2733 -0.1126  0.2555
 7383W        W25587  17.343  12.306  15.002  0.0017 -0.1831 -0.1845
 7384W        W25588  10.240  16.095   5.036 -0.0880 -0.0209  0.0487
 7385W        W25589   7.913   6.626  14.272 -0.4672  0.0405 -0.2310
 7386W        W25590  14.563  12.426   4.535 -0.1279  0.1169  0.1631
 7387W        W25591  14.613  12.663  14.073 -0.0067  0.0202  0.1632
 7388W        W25592   7.463  15.194  11.336  0.0796 -0.2289 -0.0267
 7389W        W25593   6.676   2.661   1.183 -0.0275 -0.0991 -0.1357
 7390W        W25594   3.857  18.532  14.221 -0.2151  0.2325 -0.0424
 7391W        W25595   9.777  17.087   4.900  0.1901  0.4430 -0.0061
 7392W        W25596   0.335   6.598   0.683  0.0497 -0.0997 -0.3035
 7393W        W25597  14.044  14.991   2.134  0.0870 -0.0503  0.4972
 7394W        W25598  12.591   3.375   5.108 -0.2152  0.1343  0.3162
 7395W        W25599   4.646  11.738  11.895 -0.2538  0.0750  0.0080
 7396W        W25600  17.987   4.153   1.033  0.1174  0.0398  0.0096
 7397W        W25601   1.064  12.634   3.157  0.2200  0.0095  0.0715
 7398W        W25602   6.287   3.026  13.429  0.4329 -0.1050 -0.1559
 7399W        W25603   1.075  16.585   0.825 -0.1594  0.3526  0.3661
 7400W        W25604   7.336  13.025  13.914  0.2790  0.0772  0.5061
 7401W        W25605   6.769   3.685   1.035  0.0943 -0.4345 -0.0547
 7402W        W25606  12.779  14.618  13.985 -0.3134  0.0219  0.1201
 7403W        W25607   1.838   7.838   0.661  0.0118 -0.2580 -0.1405
 7404W        W25608   9.368  15.580  15.281 -0.0305  0.1427  0.2586
 7405W        W25609   5.242  10.947  14.487 -0.0760 -0.2020 -0.0615
 7406W        W25610  17.101  17.021  12.802 -0.2819 -0.1082 -0.0522
 7407W        W25611   6.633   2.613  13.216 -0.0993 -0.1470  0.0559
 7408W        W25612  15.190   8.469   1.643  0.0790 -0.0809 -0.0584
 7409W        W25613  14.221   5.683  11.194 -0.3268  0.1909  0.1407
 7410W        W25614   2.080   4.185  15.296 -0.0108 -0.0361  0.1477
 7411W        W25615   4.702   3.925  14.314 -0.3465  0.1171  0.1165
 7412W        W25616  18.424  14.413  13.169 -0.0653 -0.0093 -0.1396
 7413W        W25617   0.517  10.149   3.512 -0.2352  0.2808  0.0505
 7414W        W25618   8.827   4.653  11.520 -0.0559 -0.1771 -0.3249
 7415W        W25619   0.109  17.730   2.965  0.2622  0.3381  0.1811
 7416W        W25620   5.256  12.304   3.513 -0.0793  0.0759 -0.1449
 7417W        W25621   5.719  18.524  14.309 -0.0837  0.2526 -0.1703
 7418W        W25622  18.184   7.054  11.172 -0.0698  0.2123  0.0306
 7419W        W25623   6.818  12.986   1.366  0.1414 -0.2115  0.2071
 7420W        W25624   7.447   1.999   1.076  0.0795 -0.0912 -0.2058
 7421W        W25625  12.431   5.729  14.499  0.1044  0.0962 -0.1378
 7422W        W25626   8.464   0.885   3.522  0.0283 -0.1724  0.2568
 7423W        W25627  15.965   6.028   3.056  0.0966  0.4252 -0.2294
 7424W        W25628  11.508   4.945  13.955 -0.3718 -0.2008  0.0189
 7425W        W25629  16.626  10.558   1.138 -0.0927  0.0695 -0.1251
 7426W        W25630   8.756   9.596  11.584  0.1432  0.1198  0.0288
 7427W        W25631  12.677   8.878   3.406  0.0437  0.3106 -0.1370
 7428W        W25632   7.378   2.709  12.181 -0.1817  0.0290 -0.0491
 7429W        W25633   3.910  15.959  12.226  0.1115  0.0098  0.1284
 7430W        W25634   6.789   1.712   3.723 -0.0713 -0.2390 -0.1421
 7431W        W25635   0.851  13.914  11.811 -0.0484  0.0316  0.1763
 7432W        W25636   9.030  14.595  12.621 -0.1519 -0.3006  0.3985
 7433W        W25637   4.408  12.464  12.613 -0.3189  0.0241  0.0190
 7434W        W25638   3.512   3.067   0.941  0.1481  0.0654  0.2123
 7435W        W25639   1.281   2.750  14.868 -0.1413 -0.0109  0.2520
 7436W        W25640  14.076   7.033   1.950  0.1304  0.2141  0.0989
 7437W        W25641   8.133   3.831  13.922 -0.0724  0.1075  0.0145
 7438W        W25642  11.051   8.272  14.339  0.0858  0.1939 -0.0335
 7439W        W25643   7.641  10.856   0.482 -0.1312  0.0303  0.0518
 7440W        W25644  11.328  16.174   3.619 -0.0849 -0.0557 -0.1570
 7441W        W25645   6.438   5.804  15.103 -0.1199  0.4075 -0.1773
 7442W        W25646  16.284  15.439   0.240 -0.0356  0.2160 -0.0072
 7443W        W25647  15.021   8.166   0.007 -0.1393 -0.2004  0.3408
 7444W        W25648  13.971   0.375   2.282  0.4210  0.0519 -0.3627
 7445W        W25649   1.603   3.272   2.629  0.3315 -0.2280  0.3039
 7446W        W25650  11.055   4.068  10.824 -0.1579 -0.0483  0.2118
 7447W        W25651   2.575   3.069  12.943 -0.1572  0.0504  0.0107
 7448W        W25652   9.239  15.460  14.292  0.3511 -0.0845  0.0122
 7449W        W25653   2.855   2.390   0.232  0.0973 -0.1631 -0.0576
 7450W        W25654  17.547  11.069   0.448 -0.0703 -0.1018 -0.3078
 7451W        W25655  15.505   1.453   0.321  0.0939  0.0444  0.2006
 7452W        W25656   1.981   6.975  12.687 -0.2007  0.0295  0.0796
 7453W        W25657   4.350   6.579   3.240  0.0010  0.2167  0.0409
 7454W        W25658  17.243  13.466   4.219 -0.3444 -0.1160  0.1373
 7455W        W25659   3.756   3.460  12.258 -0.1215  0.1351 -0.2654
 7456W        W25660   7.742  13.488   1.214  0.0267 -0.4197  0.0648
 7457W        W25661   1.365  17.168  14.210  0.2419  0.1382  0.1622
 7458W        W25662   8.127  13.032  10.871 -0.2671  0.1440 -0.1020
 7459W        W25663  16.661  12.326  13.390 -0.0227 -0.1428 -0.1652
 7460W        W25664  16.110   1.705  13.923 -0.1998  0.0376 -0.0421
 7461W        W25665  15.755   4.013  14.981 -0.2158  0.2193  0.2579
 7462W        W25666   6.905   6.865   3.343  0.3147 -0.0403 -0.1546
 7463W        W25667   5.912  18.358  10.801  0.1522  0.1240 -0.0342
 7464W        W25668   0.661   1.967   0.714  0.0466  0.0560 -0.0069
 7465W        W25669  10.942   3.698   4.312  0.0279  0.3322 -0.1522
 7466W        W25670  14.074  15.142   0.548  0.1934 -0.2168 -0.2781
 7467W        W25671  10.115   4.171  13.250  0.0442  0.1740 -0.3794
 7468W        W25672  14.345  18.408  14.540 -0.0624  0.1038 -0.2083
 7469W        W25673  17.556   5.717   1.364  0.0955 -0.2377 -0.1350
 7470W        W25674  16.083   7.724   4.799 -0.1992 -0.2320  0.0245
 7471W        W25675  16.868   8.613  12.952  0.1278 -0.1649  0.1670
 7472W        W25676   8.655   8.052   2.749  0.1955 -0.0736  0.1817
 7473W        W25677   1.144  10.439  13.423  0.3396  0.1254 -0.1758
 7474W        W25678   9.449  11.550  11.794  0.0711  0.2008  0.4030
 7475W        W25679  17.262   8.144   0.528  0.0560 -0.1759  0.1337
 7476W        W25680   4.750   0.041  11.068  0.0341 -0.3897  0.3588
 7477W        W25681  18.555   0.370  11.485 -0.2091 -0.0027  0.2771
 7478W        W25682   5.312   2.808  11.330 -0.1582 -0.0978  0.0575
 7479W        W25683  12.095   7.886  13.619  0.3129  0.2007  0.2622
 7480W        W25684  15.905   6.468  15.142 -0.0197  0.0475  0.2604
 7481W        W25685   7.196   0.190  13.226 -0.0306 -0.1044  0.0300
 7482W        W25686  13.424   4.997  13.048 -0.1370  0.1490  0.1461
 7483W        W25687  18.198   5.408  14.509  0.0442  0.4689 -0.0393
 7484W        W25688   0.102   3.475   0.865 -0.0923  0.1532  0.1897
 7485W        W25689  15.350  18.228   4.348 -0.1385  0.1753 -0.1281
 7486W        W25690  15.095   1.861   0.519  0.2542  0.2360  0.1530
 7487W        W25691   2.149   1.530   4.124  0.2838 -0.2843 -0.2707
 7488W        W25692   4.218   4.485  13.835 -0.4698  0.2822 -0.0367
 7489W        W25693  12.832  10.949   3.990  0.0323 -0.1384  0.1205
 7490W        W25694  15.182   0.182  13.112  0.0857  0.0246 -0.0152
 7491W        W25695  12.942  16.929   1.490  0.3901 -0.2643 -0.1549
 7492W        W25696   0.426  17.015   0.673  0.1065 -0.1344 -0.2186
 7493W        W25697  15.424   1.425   1.835 -0.0677 -0.2622 -0.0787
 7494W        W25698   3.695  15.216  13.956 -0.0819 -0.0171  0.3703
 7495W        W25699  10.258  17.211  13.147 -0.0311 -0.1206  0.1620
 7496W        W25700  10.743   5.804  11.930  0.2500 -0.1671  0.0488
 7497W        W25701  11.344  15.783  10.915 -0.0387  0.0796 -0.3921
 7498W        W25702  14.294   9.862   1.740  0.0726 -0.1940 -0.2044
 7499W        W25703  11.072  18.282  10.710  0.0644  0.0730  0.1601
 7500W        W25704  10.137   5.829  11.650  0.0968 -0.1316 -0.0016
 7501W        W25705   1.242  10.721  13.854  0.1161  0.1759  0.1277
 7502W        W25706   8.084   1.301   0.860  0.0808 -0.1960  0.2462
 7503W        W25707   1.860   2.355   1.307  0.2428  0.1760 -0.1202
 7504W        W25708   0.810  10.335   4.328 -0.0690  0.0061 -0.0224
 7505W        W25709  15.623   6.921  11.142  0.0966  0.0181  0.1056
 7506W        W25710  17.826   8.169   9.933  0.0505  0.0113  0.0737
 7507W        W25711  17.889  17.479  15.249  0.0509  0.1863  0.0222
 7508W        W25712  16.394  10.867   1.482  0.3278  0.0682  0.2069
 7509W        W25713  10.042  13.616   0.814 -0.0364  0.2296 -0.2519
 7510W        W25714   1.456  14.128  10.889 -0.0905 -0.1360  0.0284
 7511W        W25715  15.841   6.640  14.140 -0.1427 -0.2852 -0.1692
 7512W        W25716   1.458  14.975  12.905  0.1448 -0.0692  0.1592
 7513W        W25717  11.673  17.106   2.614  0.0246  0.2384  0.2522
 7514W        W25718  14.869   5.298   4.466 -0.0773 -0.2218  0.2134
 7515W        W25719  12.732   8.903  14.801 -0.1431  0.1210  0.1533
 7516W        W25720  15.929  16.434   1.039 -0.0240  0.1350 -0.0537
 7517W        W25721   7.452  14.612   1.243  0.0633 -0.1996  0.1525
 7518W        W25722  15.595  11.288  12.090 -0.1450  0.2742 -0.0754
 7519W        W25723   3.555   6.085   1.118 -0.1102  0.3383 -0.2282
 7520W        W25724   0.996  12.951   2.066 -0.1841 -0.0397  0.3262
 7521W        W25725  17.368   6.643   2.811  0.1742 -0.1933  0.1259
 7522W        W25726   9.406  12.433  11.868 -0.2529  0.1387  0.1631
 7523W        W25727   4.291   7.490   0.576  0.0972 -0.2748 -0.0127
 7524W        W25728   7.632   9.321  11.760  0.0841 -0.1522  0.1205
 7525W        W25729   1.347   7.907  11.843 -0.1000 -0.0567  0.2796
 7526W        W25730   1.964  15.071  14.929 -0.1143  0.2961 -0.2272
 7527W        W25731  14.477   9.509   4.824 -0.0236 -0.1407  0.1270
 7528W        W25732  10.128   3.178   1.422 -0.4506 -0.1164 -0.1021
 7529W        W25733   5.650  15.619   3.661  0.2917  0.1198 -0.1161
 7530W        W25734  11.763  16.721   3.076  0.0610 -0.2850 -0.1892
 7531W        W25735   9.785   8.163   1.264  0.1332 -0.1632 -0.4992
 7532W        W25736  11.931   7.686   3.149  0.1281  0.1451 -0.2207
 7533W        W25737  17.109   9.527   2.336 -0.1334 -0.0148 -0.4252
 7534W        W25738  16.042  12.479  15.021  0.3694 -0.0515 -0.0484
 7535W        W25739  11.797   2.163  13.865  0.2687 -0.1084  0.1952
 7536W        W25740   1.944   5.065  12.139  0.2274 -0.0068  0.0939
 7537W        W25741   6.592  15.037  13.303  0.0886  0.0858 -0.0622
 7538W        W25742   5.072   7.102   2.754  0.1302  0.1949 -0.1554
 7539W        W25743   1.041   2.483   0.624 -0.1942  0.0302  0.0545
 7540W        W25744   3.165   8.177  13.752 -0.5463  0.1572 -0.2348
 7541W        W25745   8.595  12.318  13.180  0.2269 -0.1969  0.0378
 7542W        W25746   3.609  10.723  13.611  0.0514  0.1003 -0.0671
 7543W        W25747   1.455  16.602   4.020  0.2106  0.0260 -0.0403
 7544W        W25748   3.443   7.798   1.503 -0.5497 -0.0533  0.0497
 7545W        W25749   5.738  17.188   2.074 -0.0879 -0.0647 -0.0507
 7546W        W25750   1.758  16.930   5.779 -0.0013  0.0796 -0.3450
 7547W        W25751  13.544  14.869   3.452  0.1003  0.1316 -0.0580
 7548W        W25752   7.123   3.248  10.779  0.1612 -0.3159 -0.3368
 7549W        W25753  10.347  14.603  14.689 -0.0401  0.2291  0.0421
 7550W        W25754   1.769  10.410   2.165  0.2649 -0.0740 -0.0941
 7551W        W25755  17.917  16.828   3.825  0.0399  0.0470  0.2267
 7552W        W25756   4.026  12.013  11.078  0.0364 -0.0259 -0.0939
 7553W        W25757   8.344   5.533  15.030  0.1665 -0.1130  0.2886
 7554W        W25758  11.265   0.612  12.668  0.1780 -0.2885  0.0285
 7555W        W25759   5.638  10.707  11.373 -0.0611  0.2691  0.3237
 7556W        W25760  18.315  12.180  13.778  0.2012 -0.0787 -0.1418
 7557W        W25761  16.073   5.318  12.731 -0.3689  0.1391  0.2016
 7558W        W25762   9.672   3.262   4.189  0.2336 -0.3013  0.3559
 7559W        W25763  11.916   1.361  14.557  0.0775  0.0984 -0.1733
 7560W        W25764   4.080  17.157  11.679 -0.3524  0.3718 -0.1634
 7561W        W25765   7.430   4.210  13.346  0.0043  0.3019 -0.1857
 7562W        W25766  11.009   2.942   1.771  0.3346  0.0647  0.3852
 7563W        W25767   2.433   4.661  12.339 -0.0953 -0.2364  0.0884
 7564W        W25768  11.931  14.786   2.806 -0.1134 -0.0356  0.0093
 7565W        W25769   3.996  15.087  15.286  0.0470  0.1413 -0.2624
 7566W        W25770  14.359   3.422   4.383  0.0272 -0.1861  0.0040
 7567W        W25771  10.324  15.190   1.305  0.2285  0.4008  0.2701
 7568W        W25772   7.913  15.341  11.431 -0.3656 -0.2572  0.0946
 7569W        W25773   5.289  15.090  12.847 -0.1103  0.3504 -0.2379
 7570W        W25774   2.711  13.053   1.131 -0.0966 -0.1343  0.2094
 7571W        W25775   5.737   4.467  12.589 -0.3791 -0.0202 -0.1460
 7572W        W25776  10.852  11.038   0.305  0.0903 -0.0735 -0.0266
 7573W        W25777   1.916  11.027   9.611  0.2175  0.2549 -0.1673
 7574W        W25778  15.231  17.491  10.512 -0.2006 -0.0964 -0.1823
 7575W        W25779  15.798   7.737   1.117  0.1025 -0.0825  0.2469
 7576W        W25780  10.770   0.713  14.756  0.0145 -0.2878 -0.1100
 7577W        W25781   7.159   5.641   4.302 -0.4535 -0.2075  0.1985
 7578W        W25782  12.056   5.827   4.275 -0.0964  0.1413 -0.0483
 7579W        W25783   4.139   4.039  11.875 -0.2992  0.2843 -0.3139
 7580W        W25784   3.986  13.072  14.085  0.1121 -0.3031 -0.0490
 7581W        W25785   6.905   2.561  10.786 -0.0600  0.2522  0.1313
 7582W        W25786  17.772   3.930  13.725  0.1458 -0.1743 -0.3081
 7583W        W25787   3.338   0.926  11.365 -0.0353  0.1979 -0.0674
 7584W        W25788  14.640   6.748   1.037  0.0094  0.0018 -0.0491
 7585W        W25789  18.442   5.330   2.929  0.0484 -0.0170  0.1080
 7586W        W25790   2.407   2.163  12.590  0.0178  0.1820 -0.4292
 7587W        W25791   1.464   6.828  15.159 -0.0665 -0.1991  0.0715
 7588W        W25792  12.559   1.110  11.438  0.3495  0.1808 -0.4101
 7589W        W25793  14.197   9.826   0.496 -0.3952  0.0373  0.3820
 7590W        W25794  18.351   0.516   1.638 -0.2336  0.2343 -0.4129
 7591W        W25795   6.641  10.019   1.878  0.3019 -0.2116 -0.0752
 7592W        W25796   6.027   8.709   2.087 -0.0848 -0.0604  0.1402
 7593W        W25797  13.220   2.333  12.135  0.0054 -0.1491 -0.1271
 7594W        W25798   3.938  14.974  14.417  0.1982  0.0979  0.3372
 7595W        W25799   1.410   4.735   4.896  0.0148 -0.0348 -0.2146
 7596W        W25800   2.331   1.218  13.579  0.1432 -0.0233 -0.0238
 7597W        W25801  12.159   8.739   0.104 -0.1769  0.1806  0.1971
 7598W        W25802  13.200   0.159  12.616  0.0745 -0.1418 -0.1152
 7599W        W25803   2.140   2.067   3.850 -0.2492  0.1518 -0.0605
 7600W        W25804  12.646   8.738  11.421  0.0128  0.1337  0.3523
 7601W        W25805  12.059  10.417  12.107 -0.3336  0.0029  0.2930
 7602W        W25806  14.235   1.348   1.041 -0.0912 -0.1665  0.6748
 7603W        W25807   9.661   7.823   2.778 -0.2360  0.1784  0.0115
 7604W        W25808   6.730  12.175  13.360 -0.1156 -0.0020 -0.1190
 7605W        W25809  14.987  15.028  14.531  0.1649 -0.0822  0.1894
 7606W        W25810   2.614  16.881   5.301 -0.0959  0.0451 -0.0657
 7607W        W25811   4.031  17.821   1.368 -0.1313  0.0811 -0.0776
 7608W        W25812   8.815   0.486  13.739 -0.0390 -0.1135 -0.2883
 7609W        W25813  17.132   0.434   1.018 -0.0199 -0.0772  0.1276
 7610W        W25814   4.582  16.704   4.258 -0.0610 -0.2242 -0.1220
 7611W        W25815   7.498  12.087  13.489 -0.2286 -0.0320 -0.0084
 7612W        W25816  14.546  15.326  11.289  0.0064 -0.2987 -0.3944
 7613W        W25817   3.752   5.813   4.881  0.1251  0.3382 -0.3947
 7614W        W25818   9.288   6.042  11.268 -0.0070  0.1275  0.0361
 7615W        W25819   6.733  11.143  10.372  0.1613 -0.0855  0.0405
 7616W        W25820   3.482   6.861  15.104 -0.2181  0.0380 -0.0164
 7617W        W25821  10.670   2.165   2.848 -0.0569 -0.1945 -0.2249
 7618W        W25822  15.683   6.857   5.136  0.0096 -0.1120  0.1797
 7619W        W25823   0.944   7.400  15.152  0.1095  0.3737  0.0048
 7620W        W25824   6.697  15.914   0.221 -0.0281 -0.3548 -0.1731
 7621W        W25825   1.650   4.345   0.262  0.4385  0.2240  0.0737
 7622W        W25826  11.369  16.279  11.421  0.2085 -0.0508  0.1825
 7623W        W25827   7.673   9.751   0.525 -0.0547 -0.2846 -0.5035
 7624W        W25828   0.646   9.306   0.115  0.3490  0.1381 -0.0272
 7625W        W25829   5.736   7.464  13.523 -0.0960 -0.0942 -0.0858
 7626W        W25830  15.506   0.654   0.692  0.0462  0.1586 -0.2050
 7627W        W25831  14.678   7.560   4.807 -0.0628 -0.0907 -0.1009
 7628W        W25832  16.054  18.567  14.187  0.2284 -0.0309  0.2273
 7629W        W25833   6.663   2.323   1.552 -0.2095 -0.0580 -0.2557
 7630W        W25834  13.212   4.696  11.889 -0.2401  0.0819 -0.3720
 7631W        W25835   7.007   1.013   1.553 -0.0671 -0.0045 -0.1840
 7632W        W25836  15.294  17.309  11.636 -0.0882 -0.2456  0.2010
 7633W        W25837   8.337   1.318   3.170 -0.0784 -0.4507 -0.0433
 7634W        W25838  14.307  14.513   0.891  0.1042  0.3015  0.2584
 7635W        W25839   1.578   0.207   3.926  0.0930 -0.0776  0.1533
 7636W        W25840  16.502  15.995  13.496 -0.0281  0.4061 -0.1404
 7637W        W25841   8.082  14.125  15.150  0.0321  0.0479  0.2271
 7638W        W25842   6.933   1.423   1.800  0.1058 -0.0260  0.4184
 7639W        W25843  12.610   1.824  15.010 -0.0311  0.1609 -0.2508
 7640W        W25844   1.429   3.288  15.034  0.2429 -0.2457  0.0957
 7641W        W25845  18.487  18.264   2.086  0.3779 -0.1309  0.2173
 7642W        W25846  12.342   2.632   1.861 -0.1762 -0.1019  0.2798
 7643W        W25847  11.621  18.233   3.945 -0.1326 -0.0179  0.2519
 7644W        W25848   2.729   0.805  15.046 -0.0478  0.2513 -0.0811
 7645W        W25849  14.503   0.819  15.096  0.0063  0.3693  0.1942
 7646W        W25850   2.906  11.222   5.649 -0.0069 -0.0440  0.1368
 7647W        W25851  18.272   3.837  15.315  0.0897  0.3657 -0.0855
 7648W        W25852  15.689  13.716  12.205  0.2297 -0.0566 -0.1912
 7649W        W25853  11.842  16.872   3.939  0.0453 -0.0501  0.2781
 7650W        W25854   1.231   5.540   0.972 -0.0473 -0.2205 -0.4163
 7651W        W25855  11.845   9.033  12.349 -0.1611 -0.1660  0.1159
 7652W        W25856   9.609   8.636   3.242 -0.1735  0.3045  0.2020
 7653W        W25857  15.246   8.667   3.957  0.0393  0.2051 -0.0020
 7654W        W25858   4.182   7.639  13.542 -0.1237  0.4354 -0.0923
 7655W        W25859  16.023   1.079   0.587  0.1664  0.2939  0.0790
 7656W        W25860  16.807  18.022   4.592  0.0525  0.1298  0.4694
 7657W        W25861   7.973   8.433  12.047 -0.1040 -0.1637 -0.2897
 7658W        W25862  11.561   6.214  13.489  0.0337 -0.1201 -0.0736
 7659W        W25863  16.871  16.556   0.833  0.3032  0.1541  0.0340
 7660W        W25864  17.321   3.320  14.310 -0.0208 -0.0658 -0.0740
 7661W        W25865   0.254   9.493  13.840  0.1353 -0.3823 -0.2630
 7662W        W25866  13.845  16.762  14.351 -0.1959  0.0322 -0.0376
 7663W        W25867   8.776   8.882   1.001  0.2585 -0.2790  0.0979
 7664W        W25868  14.074  18.406  12.782  0.0051 -0.0129  0.1009
 7665W        W25869   0.627  11.648   0.127 -0.1743 -0.1728  0.1836
 7666W        W25870  16.624  10.390  15.181  0.3647 -0.1873 -0.0252
 7667W        W25871  16.748   0.943  15.109 -0.2073 -0.0054  0.2551
 7668W        W25872   1.809  10.762  14.587 -0.1942 -0.1276  0.1590
 7669W        W25873  10.125  12.604   5.644 -0.2786 -0.1375  0.1861
 7670W        W25874  16.705  13.399  10.726 -0.0518 -0.1041  0.1603
 7671W        W25875  10.879  14.252  12.473  0.3105 -0.1216  0.0947
 7672W        W25876   5.926   6.125  14.447 -0.2241 -0.1607 -0.2386
 7673W        W25877   3.792   4.487   4.573  0.2384 -0.0958 -0.1000
 7674W        W25878   5.049   6.037   3.932  0.1156  0.0055 -0.0941
 7675W        W25879  10.527  15.160  13.408  0.3988 -0.0529 -0.0055
 7676W        W25880   2.136   6.336  13.513  0.1115  0.0793 -0.1895
 7677W        W25881   0.528  18.003   3.757 -0.1399  0.1319  0.0054
 7678W        W25882   8.806  16.691   1.077 -0.0329  0.3468  0.1182
 7679W        W25883   0.428  17.648   3.327 -0.0208  0.0834 -0.1186
 7680W        W25884  17.596  16.592   0.065 -0.2108 -0.1994 -0.2269
 7681W        W25885   6.212  10.537   0.544  0.0739 -0.1961 -0.2709
 7682W        W25886  11.858  11.986  11.702  0.2901  0.1499  0.2768
 7683W        W25887   4.488   5.966  13.866 -0.1732  0.0361 -0.2454
 7684W        W25888   2.686  14.973   4.092  0.2938  0.0208 -0.1448
 7685W        W25889  15.210  18.551  12.123 -0.3875 -0.0690  0.2219
 7686W        W25890  13.426  16.105  12.409  0.2912  0.0619 -0.0076
 7687W        W25891  11.500   5.945  10.357  0.3820  0.2304 -0.0283
 7688W        W25892   3.287   8.427  11.072 -0.1473  0.0695 -0.2936
 7689W        W25893   3.921  11.406  14.974 -0.0479 -0.3321  0.2156
 7690W        W25894   0.202  10.759   4.059 -0.1869 -0.0839  0.0468
 7691W        W25895  17.533  15.538  11.562  0.2697  0.0605  0.2797
 7692W        W25896   2.341   0.637  15.358 -0.2682  0.0145  0.3291
 7693W        W25897   0.033   9.179  13.479  0.1283  0.0891 -0.0434
 7694W        W25898   3.243   3.769   2.730 -0.2551 -0.0603 -0.0771
 7695W        W25899  17.373  13.037   1.855  0.1215 -0.1768 -0.2022
 7696W        W25900  10.946   0.688   1.291  0.1305  0.2589  0.0692
 7697W        W25901   5.812  14.163   3.085 -0.1707  0.1954 -0.0824
 7698W        W25902   5.860  18.689   9.644  0.0069  0.1238  0.0601
 7699W        W25903  18.394  12.757   2.769  0.0042 -0.0751 -0.3383
 7700W        W25904   0.679   6.685   4.750 -0.0652 -0.1269 -0.1877
 7701W        W25905  13.955  14.463   3.415  0.1971  0.1509  0.0862
 7702W        W25906   6.894   4.526   9.919 -0.0708 -0.1698  0.3195
 7703W        W25907  13.669   6.310  11.355  0.1263  0.1251  0.2137
 7704W        W25908  16.916  11.420  13.317 -0.1266 -0.3990  0.0066
 7705W        W25909  13.390   6.721  10.763  0.1987  0.1398 -0.1591
 7706W        W25910   6.173   9.978   0.665  0.1886  0.0718 -0.3125
 7707W        W25911   7.153   2.129  14.681  0.0843  0.3423  0.0397
 7708W        W25912   4.059  17.752   1.974 -0.0547  0.0124  0.2636
 7709W        W25913  18.167   2.041   4.644  0.1531  0.0856  0.2021
 7710W        W25914   2.364  13.915   3.440  0.0073  0.2240  0.1437
 7711W        W25915  16.485  13.222   0.725  0.1434  0.0154  0.0355
 7712W        W25916  11.593   1.079  13.774  0.2250 -0.2627  0.0371
 7713W        W25917   0.725  18.109   2.096  0.2484  0.0759 -0.0223
 7714W        W25918  13.749   3.421  12.152  0.1755 -0.2196 -0.0056
 7715W        W25919   0.476   5.581   0.596  0.3823  0.1629  0.2585
 7716W        W25920   8.689   8.592   0.072  0.0479 -0.2998  0.3418
 7717W        W25921   7.101  12.180   2.009 -0.0880 -0.0979  0.1792
 7718W        W25922  10.335  12.812   3.617  0.3704 -0.2275  0.1406
 7719W        W25923   5.419   7.104  13.475  0.1078 -0.0393  0.0680
 7720W        W25924   9.821   6.465   9.899  0.0529 -0.1488  0.0369
 7721W        W25925   5.017  17.264   0.705 -0.1124 -0.3138  0.0015
 7722W        W25926  13.017   6.148  14.085  0.0423 -0.0129  0.1377
 7723W        W25927  17.548   9.972  13.698 -0.2480 -0.2947 -0.1233
 7724W        W25928  16.973  14.276   4.458 -0.0099 -0.0601 -0.0172
 7725W        W25929  17.049  12.365  13.113  0.2207 -0.2199  0.0446
 7726W        W25930   4.795   9.796  13.268 -0.1596  0.2438  0.0295
 7727W        W25931   1.993   4.611  13.092 -0.1722  0.0607 -0.3355
 7728W        W25932   8.368   7.939   1.254  0.1979 -0.1050 -0.0440
 7729W        W25933   2.673   6.775   4.087 -0.0304 -0.1638  0.0413
 7730W        W25934   1.518  17.921   2.787 -0.0592 -0.0195 -0.1823
 7731W        W25935   3.434  17.530  13.410 -0.1554  0.3104  0.2152
 7732W        W25936   5.533   3.447   2.092 -0.2556 -0.4622  0.0328
 7733W        W25937  10.560   3.072  13.746 -0.1888 -0.0964  0.1723
 7734W        W25938   8.948   9.354   3.483  0.1914 -0.3219 -0.1393
 7735W        W25939   0.219  11.795  12.390  0.1058 -0.0782 -0.2601
 7736W        W25940   9.000  14.290   3.220 -0.2141  0.2998 -0.0415
 7737W        W25941   8.511  16.178   4.073  0.2352  0.0288 -0.0537
 7738W        W25942  16.041   6.383   4.960 -0.0592  0.0176  0.2652
 7739W        W25943   3.763   3.483   1.827  0.0228  0.0638 -0.0856
 7740W        W25944  11.397  10.068   4.217 -0.0729  0.2270 -0.0999
 7741W        W25945  14.193  11.966   1.900  0.2600  0.1236 -0.2298
 7742W        W25946   5.284   3.703   0.495 -0.0026  0.1835 -0.1506
 7743W        W25947   9.809   3.041  13.855 -0.4654  0.0032  0.2130
 7744W        W25948  14.595  16.256  14.833  0.0490  0.0673 -0.1712
 7745W        W25949   0.423  13.335  12.677  0.1179 -0.1458  0.1629
 7746W        W25950  13.070   0.428  13.037  0.2178 -0.3280  0.0636
 7747W        W25951   9.125   1.729  12.713 -0.2170  0.0560  0.2121
 7748W        W25952   0.213   7.062   2.932  0.3263 -0.2937  0.2190
 7749W        W25953   5.665   9.565  12.226 -0.1483  0.4591 -0.3351
 7750W        W25954  12.478   5.167   4.964  0.2099 -0.0225  0.2755
 7751W        W25955   5.608   0.548  14.448 -0.0882  0.0399 -0.1186
 7752W        W25956  14.858  18.447   1.484 -0.1121  0.2271  0.0652
 7753W        W25957   4.047   6.851  15.142 -0.2329 -0.0560  0.1304
 7754W        W25958   3.298   4.246  11.947 -0.1410 -0.0118  0.4039
 7755W        W25959  14.558   6.136  14.835 -0.2239 -0.4076  0.1195
 7756W        W25960   3.627   6.043  12.836  0.0204  0.2171 -0.0319
 7757W        W25961   9.047  17.883   3.351 -0.0227 -0.3420  0.0126
 7758W        W25962  12.461  11.219   0.385 -0.2272  0.0783 -0.0948
 7759W        W25963   2.602   1.447   2.892  0.0105  0.2700 -0.0117
 7760W        W25964  18.646  16.509  11.531 -0.2818  0.2322 -0.0218
 7761W        W25965   3.857   3.971  14.433 -0.1902  0.0369 -0.0301
 7762W        W25966   9.919   9.241   4.301 -0.2478  0.1548  0.2719
 7763W        W25967  12.937   6.742  14.717 -0.0042  0.2244 -0.0480
 7764W        W25968  12.820  18.662   4.578 -0.3118  0.2037 -0.0378
 7765W        W25969  16.159   3.799  12.287  0.3549  0.3269 -0.2314
 7766W        W25970   8.734   5.894  12.094 -0.0521  0.4048 -0.1153
 7767W        W25971   9.036  15.717   0.762  0.4312  0.1190 -0.0165
 7768W        W25972  11.701   3.110   3.600  0.2170 -0.3454 -0.2480
 7769W        W25973  18.400  13.329   0.528  0.2970 -0.0763 -0.4150
 7770W        W25974  16.701  14.501   2.750  0.3030  0.0285 -0.0838
 7771W        W25975  10.668  14.909   3.032 -0.0557  0.1626  0.0331
 7772W        W25976  12.218   0.749  10.711 -0.0030 -0.2286 -0.1131
 7773W        W25977   3.054   2.319   2.195 -0.2234 -0.3365 -0.1089
 7774W        W25978   3.354  14.222  14.623  0.0805 -0.0827  0.1863
 7775W        W25979  18.152  17.717   1.406  0.2442 -0.1319 -0.1496
 7776W        W25980   8.481   2.426  11.761 -0.4137  0.0986 -0.1602
 7777W        W25981  12.502  17.844  13.163 -0.0368  0.0267  0.2820
 7778W        W25982  14.283   2.084   0.713 -0.4260 -0.0502  0.1717
 7779W        W25983  15.313   6.082  11.598  0.0272 -0.2354 -0.1618
 7780W        W25984   5.361  15.121   1.042 -0.0921  0.0430 -0.2476
 7781W        W25985   9.576   9.448   0.758  0.2582 -0.2046 -0.0917
 7782W        W25986   7.638   5.768   4.384  0.2887 -0.1004 -0.0530
 7783W        W25987  10.118  16.568   0.214 -0.1997 -0.0055 -0.1149
 7784W        W25988   8.141  13.961  12.506  0.2058 -0.1883  0.1233
 7785W        W25989   7.813   8.472  15.135 -0.3613  0.2694 -0.0607
 7786W        W25990  10.391   7.556   3.707 -0.2634 -0.2381 -0.1113
 7787W        W25991   5.252   3.829  15.361  0.1649 -0.0826  0.1153
 7788W        W25992   9.789   0.642  11.741 -0.2483 -0.0627 -0.1705
 7789W        W25993  14.470   5.014   1.252 -0.2539  0.1517  0.2958
 7790W        W25994  16.180  11.751  11.393  0.1045  0.0748 -0.1791
 7791W        W25995   1.906   5.320  14.340 -0.0360  0.0268  0.2558
 7792W        W25996  16.579   7.876  14.241 -0.2739  0.2270 -0.0066
 7793W        W25997  10.559  12.114   1.396 -0.1539  0.0913  0.1093
 7794W        W25998   9.652   5.285  13.933 -0.1147 -0.0303  0.0529
 7795W        W25999   5.888   8.077  15.169 -0.0019  0.0243 -0.1252
 7796W        W26000  10.395   1.089  11.095  0.1998  0.0733  0.0997
 7797W        W26001   8.690   7.575  14.117  0.3483 -0.2260 -0.0842
 7798W        W26002   9.127  17.411  13.433 -0.5202  0.0241 -0.3157
 7799W        W26003   0.756   7.826  12.712 -0.0224  0.0346 -0.1444
 7800W        W26004  13.437   8.044  13.078  0.0073 -0.1196  0.1349
 7801W        W26005  14.857   0.528  10.801 -0.4230 -0.2542 -0.0750
 7802W        W26006   1.372  14.225   1.613 -0.3873 -0.0696  0.0018
 7803W        W26007   0.452   9.464  13.356 -0.0125 -0.1708  0.0741
 7804W        W26008   1.817   0.450   3.201  0.0816  0.2192 -0.0922
 7805W        W26009  16.461   3.137  11.827 -0.0388 -0.1993  0.1382
 7806W        W26010   9.335  16.985  13.669  0.1768 -0.0238 -0.0335
 7807W        W26011   8.165   3.971   1.729 -0.0692 -0.2037 -0.2068
 7808W        W26012   3.615   7.854   2.258 -0.0986 -0.1695 -0.1402
 7809W        W26013   9.412   0.187  11.551 -0.2074 -0.2849 -0.0352
 7810W        W26014  18.500   6.034   1.106  0.2534 -0.1319  0.1620
 7811W        W26015   0.090   2.529  11.984  0.4291  0.0438  0.1374
 7812W        W26016   9.738  12.182  13.733 -0.0566  0.5170 -0.0633
 7813W        W26017  16.360   7.239   0.029 -0.0364 -0.1735 -0.0479
 7814W        W26018   5.370  15.988   1.989 -0.2943 -0.1324  0.3877
 7815W        W26019  17.095  13.760   3.307  0.1437  0.0288  0.2010
 7816W        W26020   1.596   5.439   2.557  0.3900 -0.0110 -0.1384
 7817W        W26021   5.794   5.738   4.291 -0.0979 -0.1397  0.1002
 7818W        W26022  16.062  18.371  13.365  0.1717  0.1050 -0.0418
 7819W        W26023   4.581   6.037  11.579  0.0828 -0.0781  0.4984
 7820W        W26024   6.681  11.396   3.801 -0.0529  0.0470  0.0246
 7821W        W26025   9.223   3.705   4.808  0.0370  0.0454 -0.1019
 7822W        W26026   3.889   9.879   1.492 -0.2118 -0.2504 -0.1167
 7823W        W26027  15.617  18.151  15.146 -0.4602 -0.0286  0.0937
 7824W        W26028   5.540   8.719   1.395 -0.0700  0.1237 -0.2333
 7825W        W26029   2.574  13.997  11.990 -0.0769  0.2603 -0.1169
 7826W        W26030  12.768  10.726  13.425  0.1250  0.2136  0.1488
 7827W        W26031   2.350   3.375   3.867 -0.1008 -0.1171  0.1784
 7828W        W26032   1.135   4.005   3.067  0.1655 -0.0290  0.0293
 7829W        W26033   5.461  13.731   3.278 -0.0395  0.1853 -0.0304
 7830W        W26034  11.337   6.759   3.568  0.1161 -0.3392 -0.4653
 7831W        W26035   3.967   1.231  15.345 -0.1290  0.2909 -0.3221
 7832W        W26036  10.216   2.075   1.869 -0.1698  0.2038 -0.3378
 7833W        W26037  12.899   5.904  11.448  0.3239 -0.0256  0.2762
 7834W        W26038  11.181   8.981  13.036 -0.0786  0.0403 -0.1283
 7835W        W26039   1.590  14.208  14.588  0.0153 -0.0530 -0.2625
 7836W        W26040  17.263   2.310   9.825 -0.2926  0.0007  0.0711
 7837W        W26041   8.513   0.446   1.805  0.5114 -0.2179 -0.1837
 7838W        W26042  11.449  10.530  14.634  0.0794  0.1010  0.0763
 7839W        W26043   0.456   2.809  13.626 -0.0100 -0.2442  0.1615
 7840W        W26044   0.267   5.009   9.857  0.1167  0.1793 -0.0980
 7841W        W26045  14.784   6.477  11.707  0.1793 -0.1849 -0.1748
 7842W        W26046   4.750   8.848  10.791 -0.1877 -0.1129 -0.1584
 7843W        W26047  13.120  16.920   0.250 -0.0362 -0.3314 -0.0751
 7844W        W26048  13.348  15.248  15.195 -0.1793  0.0096 -0.2042
 7845W        W26049  11.720   5.531   4.383 -0.2988  0.0783 -0.1974
 7846W        W26050   7.372  17.132  13.188 -0.0127 -0.0187 -0.0952
 7847W        W26051  12.293  12.792   1.985 -0.0432  0.0878 -0.3596
 7848W        W26052   5.223  14.942  11.146  0.3342 -0.0053  0.2120
 7849W        W26053   7.138   0.603   1.243  0.2126 -0.1308  0.0143
 7850W        W26054   1.692  14.502   3.843  0.3800 -0.1833  0.0797
 7851W        W26055   2.008   7.042  13.441  0.0734 -0.3695  0.0640
 7852W        W26056   5.996  17.497  13.220 -0.0199 -0.1688 -0.0191
 7853W        W26057  18.330  16.630  13.608 -0.3979  0.2458  0.1019
 7854W        W26058   5.576   9.210   2.975 -0.1025 -0.1717  0.1571
 7855W        W26059   9.207  18.635  15.084 -0.3783 -0.0765 -0.0516
 7856W        W26060   2.602   8.616  12.704  0.0489  0.1394  0.0298
 7857W        W26061   9.430   4.618  12.484 -0.2175  0.2808  0.1105
 7858W        W26062  18.158  17.106  14.293  0.0850 -0.0250  0.4111
 7859W        W26063   1.287  15.687  14.017 -0.0932 -0.0213 -0.1600
 7860W        W26064  14.058   0.507  15.396  0.0174  0.4747 -0.3789
 7861W        W26065   2.403  16.721  14.901  0.1407 -0.4432  0.2169
 7862W        W26066   8.362  13.501   2.488 -0.0058  0.0364  0.0937
 7863W        W26067  11.526  11.882  15.222 -0.0962  0.2694 -0.2970
 7864W        W26068   2.122  17.650   3.564 -0.3840 -0.3658 -0.6282
 7865W        W26069   4.406  18.258   0.239  0.1309 -0.0856 -0.0196
 7866W        W26070  13.077  10.878  11.960  0.2084 -0.3246 -0.0970
 7867W        W26071   4.010   0.468  11.393 -0.4958 -0.2060  0.0211
 7868W        W26072  14.842   0.510   1.896 -0.1420  0.0215  0.3263
 7869W        W26073   6.314  17.115  10.620  0.2426  0.0254 -0.0747
 7870W        W26074   1.921  18.096   3.745 -0.1845  0.1708 -0.2584
 7871W        W26075  12.900   5.806  12.825  0.0268  0.0697  0.0096
 7872W        W26076   3.459  17.210  14.884 -0.0349 -0.0524 -0.0989
 7873W        W26077  12.028  18.613   2.673  0.0563 -0.0156  0.2605
 7874W        W26078  14.735  12.035  15.330  0.2849  0.2933  0.3002
 7875W        W26079  16.271   4.025  11.828 -0.0574 -0.3031  0.2345
 7876W        W26080   9.830   6.799  14.701  0.5089 -0.1759 -0.1044
 7877W        W26081   3.116   0.554   2.243 -0.2776 -0.2493  0.2088
 7878W        W26082  15.611  15.701   3.436 -0.0729 -0.2078  0.0624
 7879W        W26083  16.028   6.447  13.682  0.3756 -0.0914 -0.0801
 7880W        W26084   8.587   2.452   0.628  0.0029 -0.0763 -0.1031
 7881W        W26085  10.421   5.301  14.846 -0.5548  0.0152 -0.3803
 7882W        W26086   3.882  14.655   4.216 -0.0635 -0.3682 -0.0373
 7883W        W26087   0.568   0.878  10.869 -0.1224 -0.0655  0.0557
 7884W        W26088  13.920   5.363  12.095 -0.0906  0.1275  0.3883
 7885W        W26089   7.025  15.937   2.332  0.0709 -0.1693 -0.0539
 7886W        W26090   1.535   5.912   0.640  0.0077  0.1468  0.1363
 7887W        W26091  13.280   6.732  11.941  0.0435 -0.0868  0.2213
 7888W        W26092  10.523  10.787  14.752  0.3486 -0.2562  0.2330
 7889W        W26093   7.800  18.147  12.267 -0.0470 -0.1230 -0.0682
 7890W        W26094  15.020   2.627   0.669  0.1010  0.2879 -0.1406
 7891W        W26095   9.846  14.385   0.259 -0.0742 -0.0574  0.0121
 7892W        W26096   4.434   6.983   3.538  0.1366  0.0480  0.0764
 7893W        W26097   9.061  11.446   1.830  0.0427  0.1169  0.1408
 7894W        W26098   5.889   2.225   2.215 -0.2308  0.0313  0.2121
 7895W        W26099  11.718   2.362   1.012  0.1934  0.4029 -0.4409
 7896W        W26100  14.127   5.181   3.522  0.0750  0.1434  0.0699
 7897W        W26101   0.414   8.561  15.253  0.0034 -0.0824  0.2001
 7898W        W26102  18.550  12.622   0.936  0.0447 -0.3171  0.2199
 7899W        W26103   9.990   7.219   1.530 -0.0471 -0.0263 -0.0382
 7900W        W26104   7.638  11.352   1.616  0.0432 -0.3963 -0.1185
 7901W        W26105   3.625  16.106  11.444  0.2777 -0.0036 -0.1002
 7902W        W26106   9.045  12.385   5.152 -0.1998 -0.4834 -0.1556
 7903W        W26107   2.730   3.642   2.688  0.2995 -0.0918  0.3541
 7904W        W26108   5.343   7.008   4.162  0.0019 -0.0180 -0.3998
 7905W        W26109  15.192  13.296  14.031  0.1983  0.0581  0.0208
 7906W        W26110   5.905  10.553   2.075  0.0927  0.2463 -0.6810
 7907W        W26111   3.841   5.035  15.109  0.0948 -0.2550  0.0658
 7908W        W26112  11.413  18.028  14.710  0.0479  0.0233  0.1123
 7909W        W26113  14.504   5.988  12.644  0.1234 -0.2555  0.0154
 7910W        W26114  12.354  12.298   4.053  0.1501  0.0995  0.0629
 7911W        W26115  10.996  16.787   3.305  0.0338 -0.2167 -0.0765
 7912W        W26116   0.207  15.413  13.169  0.2598  0.0300 -0.2413
 7913W        W26117  12.804   2.691  14.145 -0.0983 -0.2071  0.0905
 7914W        W26118   1.085  11.930   3.917 -0.0283 -0.1647  0.2370
 7915W        W26119   9.525  18.468  11.806 -0.1042  0.2951  0.0760
 7916W        W26120   7.942  17.868  11.841  0.0724  0.0189 -0.1041
 7917W        W26121  15.798  15.781  14.238  0.3209  0.0939  0.2095
 7918W        W26122  16.392   2.035  13.079  0.0969  0.0341 -0.0114
 7919W        W26123   9.208   6.926   2.275 -0.2823 -0.1517  0.0474
 7920W        W26124   9.491   3.872   4.373 -0.0254  0.1811  0.0995
 7921W        W26125   2.192  17.543  14.419 -0.4993 -0.0481  0.0584
 7922W        W26126  15.284   9.798  12.230 -0.0087 -0.0007  0.1168
 7923W        W26127  10.768  10.536   2.015 -0.0623 -0.5661 -0.0341
 7924W        W26128  11.003   5.904   2.419  0.1257 -0.2423  0.2390
 7925W        W26129  18.169   6.276   2.838 -0.5698 -0.2880 -0.0214
 7926W        W26130  15.332  17.516  12.063 -0.0315 -0.2111 -0.0813
 7927W        W26131  10.307  14.891   4.420 -0.1675  0.3265 -0.2052
 7928W        W26132   6.795  14.415   4.766 -0.2775  0.0214  0.0871
 7929W        W26133   0.010  14.698   2.443 -0.1749 -0.2150 -0.0730
 7930W        W26134   9.241  11.728  12.590  0.1787  0.0204 -0.1338
 7931W        W26135   1.966  17.740   1.076 -0.0468  0.1190  0.1242
 7932W        W26136  14.029  12.387  14.670 -0.0434  0.2961  0.0257
 7933W        W26137   4.119   2.021   0.961  0.0451 -0.2650  0.1694
 7934W        W26138   3.528   5.499  12.198 -0.0192  0.0643  0.1708
 7935W        W26139  12.579   7.201  11.565 -0.1938 -0.0261  0.0106
 7936W        W26140   7.052  13.739   2.250  0.4020  0.0984 -0.0109
 7937W        W26141   3.067   8.164   4.317  0.2813 -0.0841 -0.3770
 7938W        W26142   0.093   0.312   0.667 -0.3644  0.2484 -0.2528
 7939W        W26143  12.360  11.424  11.080 -0.1105  0.1868 -0.0819
 7940W        W26144  15.327  16.096   4.282  0.1335 -0.1052 -0.2961
 7941W        W26145   8.373  17.706   1.115  0.0546  0.2807 -0.0892
 7942W        W26146  15.133  12.637   3.526 -0.2000  0.1408 -0.0987
 7943W        W26147  17.848   3.226  12.681  0.1156 -0.1130  0.2795
 7944W        W26148  11.521   9.686   0.584 -0.3167 -0.1454 -0.1595
 7945W        W26149  14.713  15.796  11.015  0.1883 -0.0454  0.0825
 7946W        W26150  16.085  14.630  12.455  0.1614 -0.2166  0.0368
 7947W        W26151  17.570   8.166   2.918  0.1222 -0.0270 -0.0655
 7948W        W26152  14.171   8.661  13.038 -0.0280 -0.1952 -0.3460
 7949W        W26153  12.526   8.338   0.138 -0.1345 -0.1358  0.3014
 7950W        W26154   6.550  14.816  14.534  0.1975 -0.0697 -0.1147
 7951W        W26155  15.105   9.091   3.836 -0.2331 -0.0442 -0.5372
 7952W        W26156   8.461  11.729   4.232  0.1640  0.1191  0.2011
 7953W        W26157   0.764   1.897  15.223 -0.1544 -0.0500 -0.0918
 7954W        W26158  14.060   3.653   2.515  0.4031  0.0793 -0.0831
 7955W        W26159  18.314  13.739   2.459 -0.0643  0.1765  0.0273
 7956W        W26160   7.750   1.091  15.204 -0.2687  0.5451 -0.1599
 7957W        W26161   8.974  17.299  11.603  0.2917 -0.0907  0.1007
 7958W        W26162   3.065  16.235  14.892  0.1487  0.0194  0.0072
 7959W        W26163   9.222   6.398  14.704 -0.1307  0.0288 -0.3677
 7960W        W26164  14.989  15.028   2.516  0.1764  0.2475 -0.2957
 7961W        W26165   0.280  10.246  12.442  0.3329 -0.1379 -0.1232
 7962W        W26166   8.582  16.546   1.775 -0.0784 -0.1169  0.0199
 7963W        W26167   8.515   6.193   1.951 -0.1438 -0.2820 -0.3972
 7964W        W26168   2.306  16.903   4.226  0.0228  0.0435 -0.2956
 7965W        W26169  18.015  11.689  13.644 -0.1728  0.3206  0.2717
 7966W        W26170   4.367   0.960   4.649 -0.0708  0.0636  0.1257
 7967W        W26171  12.400   6.123  12.872  0.4333 -0.0069  0.0593
 7968W        W26172  14.969   5.338  11.028  0.0168  0.2397  0.1258
 7969W        W26173   1.454   3.891   0.456 -0.1985  0.2407  0.0575
 7970W        W26174   3.510   2.582   1.632  0.0874  0.0340  0.0664
 7971W        W26175  15.833  16.772  12.225  0.2572  0.1510 -0.0128
 7972W        W26176  14.793  15.556  13.597  0.2385  0.2992  0.1874
 7973W        W26177  18.622   4.110  13.811 -0.1284 -0.1651  0.1454
 7974W        W26178  17.760  16.743  14.012 -0.0439 -0.0426  0.0439
 7975W        W26179  10.819   0.718  14.201 -0.3330  0.0625  0.2461
 7976W        W26180  15.981   5.480   3.612  0.1495  0.1118 -0.2502
 7977W        W26181   1.962   5.886   0.053  0.2068  0.2342 -0.0202
 7978W        W26182   2.317  10.184   0.275  0.1469  0.2254  0.3690
 7979W        W26183   5.703   0.095  12.146 -0.1512  0.2668  0.2123
 7980W        W26184  12.649   8.415  14.847  0.1199  0.1935  0.1740
 7981W        W26185   1.007   1.780  10.829  0.1066 -0.0027 -0.1416
 7982W        W26186  12.015   8.247  15.449 -0.3734 -0.0306 -0.1335
 7983W        W26187   6.125  10.816  14.426  0.2607 -0.0305 -0.2558
 7984W        W26188   9.814   1.323  13.363 -0.0595  0.1194 -0.1949
 7985W        W26189   3.171  12.841  10.515  0.0580 -0.4669  0.0860
 7986W        W26190   1.577  18.396  15.043  0.0587 -0.1518  0.0309
 7987W        W26191   7.484   5.865  14.278  0.0065 -0.1549  0.0248
 7988W        W26192  17.439  13.952   1.923 -0.0118 -0.1762 -0.1807
 7989W        W26193   7.591  16.040  12.641 -0.1971  0.0144 -0.2157
 7990W        W26194   3.367   1.874   4.109 -0.2274  0.1434 -0.0660
 7991W        W26195   1.316   4.751  11.307  0.1789  0.3311 -0.0082
 7992W        W26196  15.035   4.217   0.536  0.1017 -0.0033 -0.0263
 7993W        W26197   9.662  15.264  12.843 -0.1515 -0.0776  0.0473
 7994W        W26198  11.849   4.425   2.913  0.3084  0.2692 -0.1447
 7995W        W26199  11.024  16.242  12.416  0.1487 -0.0775 -0.1434
 7996W        W26200  14.711   1.652   4.103  0.0903 -0.2088 -0.2664
 7997W        W26201  14.027   2.156  11.238  0.2641 -0.2595 -0.3161
 7998W        W26202   1.236   4.569  12.955 -0.1640 -0.0429 -0.2274
 7999W        W26203   7.026   6.181   5.246  0.0569 -0.0461  0.2536
 8000W        W26204  13.962  16.675  12.397 -0.2713  0.0737 -0.1967
 8001W        W26205   2.201   8.750  12.003  0.0874 -0.1200  0.0994
 8002W        W26206   2.130   4.327  12.656  0.2871  0.1268 -0.0014
 8003W        W26207   7.924   5.122  13.633 -0.1214 -0.0261  0.1976
 8004W        W26208  12.876   7.243   1.324  0.2864  0.0699 -0.1489
 8005W        W26209   3.941   3.325  10.885  0.5844  0.1040  0.2450
 8006W        W26210  18.688  10.183   4.498  0.2601  0.1260  0.2101
 8007W        W26211   3.518  15.361   4.796  0.0977 -0.3348 -0.2089
 8008W        W26212  13.259   4.959  11.419  0.1572 -0.1260  0.2049
 8009W        W26213   5.690   9.181   1.184 -0.3069 -0.2432 -0.0580
 8010W        W26214   4.591   3.307  11.056  0.0938  0.1010 -0.0767
 8011W        W26215   5.853  14.390   4.526  0.0062  0.2316 -0.1444
 8012W        W26216   0.964   4.984   0.428  0.0574  0.0163  0.1014
 8013W        W26217   7.637   3.059  11.880  0.0721 -0.0565 -0.0831
 8014W        W26218  11.821  14.870  15.212 -0.5409  0.0861  0.3625
 8015W        W26219   3.420  10.827   0.357  0.0013 -0.0977 -0.1351
 8016W        W26220   4.154   9.207  15.431  0.1030 -0.0076  0.1236
 8017W        W26221  10.873   6.511  10.847  0.1713  0.0842 -0.1171
 8018W        W26222  17.173   7.994  10.788  0.1839 -0.0855 -0.0549
 8019W        W26223   8.001   3.407  13.688 -0.0664 -0.1454 -0.1655
 8020W        W26224  13.230  14.902   1.699  0.2551 -0.1131 -0.2671
 8021W        W26225   3.784   8.685   1.979 -0.0180 -0.0542 -0.3441
 8022W        W26226   3.140  11.873  14.069 -0.0169 -0.1150  0.0147
 8023W        W26227  12.314  10.189   0.793  0.1648  0.0377  0.1219
 8024W        W26228  10.068  16.645  11.911 -0.2906 -0.0805  0.2601
 8025W        W26229   9.379   1.141  11.281  0.1886  0.1057  0.2896
 8026W        W26230   0.329  12.777  12.481 -0.0620  0.1693  0.4971
 8027W        W26231   2.634   8.350  11.966 -0.4074  0.4295  0.2808
 8028W        W26232   3.155   7.725   2.522  0.1340  0.2080  0.0835
 8029W        W26233   4.851  18.207  15.253  0.0833 -0.0319  0.0903
 8030W        W26234  10.730  12.796   2.784  0.3849 -0.4274 -0.0099
 8031W        W26235   3.445   2.147  12.562  0.1206 -0.3524  0.1900
 8032W        W26236  15.092   6.086   1.512  0.0498  0.0119 -0.1697
 8033W        W26237   7.114   2.374   2.013  0.2484  0.2632 -0.1463
 8034W        W26238  15.439   0.128   5.332 -0.0579  0.2246 -0.2653
 8035W        W26239   3.980  18.226   0.589  0.2412  0.1348 -0.1791
 8036W        W26240   9.316  16.827   1.258 -0.0504 -0.0414 -0.0564
 8037W        W26241   1.917  13.561   1.878  0.2905 -0.0154  0.2584
 8038W        W26242   4.013  16.333  14.451  0.1230 -0.1288  0.1585
 8039W        W26243  11.966   1.787  14.228 -0.2625  0.0483  0.0608
 8040W        W26244  12.670  13.546  10.649 -0.1795 -0.1960 -0.1251
 8041W        W26245   2.754   0.737   0.395 -0.4395 -0.0414  0.3163
 8042W        W26246  10.176   5.130   1.592  0.0747 -0.0344 -0.1408
 8043W        W26247   2.398  15.315  13.633  0.0572  0.2580  0.2225
 8044W        W26248   7.248  14.264  13.419  0.0163  0.0159  0.0542
 8045W        W26249  10.841  16.958   3.890 -0.3296  0.0513 -0.1128
 8046W        W26250  11.002   3.296   4.701 -0.2084  0.3983  0.0675
 8047W        W26251  12.859  16.244   4.844  0.1999  0.3828  0.0423
 8048W        W26252  14.559  11.534   0.593  0.1692  0.4388  0.3346
 8049W        W26253  15.559  15.112  13.352 -0.2366  0.1675  0.0775
 8050W        W26254  16.040  18.609   3.262 -0.2981 -0.4665 -0.2200
 8051W        W26255  10.280   4.286  12.416 -0.0564  0.1379  0.1444
 8052W        W26256   9.494  10.718  15.158 -0.0176 -0.0454 -0.0597
 8053W        W26257   2.012   6.321   1.992 -0.0882  0.2049 -0.2832
 8054W        W26258  16.319  12.741  12.617  0.1551  0.2263  0.1669
 8055W        W26259  15.773   3.962  12.670  0.0640  0.2246 -0.0348
 8056W        W26260  12.397   3.443   1.796 -0.0961 -0.1719  0.1551
 8057W        W26261  12.596   0.953   0.128  0.0021  0.0239 -0.4190
 8058W        W26262   5.967  12.639   1.651 -0.2032 -0.1407  0.0702
 8059W        W26263  18.293  13.365  13.643  0.0912  0.2574 -0.1728
 8060W        W26264   3.566  10.726  12.723 -0.2312 -0.1254  0.1588
 8061W        W26265  16.175   2.760  13.169  0.2343  0.0436  0.2258
 8062W        W26266  17.620  12.541   0.970  0.0855 -0.1368  0.1796
 8063W        W26267   5.027   3.592   1.624  0.0001 -0.2788  0.0348
 8064W        W26268   6.616  18.275   0.237  0.1381  0.1208 -0.3315
 8065W        W26269   6.672  14.187  13.558 -0.0849  0.3271  0.0426
 8066W        W26270   9.658   0.684   3.047 -0.1723  0.0216 -0.0976
 8067W        W26271   3.524  14.105  11.030 -0.0390 -0.1518  0.1008
 8068W        W26272   8.054  12.249   0.793 -0.0101  0.2327 -0.3829
 8069W        W26273   8.754   4.527   3.130  0.0760 -0.2753 -0.0008
 8070W        W26274   7.455   0.829   4.620 -0.1909 -0.2070  0.1194
 8071W        W26275   0.473  18.406   0.731 -0.1645  0.0148 -0.0945
 8072W        W26276  11.205   0.187  13.736  0.2009  0.0097 -0.0084
 8073W        W26277   7.442   6.775  14.438 -0.0014  0.1883  0.1015
 8074W        W26278   1.163   2.647   4.184  0.0896 -0.0844 -0.1694
 8075W        W26279   6.217  13.993   1.992  0.1574 -0.3111  0.1772
 8076W        W26280   9.705   5.274  11.294  0.3372  0.3169  0.4161
 8077W        W26281  11.300   2.638   2.037  0.3058  0.0164  0.1441
 8078W        W26282  17.581   5.176  13.779  0.0294 -0.1458 -0.1165
 8079W        W26283   2.187   1.182  12.612 -0.0445 -0.1445 -0.2302
 8080W        W26284  16.908   5.743   5.106  0.0446  0.2025  0.0484
 8081W        W26285  12.819  15.888   3.874 -0.0551 -0.3731 -0.1623
 8082W        W26286   4.225   2.380   4.358 -0.1570 -0.0313 -0.3512
 8083W        W26287  13.907   0.799  13.404  0.0055 -0.0634  0.0739
 8084W        W26288  18.252   1.534   3.807 -0.0612  0.3351 -0.1321
 8085W        W26289   5.932   8.710  11.602  0.2765 -0.2492  0.0011
 8086W        W26290  17.929   7.307   0.561 -0.0937  0.0167  0.0422
 8087W        W26291  13.249   9.079   2.803  0.0374  0.0170 -0.0948
 8088W        W26292  13.730   8.380   4.091 -0.2905 -0.0751  0.0973
 8089W        W26293  17.451  10.352  13.384  0.1501 -0.2841 -0.1974
 8090W        W26294  18.339  10.991  12.234  0.4401 -0.0332 -0.2970
 8091W        W26295   0.428  17.822  15.070 -0.0908 -0.0709 -0.0004
 8092W        W26296  11.658   4.335  11.918  0.3590 -0.0577  0.4236
 8093W        W26297   5.761   6.320   4.241 -0.0327  0.1520  0.1717
 8094W        W26298  18.052  17.952   4.449 -0.1135 -0.1771 -0.1089
 8095W        W26299  11.908  16.726  13.351  0.0840  0.0259  0.0978
 8096W        W26300  14.875   1.406   0.324 -0.3190 -0.1245  0.1189
 8097W        W26301   9.490   4.405  13.401  0.2170 -0.2137  0.0653
 8098W        W26302  12.722  13.720  12.867 -0.1395  0.0782 -0.1716
 8099W        W26303   1.096   4.209  13.699 -0.2194 -0.3010  0.0884
 8100W        W26304   4.039   0.846   0.224 -0.3627 -0.2959  0.3856
 8101W        W26305  18.441  16.133   0.764  0.0095 -0.0634 -0.2468
 8102W        W26306   2.011  16.888  11.290  0.2266 -0.0881 -0.0676
 8103W        W26307   8.382   4.084   2.179  0.0348  0.2913  0.0603
 8104W        W26308  13.213  13.184  15.315 -0.0648  0.0460 -0.2195
 8105W        W26309   1.089   0.419   5.128  0.1037 -0.0348 -0.1252
 8106W        W26310   7.007  14.011   0.881 -0.1211 -0.2598  0.0101
 8107W        W26311   8.707  11.953  14.010 -0.1660 -0.1307 -0.1037
 8108W        W26312  16.396   1.393   0.189 -0.0992  0.2544 -0.1591
 8109W        W26313   8.967  18.426   4.290  0.0162 -0.1838 -0.1797
 8110W        W26314  16.890   8.362   1.293  0.0764  0.0552 -0.0592
 8111W        W26315  14.452   9.629   2.769  0.3745 -0.0603  0.3268
 8112W        W26316  11.483   3.353  14.986 -0.2662 -0.3571 -0.2237
 8113W        W26317   9.320  12.786  14.948  0.2236 -0.5076 -0.3977
 8114W        W26318  11.472   7.663   4.629  0.3059  0.1256  0.0308
 8115W        W26319   7.192  14.436   3.342 -0.1324  0.1563 -0.0160
 8116W        W26320  11.717   9.220   0.314 -0.0607  0.0506 -0.0256
 8117W        W26321   5.671   3.538   1.476 -0.1529  0.1416 -0.0208
 8118W        W26322  14.540   0.153  13.672  0.0415  0.1227 -0.0003
 8119W        W26323   2.499  16.819   1.504  0.0496 -0.1555 -0.0560
 8120W        W26324   2.005  10.120  11.746  0.3451  0.0402 -0.0426
 8121W        W26325   7.782  12.637  13.973 -0.1873 -0.2435 -0.1433
 8122W        W26326   6.544   9.451  14.425 -0.0822  0.1424 -0.0254
 8123W        W26327  15.406   0.914  14.291  0.0198  0.3173 -0.0596
 8124W        W26328   8.956   7.693  11.386  0.0412  0.4749 -0.1933
 8125W        W26329   8.287  16.973   0.332 -0.1054  0.0633 -0.5632
 8126W        W26330  16.746   0.653  11.081 -0.0731 -0.2543  0.0279
 8127W        W26331   7.232   8.663  13.947 -0.2915  0.3535 -0.2524
 8128W        W26332  13.083   6.714   0.469  0.3211 -0.2960 -0.1133
 8129W        W26333   5.389   2.698  13.809 -0.0608  0.1425 -0.3938
 8130W        W26334  15.421   2.233   4.867  0.0818  0.0552 -0.1420
 8131W        W26335  13.573   0.142   2.869 -0.2363  0.0710 -0.1280
 8132W        W26336  17.329   9.576   1.205 -0.0873 -0.2214 -0.0489
 8133W        W26337  17.008   5.169  12.240 -0.2698  0.2918  0.0567
 8134W        W26338  12.461  14.215  12.835  0.0027  0.5003 -0.0584
 8135W        W26339   5.446   1.087  11.219 -0.0456 -0.4075  0.1103
 8136W        W26340  10.107   4.591  14.534 -0.1098 -0.1518  0.0158
 8137W        W26341  16.053  18.459   1.723 -0.1783  0.0261  0.0160
 8138W        W26342  11.818   3.336   0.996  0.0158 -0.1828 -0.0469
 8139W        W26343  10.804  15.953   1.611  0.1540 -0.1035  0.0182
 8140W        W26344   2.387   6.507   3.715  0.1546 -0.0763  0.1474
 8141W        W26345  13.848   0.826   3.475  0.3896  0.1764  0.3991
 8142W        W26346  15.201  13.573  13.032  0.0738 -0.4026 -0.0289
 8143W        W26347  14.602   1.317  13.167 -0.1493  0.0324 -0.2134
 8144W        W26348   2.202   6.467   0.269  0.0889  0.0024 -0.2268
 8145W        W26349   6.906   2.018  14.102 -0.4747 -0.0186  0.0272
 8146W        W26350  13.430   9.916  13.377 -0.1640  0.1375 -0.0137
 8147W        W26351   8.117  14.741   0.615  0.2696 -0.2254  0.2182
 8148W        W26352  11.538  14.199   3.221  0.2947  0.1274 -0.0033
 8149W        W26353   2.573  17.321   0.796 -0.0672 -0.0564  0.3096
 8150W        W26354  17.148   3.000  13.879 -0.0942  0.2261  0.1552
 8151W        W26355  16.324   5.708   3.870 -0.1387  0.0116 -0.1199
 8152W        W26356   4.466   1.247   0.867  0.0397 -0.1114 -0.0166
 8153W        W26357  11.296  13.503   1.942 -0.1250 -0.1944  0.1133
 8154W        W26358  13.724  17.632  11.981 -0.0224 -0.0812  0.1625
 8155W        W26359  18.315   5.651  10.862  0.0145 -0.0428 -0.0952
 8156W        W26360   5.772   7.625   0.016 -0.0429 -0.3606 -0.1640
 8157W        W26361   4.969  16.005  14.198 -0.2587 -0.1211 -0.1742
 8158W        W26362   5.567  12.735   2.832 -0.3417 -0.0636  0.2160
 8159W        W26363  16.679   1.347   1.063 -0.0256  0.1091  0.3131
 8160W        W26364   7.157  16.112  12.207 -0.1943 -0.0118  0.0971
 8161W        W26365  17.105   6.742   4.233  0.0110  0.0443  0.1525
 8162W        W26366  12.767  15.256   2.946  0.3487 -0.4673 -0.0922
 8163W        W26367  12.325  10.383   2.536 -0.0171 -0.1320  0.1481
 8164W        W26368   4.736  15.757   2.901 -0.3797 -0.1566  0.2934
 8165W        W26369   8.939   3.594  14.080 -0.1589  0.0469 -0.0222
 8166W        W26370   2.676   8.698   0.614 -0.2048 -0.1570  0.3588
 8167W        W26371   7.670   5.385   0.131  0.0082 -0.2894  0.1653
 8168W        W26372   6.920  13.921  13.245 -0.0707  0.0846  0.1487
 8169W        W26373  12.576   7.442   0.492 -0.1649  0.1513 -0.2904
 8170W        W26374   9.270  18.683  12.140 -0.0297  0.1052 -0.0653
 8171W        W26375   2.594  17.956   3.428 -0.2091 -0.2300  0.3998
 8172W        W26376   9.448   9.672   2.743  0.0487 -0.0278  0.1015
 8173W        W26377   2.372   5.579  11.787 -0.1281  0.0589 -0.2661
 8174W        W26378  10.089  11.432   3.784 -0.1894 -0.3804  0.0882
 8175W        W26379   1.711   4.804  12.575 -0.2349  0.2640 -0.2037
 8176W        W26380   1.131   2.148  11.772  0.0057  0.1205 -0.2783
 8177W        W26381   0.781  13.777  13.834  0.1660  0.4031 -0.1591
 8178W        W26382  13.806  11.550   3.006 -0.1039 -0.0423  0.0110
 8179W        W26383  13.178   7.427  12.698  0.0285 -0.0812  0.0430
 8180W        W26384   6.243  18.068   4.030 -0.0521 -0.0888  0.0805
 8181W        W26385  14.680  14.524  10.698  0.0152  0.0221 -0.2505
 8182W        W26386  10.501  14.290  15.438  0.1179  0.0616 -0.1328
 8183W        W26387  17.515   0.077  14.034  0.2999  0.1026 -0.0913
 8184W        W26388   7.776  13.984  10.909  0.0850 -0.0085 -0.2807
 8185W        W26389   1.331   2.575  12.737 -0.1167  0.3281 -0.1228
 8186W        W26390   1.646   9.124   9.774  0.1886 -0.0290 -0.0665
 8187W        W26391  12.367  16.968   4.315  0.1949  0.3274  0.1445
 8188W        W26392  13.664  13.628  11.690  0.1044 -0.1017 -0.0013
 8189W        W26393   2.330   4.490   2.434  0.1210  0.2769 -0.0729
 8190W        W26394  11.461   7.018  13.853  0.0411  0.1017  0.3791
 8191W        W26395  18.386   4.073   3.948 -0.0720  0.1429  0.0701
 8192W        W26396  10.063   4.157   3.103  0.0743 -0.0141 -0.0122
 8193W        W26397   8.855   7.263   0.159  0.1392 -0.1608 -0.2062
 8194W        W26398   9.197   1.877   4.149  0.1652 -0.0435 -0.0065
 8195W        W26399  11.929  10.390  14.948  0.2427 -0.0530 -0.1198
 8196W        W26400   5.470   6.356  12.805  0.4080 -0.0154 -0.0956
 8197W        W26401  10.722   7.189  13.163  0.1609  0.1785  0.0115
 8198W        W26402  12.548  11.916  15.138  0.0745 -0.1261 -0.0999
 8199W        W26403  10.712   9.597   1.511 -0.0705  0.0057 -0.0044
 8200W        W26404   9.454   5.376   2.689 -0.0953  0.0055 -0.1689
 8201W        W26405  17.564   7.210   1.781  0.0393  0.0847  0.1146
 8202W        W26406  16.504   8.258  14.499  0.0607  0.2295  0.1160
 8203W        W26407   7.059   5.291   2.588 -0.1372  0.3123 -0.1776
 8204W        W26408  13.740   8.113  11.861 -0.1133  0.3112 -0.5240
 8205W        W26409  14.371  11.357  11.382  0.2125 -0.0193 -0.0319
 8206W        W26410  14.851   2.176  10.816  0.2347  0.3317  0.0436
 8207W        W26411   2.175   7.725  14.042  0.1463  0.1501 -0.0870
 8208W        W26412  14.268  12.264  12.312  0.0445 -0.2610  0.2548
 8209W        W26413  10.981  11.931   1.184 -0.1354 -0.1456 -0.0285
 8210W        W26414   7.418  16.117   5.374  0.0709 -0.0781  0.2352
 8211W        W26415   2.343   0.184  14.927 -0.3894 -0.2993  0.1811
 8212W        W26416   2.975  16.212   0.456  0.1791  0.0268  0.1423
 8213W        W26417   2.615  17.867   1.639 -0.0117  0.2019  0.1000
 8214W        W26418  14.127  17.322  14.215 -0.1134  0.2679  0.0918
 8215W        W26419  13.030   9.126  10.091 -0.0430  0.1357  0.1958
 8216W        W26420   6.952   2.635   0.757 -0.1703  0.0252 -0.0473
 8217W        W26421  14.624  16.659  14.514 -0.0833  0.1523 -0.1655
 8218W        W26422   9.250  13.497   1.729  0.2864  0.0062 -0.1872
 8219W        W26423   0.740  15.197  10.572 -0.0087  0.3320 -0.0672
 8220W        W26424  10.795   9.035  15.385 -0.1471  0.1737  0.0596
 8221W        W26425   7.646   0.515   1.939  0.0914 -0.2306 -0.3221
 8222W        W26426  16.798   7.271  11.681 -0.1399 -0.3671 -0.1022
 8223W        W26427  16.421  11.266  13.065 -0.0793 -0.0551 -0.0619
 8224W        W26428  17.921   6.246   3.884  0.0999  0.0716  0.1289
 8225W        W26429   6.638   6.577   3.613  0.0236  0.1132 -0.3087
 8226W        W26430  14.551   2.259   1.225  0.1143 -0.2836 -0.0117
 8227W        W26431   5.692  10.788   4.290 -0.0201  0.1831 -0.1006
 8228W        W26432   0.405   9.841  10.536 -0.1252  0.1585 -0.0646
 8229W        W26433   1.951  14.363   4.266 -0.1419  0.1977  0.2405
 8230W        W26434   7.123   5.190   0.187 -0.1603  0.1116 -0.1393
 8231W        W26435  13.965   3.891   4.260 -0.1720  0.0889  0.1220
 8232W        W26436   4.671   7.399   4.273  0.3320 -0.1040  0.0190
 8233W        W26437   9.318   6.390  15.464 -0.0995  0.4332 -0.3027
 8234W        W26438   3.415   1.095  11.936  0.4083 -0.0117  0.1013
 8235W        W26439   3.284  12.221   4.255  0.0547 -0.0769  0.0939
 8236W        W26440  16.556   3.469  13.135  0.1924  0.1274 -0.0764
 8237W        W26441   9.776  14.936   2.039 -0.3046 -0.0303 -0.1061
 8238W        W26442  15.618  10.543   4.885  0.0060 -0.2553 -0.2756
 8239W        W26443  18.190   6.641   0.899 -0.0390  0.0206 -0.3703
 8240W        W26444  17.691   2.845  15.012  0.1817 -0.0945 -0.0670
 8241W        W26445   3.714   3.564   3.645  0.1000 -0.2431  0.1087
 8242W        W26446  14.970   3.221   4.011  0.0123  0.3306  0.0524
 8243W        W26447   6.910   2.533   2.392 -0.3573 -0.3499  0.3063
 8244W        W26448   2.432   4.480   4.257  0.3429 -0.3732 -0.0407
 8245W        W26449  14.488  18.497   3.908  0.2263  0.0755 -0.0656
 8246W        W26450   2.531  17.061  12.624 -0.1088  0.0492 -0.1519
 8247W        W26451  13.748  11.691   4.263 -0.0467 -0.1576 -0.1562
 8248W        W26452  16.409  17.187   3.360 -0.0668  0.0759  0.3661
 8249W        W26453  12.974  13.097  14.280  0.4099 -0.1840  0.1152
 8250W        W26454   1.315   7.914  13.649  0.0554  0.1540  0.2696
 8251W        W26455   7.741   8.722   4.565 -0.0142  0.1233 -0.0059
 8252W        W26456   6.788  10.888  12.338  0.1743  0.0503  0.2154
 8253W        W26457   7.979  13.728  13.410 -0.0362 -0.0029  0.2324
 8254W        W26458  13.767   8.051   0.724 -0.2989  0.0550 -0.4284
 8255W        W26459  15.108   4.374   1.498 -0.0900 -0.0470  0.2174
 8256W        W26460   5.635  10.140   1.938 -0.1139 -0.1017  0.1943
 8257W        W26461   8.732   6.864   2.137 -0.0706  0.2027  0.0823
 8258W        W26462   4.954   5.883  13.524 -0.0800 -0.0446 -0.1884
 8259W        W26463  13.159   2.382  12.912 -0.0445 -0.2485  0.2411
 8260W        W26464   2.264   1.544   4.694  0.1331  0.1040 -0.0125
 8261W        W26465  15.129  13.993   3.749 -0.0548  0.1109 -0.0244
 8262W        W26466   7.273  16.896   2.359 -0.4366  0.0773  0.1211
 8263W        W26467  11.773  12.376   0.482 -0.0413 -0.0506 -0.1476
 8264W        W26468  14.033   1.662  11.935 -0.1885 -0.2359  0.2094
 8265W        W26469  18.111  16.729   3.400 -0.1766  0.1977 -0.0055
 8266W        W26470   3.450   1.991  14.454 -0.0530  0.2935 -0.1432
 8267W        W26471  12.035  13.000  12.148 -0.0429  0.0553 -0.1122
 8268W        W26472  10.697   6.684   0.684  0.2231  0.0271 -0.0675
 8269W        W26473  13.490  16.911  12.342  0.0469  0.3467  0.2051
 8270W        W26474  17.239  11.170  10.592 -0.2794 -0.0315  0.1659
 8271W        W26475   7.465   7.201   4.478 -0.0262  0.2007  0.0737
 8272W        W26476   9.032   6.466  11.499 -0.1543  0.1801 -0.0297
 8273W        W26477  18.557   6.946  13.016 -0.0561  0.1487  0.1909
 8274W        W26478   1.485   8.281   0.638  0.2735  0.1242  0.1656
 8275W        W26479   1.485   1.286  14.626 -0.0820 -0.2669  0.2552
 8276W        W26480   6.588  15.823   1.565 -0.0042 -0.1149  0.0181
 8277W        W26481  12.840   1.251   2.286 -0.4475 -0.0787 -0.0619
 8278W        W26482   4.284  17.360   3.698  0.1059 -0.3104 -0.1802
 8279W        W26483   4.202  11.469  13.996 -0.0266 -0.2852  0.0192
 8280W        W26484   2.584  10.466  12.761  0.1365 -0.1264  0.1677
 8281W        W26485   3.955   2.100  14.643 -0.0366  0.0722  0.1480
 8282W        W26486  18.113  11.538  14.923 -0.4093 -0.1309 -0.1150
 8283W        W26487   2.734   9.579   1.852  0.1408  0.0604  0.3280
 8284W        W26488   4.267   9.594   0.218  0.0213  0.3800  0.2523
 8285W        W26489   4.836  13.642   0.157  0.0254  0.1225 -0.0889
 8286W        W26490   4.361   2.267  11.818  0.0575  0.2076 -0.1571
 8287W        W26491  15.428   0.553  15.331 -0.3507  0.4184 -0.1768
 8288W        W26492   8.706   9.339  14.458 -0.2900 -0.1305 -0.1620
 8289W        W26493   0.998   0.673   4.214 -0.2953 -0.0972 -0.1332
 8290W        W26494   3.938   3.663  14.022 -0.4243 -0.0475  0.0329
 8291W        W26495   9.909  10.327   2.029  0.3725  0.3018  0.0746
 8292W        W26496   7.296   5.065   2.135 -0.0746  0.0125 -0.0138
 8293W        W26497   9.730  14.617   3.954 -0.0742  0.1844  0.1835
 8294W        W26498  14.369   5.416   5.837 -0.0948 -0.0711  0.0488
 8295W        W26499   5.090  10.623   1.195  0.2016 -0.0133  0.3802
 8296W        W26500   7.182   4.690   0.504 -0.4203  0.1292  0.2309
 8297W        W26501  13.109  10.925   1.711 -0.0955 -0.1152 -0.0194
 8298W        W26502  10.785   3.555   3.439 -0.1435 -0.2801 -0.1116
 8299W        W26503  13.901   0.331   3.312 -0.0055  0.0877  0.2502
 8300W        W26504   7.006  15.326  13.100 -0.1129  0.1379 -0.0202
 8301W        W26505   8.452  13.588  12.448 -0.1296  0.0473 -0.0778
 8302W        W26506   1.232  12.306  13.578  0.4387  0.0127 -0.1411
 8303W        W26507   9.870  11.333   1.902  0.2522  0.2373  0.0942
 8304W        W26508   5.299   6.801   3.667  0.0817  0.0433  0.3178
 8305W        W26509  16.225   4.254  14.872  0.1073 -0.2090 -0.1655
 8306W        W26510  11.539  13.376   3.671  0.1803 -0.3419 -0.1257
 8307W        W26511   1.170  17.135  13.737  0.0833 -0.1867 -0.1218
 8308W        W26512   2.269  10.084  12.601 -0.0666  0.0446  0.0753
 8309W        W26513  11.200   7.637  11.589 -0.1167 -0.1595 -0.2580
 8310W        W26514   0.111   7.433  14.097 -0.1401  0.3320 -0.1112
 8311W        W26515  11.539   7.167  14.906  0.0079 -0.1700 -0.0408
 8312W        W26516   0.988  11.319  11.103 -0.0009  0.1672 -0.0617
 8313W        W26517   7.729  13.411  13.138 -0.0792 -0.2345  0.0283
 8314W        W26518   7.211  11.588  11.886  0.4049 -0.0432 -0.0223
 8315W        W26519   2.242  13.485   3.629 -0.0705  0.0414  0.1470
 8316W        W26520   6.262   6.799  11.292  0.1938 -0.0053 -0.0243
 8317W        W26521   3.230  14.148  10.552 -0.2593  0.2010  0.0008
 8318W        W26522   7.048   6.199   0.219 -0.1497 -0.0607  0.3129
 8319W        W26523   9.196  15.499   3.815  0.2407 -0.0639 -0.2517
 8320W        W26524  17.966   1.585   4.319  0.0395 -0.0320 -0.0991
 8321W        W26525   9.054  14.179  14.986 -0.3125  0.0156 -0.0205
 8322W        W26526   2.630  10.052  14.312  0.1254 -0.1678  0.0031
 8323W        W26527  14.449  18.277  15.046 -0.0252 -0.0516 -0.0013
 8324W        W26528  11.267  16.767  11.300  0.0737  0.2667 -0.3098
 8325W        W26529  11.644  16.192   2.803  0.1300 -0.1216  0.0882
 8326W        W26530  17.015  11.676   0.328 -0.4324  0.1942  0.0207
 8327W        W26531  13.590   5.830  10.919 -0.1013 -0.0753 -0.0872
 8328W        W26532   4.936  13.855   3.985 -0.0141 -0.3757 -0.0241
 8329W        W26533  11.970  12.353  10.750 -0.2190  0.1152 -0.0835
 8330W        W26534  16.667   0.911   0.224 -0.0675 -0.0009 -0.0809
 8331W        W26535   5.260   5.455   2.768  0.1580 -0.3377 -0.2538
 8332W        W26536   0.279   3.904  14.754  0.0654  0.2737 -0.1832
 8333W        W26537   3.431   3.836   3.966 -0.1241  0.1032 -0.2547
 8334W        W26538  11.441  11.797   0.644 -0.1554 -0.2651 -0.0875
 8335W        W26539   5.180   3.882   2.175  0.0383 -0.2662  0.1946
 8336W        W26540  16.867  16.769  13.795  0.1256 -0.3362  0.0078
 8337W        W26541   4.230  16.307  12.128  0.0968 -0.0715  0.3591
 8338W        W26542   9.616  17.486   0.275 -0.1115 -0.1936 -0.5263
 8339W        W26543   3.022   2.399  14.600 -0.2107  0.2541  0.2089
 8340W        W26544   1.099   9.479   0.428  0.4368 -0.0025 -0.0611
 8341W        W26545   9.226  10.588  12.795  0.4159  0.0151 -0.2055
 8342W        W26546   7.369  18.189   0.215 -0.0006 -0.0262 -0.1082
 8343W        W26547   7.280  14.724   2.650  0.1040  0.0469  0.2928
 8344W        W26548   9.417   4.481  13.917 -0.0777  0.1400  0.1547
 8345W        W26549   2.067  15.759   3.403  0.3607  0.2145  0.1380
 8346W        W26550  11.856  15.963  12.880  0.0865 -0.0685  0.0075
 8347W        W26551   1.357  17.511   3.100  0.3455 -0.1485 -0.2000
 8348W        W26552  14.080  11.195   2.324 -0.1316  0.0459 -0.1562
 8349W        W26553   4.368   9.264  10.804  0.1517 -0.1795  0.2445
 8350W        W26554  14.184  16.420   4.330 -0.0259 -0.1471  0.2109
 8351W        W26555   5.047   8.261   4.333 -0.1000  0.4059 -0.1376
 8352W        W26556  11.670   9.976  12.961  0.0319 -0.1738  0.3106
 8353W        W26557   6.914  18.037  13.754 -0.0286  0.0662 -0.2164
 8354W        W26558  17.562   6.045  13.369  0.1260  0.0639  0.0346
 8355W        W26559   1.249   2.037   3.952  0.1448  0.0626 -0.2651
 8356W        W26560   4.100  10.251  12.032 -0.1596  0.0534  0.3122
 8357W        W26561  12.315  13.611  11.503  0.1821  0.2498 -0.0039
 8358W        W26562  16.564   3.527  12.122 -0.1715  0.1849 -0.0340
 8359W        W26563  10.689  11.667  11.049  0.0520  0.1755  0.0470
 8360W        W26564  16.218   3.213  13.448  0.0444  0.0023  0.0092
 8361W        W26565   1.341  10.946  11.270  0.2782 -0.0222 -0.0109
 8362W        W26566   1.443   3.246   1.950 -0.2337 -0.0608 -0.0318
 8363W        W26567   7.908  16.243   0.567  0.2600  0.3464 -0.2589
 8364W        W26568   7.403   5.093  10.168  0.0187 -0.0550  0.4220
 8365W        W26569  14.111   4.921  11.943 -0.0243 -0.1225  0.0713
 8366W        W26570  13.308   1.744   1.486  0.2207 -0.1760  0.1108
 8367W        W26571   1.927   9.788  13.411 -0.0450  0.0796  0.3191
 8368W        W26572  17.676   1.382  15.129  0.3670 -0.2418  0.1364
 8369W        W26573  13.266  10.550  11.603 -0.1473 -0.2471  0.0379
 8370W        W26574   6.508   4.298   2.567  0.0451  0.3648 -0.0195
 8371W        W26575   9.127   2.330   3.033 -0.1157 -0.0437 -0.1887
 8372W        W26576   5.602   3.257   3.277  0.2440 -0.4424 -0.3415
 8373W        W26577   3.628   4.040   2.282 -0.1959  0.0945  0.2345
 8374W        W26578  14.750  14.059  13.725  0.0317  0.1118 -0.0809
 8375W        W26579   5.617   1.264  12.840 -0.0244 -0.0572 -0.0701
 8376W        W26580   3.826   0.357   2.645 -0.0890  0.1012 -0.4155
 8377W        W26581   0.710   7.922  11.707  0.0562  0.3386 -0.3408
 8378W        W26582   4.381   7.358   2.865  0.2798  0.0458  0.1707
 8379W        W26583   9.390  12.179   5.491  0.0300 -0.0229  0.0653
 8380W        W26584  11.845   5.732   3.577 -0.1308 -0.2703  0.0865
 8381W        W26585   1.846  11.308   5.541 -0.0297 -0.0215  0.0507
 8382W        W26586   2.725   9.118  14.227 -0.0754  0.0564  0.1964
 8383W        W26587  12.834   4.372   0.230 -0.2183  0.0262  0.2578
 8384W        W26588  11.383   5.365   0.697 -0.1483  0.0432 -0.2004
 8385W        W26589  17.030  16.138  14.372 -0.1345 -0.1762  0.0249
 8386W        W26590  13.073   7.829  13.283 -0.1121 -0.3509  0.0226
 8387W        W26591   8.570   9.715   4.615  0.0111 -0.0121 -0.0772
 8388W        W26592   8.795  12.701   2.397  0.0449 -0.0580  0.1330
 8389W        W26593   4.567  11.838   1.026  0.0484  0.1116  0.2071
 8390W        W26594  14.234   1.450  12.817  0.1125  0.2270  0.0743
 8391W        W26595  11.248   8.016  11.871 -0.0233  0.0579  0.0365
 8392W        W26596   1.031   3.865  14.316 -0.2767  0.0363 -0.1476
 8393W        W26597   2.435  14.543   4.207  0.0043 -0.0200 -0.2650
 8394W        W26598  10.974  10.860  12.519  0.0264 -0.0285  0.2569
 8395W        W26599  16.039   3.954  13.762  0.0733 -0.0624  0.2332
 8396W        W26600   9.567   0.360   3.893  0.5164 -0.0375  0.1699
 8397W        W26601   1.959   0.415   2.711  0.3504  0.2331 -0.1957
 8398W        W26602   1.150   8.086  14.735 -0.2129  0.0244 -0.1127
 8399W        W26603   5.107  17.633  14.046 -0.0972  0.3235 -0.0456
 8400W        W26604  15.561  13.725  14.818  0.0509  0.1411 -0.0355
 8401W        W26605  13.021   5.827   1.365  0.1325 -0.0473 -0.0671
 8402W        W26606   2.748   5.506  14.642 -0.0262 -0.0602  0.1442
 8403W        W26607   0.211  10.696  12.152 -0.3164 -0.0780  0.3445
 8404W        W26608  10.263  13.631  11.583  0.1879 -0.1789  0.3850
 8405W        W26609  15.748   4.883   2.500  0.3021 -0.2278 -0.2628
 8406W        W26610   2.632  16.946  13.235 -0.0751 -0.1110  0.0912
 8407W        W26611  13.124   9.739  14.402  0.1046 -0.0176  0.3277
 8408W        W26612  15.151   0.898   1.989 -0.1716 -0.2338 -0.0239
 8409W        W26613  16.169  17.821   0.454 -0.0302 -0.1969  0.3695
 8410W        W26614  14.905  14.055  11.561 -0.1903 -0.0195  0.2673
 8411W        W26615  13.530   0.806  13.000 -0.0473  0.0521 -0.1194
 8412W        W26616  11.511   2.985   1.668 -0.0439 -0.1002  0.1163
 8413W        W26617   5.528  10.396  15.343  0.2873  0.1811 -0.0615
 8414W        W26618   5.454   1.793   2.290 -0.0997  0.0723 -0.0473
 8415W        W26619   5.886   1.144   4.144  0.0358  0.3226  0.2745
 8416W        W26620   7.215   9.153   0.826 -0.2825  0.3460 -0.0732
 8417W        W26621  13.101  13.914  11.961 -0.2435  0.2144 -0.2138
 8418W        W26622  14.343   0.733  10.987  0.1126 -0.0072  0.3996
 8419W        W26623  12.362   0.333  13.626 -0.1060 -0.1991  0.3309
 8420W        W26624  13.794  17.187  11.633 -0.0833 -0.2508 -0.1155
 8421W        W26625  18.596   1.446  11.912  0.1319 -0.0171 -0.2213
 8422W        W26626  10.739  13.122  13.693  0.0860  0.1944 -0.4310
 8423W        W26627  16.935  13.463  13.908 -0.0435  0.1655 -0.0338
 8424W        W26628  15.816   7.533  12.219 -0.1189 -0.2778  0.1901
 8425W        W26629   9.132  11.525  11.372  0.0539 -0.1759  0.0919
 8426W        W26630   1.260  17.365  11.593 -0.0652  0.1006  0.5307
 8427W        W26631   9.054  13.132   0.303 -0.1630 -0.1584  0.5281
 8428W        W26632  12.622  15.337   1.547 -0.1846  0.1432  0.3457
 8429W        W26633  10.830  16.176   4.261  0.2302  0.1912  0.1604
 8430W        W26634   8.247   6.487  15.254 -0.1756  0.2308 -0.1516
 8431W        W26635   0.758  16.214   3.850  0.2513 -0.3718 -0.4777
 8432W        W26636  12.443   8.877   1.039 -0.0132  0.1050  0.1076
 8433W        W26637   9.867   7.681   1.907  0.2500  0.0431  0.0479
 8434W        W26638   6.591  12.301   4.708 -0.0839 -0.0186  0.1170
 8435W        W26639   3.801  17.920  12.008 -0.3745  0.4493 -0.3130
 8436W        W26640   4.532   1.778  12.587 -0.4116  0.0222 -0.0582
 8437W        W26641  10.691   4.343  13.322 -0.0524  0.1596  0.0840
 8438W        W26642  11.819  16.017   4.404  0.0254 -0.2193 -0.0037
 8439W        W26643  15.864  12.028  13.722 -0.0172  0.0284  0.0332
 8440W        W26644  11.247  14.686  14.321 -0.0028  0.0770 -0.1317
 8441W        W26645   8.686  18.667  11.159  0.4012 -0.1111  0.3300
 8442W        W26646  13.145  11.343   0.806  0.2815  0.0633  0.2854
 8443W        W26647   5.719  14.876   4.639  0.4341 -0.2037  0.1720
 8444W        W26648  10.598  18.633   3.809 -0.0040  0.1752 -0.0694
 8445W        W26649   6.729  17.505   4.145  0.0084  0.3891  0.0037
 8446W        W26650  11.302   8.020  12.733 -0.0447 -0.0924  0.0667
 8447W        W26651  14.418  16.555   0.533 -0.1439  0.0760  0.0146
 8448W        W26652  17.306  18.633  11.793  0.3208  0.1887  0.0740
 8449W        W26653   8.672   1.309   2.352 -0.3668 -0.0578 -0.1470
 8450W        W26654  11.729   7.470  13.381  0.2648 -0.2098  0.1010
 8451W        W26655   8.882  16.120  13.556  0.0292 -0.0424  0.1346
 8452W        W26656  17.249  15.786   0.447 -0.0293  0.1436 -0.2597
 8453W        W26657   7.313   8.354  13.274  0.1526  0.4818 -0.2224
 8454W        W26658  15.042   3.838  11.466 -0.1599  0.0517 -0.0604
 8455W        W26659   7.692  13.479  11.167 -0.0289 -0.0400  0.0607
 8456W        W26660   4.198   1.668   0.020  0.0264  0.1026 -0.1024
 8457W        W26661   7.825  10.400   1.299  0.0124 -0.3388 -0.1151
 8458W        W26662  16.335   8.450  12.192  0.2668 -0.2745  0.3365
 8459W        W26663   0.254  16.917  14.762  0.3044  0.2320  0.0180
 8460W        W26664  11.376  15.477   1.480 -0.0120 -0.0491  0.2349
 8461W        W26665   5.018  13.313  11.597  0.2699  0.1909 -0.2359
 8462W        W26666   0.964   9.814   2.828 -0.0758  0.2395  0.0987
 8463W        W26667   0.619  10.466  13.521  0.0455 -0.0528  0.2887
 8464W        W26668   9.045  12.624  11.646 -0.1044  0.0106 -0.1196
 8465W        W26669  11.165  13.871  12.663 -0.2230  0.1671  0.0094
 8466W        W26670  12.917   5.637  13.535  0.0009 -0.0084 -0.2437
 8467W        W26671  17.818   2.151  12.363 -0.0793  0.0097 -0.1842
 8468W        W26672  13.980   9.506  11.067  0.1415  0.0700  0.0479
 8469W        W26673   2.182   8.907   3.007  0.1284 -0.0759 -0.1081
 8470W        W26674   6.337  17.848   2.502  0.0758 -0.2840  0.1978
 8471W        W26675  12.094  11.594   1.157  0.1947  0.0897  0.2112
 8472W        W26676  17.207   3.592  10.641 -0.2696  0.1410  0.0098
 8473W        W26677  13.719  11.639   5.064 -0.1607 -0.2667  0.0569
 8474W        W26678  11.578   1.625  13.930  0.0774 -0.1281  0.0513
 8475W        W26679  14.554  15.508  15.286 -0.2525 -0.0449  0.0601
 8476W        W26680  16.052   5.968   1.321  0.2751  0.1954 -0.0479
 8477W        W26681   8.581  12.146   5.059 -0.3449  0.1546 -0.3144
 8478W        W26682   7.276   1.379   0.669 -0.0821  0.0191 -0.1869
 8479W        W26683  11.046  17.091  13.706  0.1404 -0.1309 -0.1497
 8480W        W26684   8.569  15.149   2.433  0.1897  0.0120  0.3267
 8481W        W26685  15.786  15.573   0.967 -0.1627  0.1521 -0.0810
 8482W        W26686   1.410  10.061  11.560  0.0051 -0.2169  0.2083
 8483W        W26687  10.131  11.600   0.730  0.2573  0.0881 -0.3932
 8484W        W26688   0.595   9.478   4.134 -0.0684  0.0496 -0.0052
 8485W        W26689  11.015   5.773  12.404 -0.1530  0.0273 -0.2598
 8486W        W26690   6.164  15.658   9.566  0.0150  0.0126  0.2054
 8487W        W26691   0.259  14.736   2.984 -0.3398 -0.0154 -0.1350
 8488W        W26692   8.499  14.427  10.094  0.3474 -0.0936  0.1366
 8489W        W26693   7.109  17.499   0.379  0.0166  0.1886  0.1987
 8490W        W26694  15.077   0.311  15.004  0.0330  0.0938  0.0380
 8491W        W26695   5.176   5.580   3.304  0.1131  0.0364 -0.1757
 8492W        W26696  11.112  15.409  14.202  0.0913 -0.1164 -0.0923
 8493W        W26697   3.315  17.628   0.937  0.0264 -0.1293 -0.0981
 8494W        W26698  10.160   4.601   0.490 -0.4043 -0.0893  0.0743
 8495W        W26699   8.586  15.967   0.108 -0.2642  0.1734 -0.0032
 8496W        W26700  15.367   9.745   2.653 -0.1231 -0.3467 -0.0542
 8497W        W26701  10.971   4.757   1.735  0.1543  0.0206 -0.0571
 8498W        W26702   4.245  16.365   3.075  0.2083  0.2334  0.1140
 8499W        W26703   4.339  16.026   2.692 -0.4510 -0.1542 -0.0602
 8500W        W26704   0.707   5.174   1.766  0.1406  0.1340 -0.3183
 8501W        W26705  12.256   6.125  10.073 -0.4568 -0.0573 -0.0804
 8502W        W26706   6.918  17.665   4.611 -0.1288 -0.1513  0.1184
 8503W        W26707  14.879  12.006  12.317  0.0707 -0.0889 -0.0462
 8504W        W26708   9.102   4.100  12.003 -0.0840 -0.0239 -0.1159
 8505W        W26709  10.638   9.695  12.056  0.2228 -0.2438 -0.0134
 8506W        W26710   7.459   2.671  12.865  0.1795 -0.3407  0.2052
 8507W        W26711   3.412   6.102   3.084  0.0751 -0.0994  0.1387
 8508W        W26712  17.254   7.529  14.809 -0.3087  0.0004 -0.0686
 8509W        W26713   3.752  11.928  12.148 -0.2003 -0.0303  0.1307
 8510W        W26714   3.588   8.486  14.891 -0.1666 -0.2969 -0.1490
 8511W        W26715  11.181  14.554   0.397 -0.2373  0.1208 -0.0850
 8512W        W26716  10.851  12.961   1.484  0.0489 -0.1229 -0.3766
 8513W        W26717   9.614  17.478  12.682 -0.0123 -0.1089 -0.1237
 8514W        W26718   2.675   3.005   1.382  0.1583  0.2577  0.1669
 8515W        W26719  10.013  11.386  11.045  0.0831  0.1306  0.0091
 8516W        W26720  16.341   8.625   2.489 -0.1383  0.2369 -0.3094
 8517W        W26721  14.639  16.680   1.477  0.1586 -0.1634 -0.1127
 8518W        W26722   8.322  17.876  13.809  0.2530 -0.1476 -0.3875
 8519W        W26723   7.174   9.403   1.807 -0.2264 -0.0915 -0.3277
 8520W        W26724   2.770  11.781   1.025  0.0569 -0.3636  0.1557
 8521W        W26725   5.157   7.963   3.749  0.3885  0.0972 -0.2755
 8522W        W26726  11.050  14.868  13.819 -0.1374 -0.1392  0.0087
 8523W        W26727   1.086   4.631   4.441  0.0006  0.0182 -0.0183
 8524W        W26728   4.373  18.195  10.325 -0.3315 -0.1914  0.0278
 8525W        W26729   2.805   8.178   4.767  0.0502  0.3387  0.2272
 8526W        W26730  15.265  16.414  12.815  0.3744 -0.0115  0.2623
 8527W        W26731  16.148   4.713  14.711 -0.0671  0.2680  0.0105
 8528W        W26732   6.984  11.252   2.503  0.0938 -0.2415  0.0368
 8529W        W26733  13.073   5.412  14.539  0.1339  0.0769 -0.0674
 8530W        W26734  13.528   7.543  13.153  0.0098 -0.3223  0.5322
 8531W        W26735  13.672  15.622  13.369 -0.1617 -0.1101 -0.0415
 8532W        W26736   6.092   3.440   3.880 -0.1106  0.1344 -0.0209
 8533W        W26737   6.393  13.336   4.821  0.0146 -0.0061 -0.0759
 8534W        W26738  11.541  16.321  15.317  0.2922  0.2466  0.1754
 8535W        W26739   0.319   4.506  13.212  0.0072  0.1307  0.1711
 8536W        W26740   9.181  11.219  12.880  0.0976  0.1132 -0.0134
 8537W        W26741  18.646   4.483   3.674 -0.0779  0.1812  0.1379
 8538W        W26742   6.218  15.492  12.271  0.0980 -0.2888  0.0878
 8539W        W26743   7.287  18.408   4.816  0.1823 -0.2025 -0.1218
 8540W        W26744   2.799  15.764  14.991  0.0210  0.0552 -0.0642
 8541W        W26745   6.431  14.261  13.018 -0.1167 -0.0027 -0.0582
 8542W        W26746  12.373  12.386  11.139 -0.2326 -0.0735 -0.1844
 8543W        W26747   2.377  17.240  15.095  0.1593  0.1242  0.2373
 8544W        W26748   1.628   5.125   4.532 -0.2867 -0.3926  0.0219
 8545W        W26749   2.340  13.181  15.174  0.1264  0.2035 -0.2396
 8546W        W26750   1.187  18.154   3.243 -0.2984 -0.0642  0.1570
 8547W        W26751  12.449  13.032  12.385 -0.1930  0.1923  0.2710
 8548W        W26752  12.237   5.604   0.348 -0.1564  0.0018 -0.0599
 8549W        W26753   0.422  13.370  13.750  0.1617  0.0338 -0.2841
 8550W        W26754   1.988   1.390   0.208  0.0616  0.2662  0.0659
 8551W        W26755   0.401   9.022  13.135  0.2203 -0.1117  0.0746
 8552W        W26756  18.323  10.241   1.690 -0.1258 -0.0269  0.0449
 8553W        W26757  18.043   4.710  12.095 -0.0313 -0.0308  0.1671
 8554W        W26758  15.812  14.905  11.695  0.2079  0.1663  0.2150
 8555W        W26759  11.783  12.484   2.557 -0.2134  0.3240  0.0585
 8556W        W26760  11.343  12.262   1.385  0.1256  0.0413  0.1154
 8557W        W26761   6.051  16.885  11.644 -0.2532 -0.0506 -0.0731
 8558W        W26762   9.511  13.484  14.705  0.0803 -0.2251  0.0956
 8559W        W26763  13.887  16.816   5.602  0.0766 -0.0167  0.4053
 8560W        W26764  12.654  10.712   1.666  0.3926 -0.1440  0.1646
 8561W        W26765   5.420  14.013   4.327  0.2274  0.1174  0.1097
 8562W        W26766  10.036   2.410   4.735  0.2442  0.1064 -0.0652
 8563W        W26767   1.001   6.979  15.447  0.1029  0.2918 -0.4461
 8564W        W26768   9.423   6.698   1.041  0.1469 -0.2950 -0.2548
 8565W        W26769   1.144  12.307   0.797 -0.1582  0.1925  0.0854
 8566W        W26770   6.829   3.807  12.716 -0.1778  0.1153  0.0860
 8567W        W26771  14.660   4.696  15.021 -0.0366 -0.0506  0.0245
 8568W        W26772   8.157  16.456  14.001  0.2161 -0.2213 -0.0644
 8569W        W26773  15.830   3.509   3.739 -0.0560  0.0007 -0.0107
 8570W        W26774   2.075  10.184  15.155  0.1032  0.1152  0.0683
 8571W        W26775  17.081  12.613  12.705  0.0627 -0.0198  0.0238
 8572W        W26776   1.099   2.353   2.940 -0.2470 -0.1454 -0.0691
 8573W        W26777   0.183  15.633  15.234  0.2186  0.1857  0.2379
 8574W        W26778   3.123   9.969  11.489 -0.0474 -0.1267 -0.3760
 8575W        W26779   9.145   4.217  10.712 -0.0696  0.1021 -0.3947
 8576W        W26780  10.649   8.078   1.909  0.1374  0.0268  0.2615
 8577W        W26781   2.395  17.513   0.198 -0.1198 -0.2832  0.2736
 8578W        W26782  11.046   7.163  12.715 -0.0008 -0.3392 -0.0905
 8579W        W26783   3.676  17.254   2.046 -0.1454  0.1241 -0.3597
 8580W        W26784   2.342  16.119   1.306 -0.1356 -0.0120  0.0100
 8581W        W26785   2.418   7.899  13.221  0.2010  0.2071  0.1559
 8582W        W26786   2.208  10.298   4.612  0.0469  0.1630  0.1821
 8583W        W26787  12.076   9.722   0.241 -0.0386  0.2640  0.0739
 8584W        W26788   1.312   1.195   2.433  0.3010  0.0471 -0.3054
 8585W        W26789   0.385   8.008  12.210  0.1969  0.2053  0.1252
 8586W        W26790   7.110   6.022  10.998  0.0926  0.0088 -0.0150
 8587W        W26791   1.591   8.470   4.258  0.2658  0.0443 -0.0869
 8588W        W26792  10.775  16.650   0.408 -0.0607  0.1063 -0.1261
 8589W        W26793  12.202   2.055   2.653 -0.1673  0.1262  0.3035
 8590W        W26794   6.761   3.855   0.549  0.1798  0.3482 -0.0513
 8591W        W26795  15.972  17.709   1.724  0.3678  0.1723  0.0231
 8592W        W26796  15.263   2.118  13.888 -0.0180 -0.2342  0.1393
 8593W        W26797   3.281   8.698  14.561 -0.0647  0.1030  0.0598
 8594W        W26798  10.369  13.474  13.523 -0.0510  0.2572 -0.1238
 8595W        W26799   5.806   9.160  13.323  0.3544  0.3181 -0.1103
 8596W        W26800  14.376  16.348  13.769  0.3040  0.1743 -0.0257
 8597W        W26801   4.672  13.053  13.650 -0.0926 -0.0092 -0.0571
 8598W        W26802  14.607   9.960  12.747 -0.0529  0.3371 -0.2550
 8599W        W26803   3.320  13.454  12.127  0.0591  0.0556  0.0600
 8600W        W26804   9.015   5.839  14.501  0.0371  0.0550  0.1191
 8601W        W26805   3.297  18.186  14.728 -0.1161 -0.1711 -0.1252
 8602W        W26806  17.949   6.961  11.743 -0.1188 -0.1157  0.1363
 8603W        W26807   8.407   2.722  13.834  0.2469 -0.0120  0.0198
 8604W        W26808  13.156   0.603   2.168 -0.2674  0.0202  0.3591
 8605W        W26809  11.799   6.882   2.964  0.1135  0.3201  0.1562
 8606W        W26810   9.331  14.499   3.585  0.0509 -0.0766  0.3462
 8607W        W26811   6.139  17.790   0.826 -0.1938  0.1333  0.3673
 8608W        W26812  16.732   6.315   3.542 -0.1410 -0.2270  0.1380
 8609W        W26813   0.940   9.701  15.369  0.2503 -0.0404  0.0633
 8610W        W26814   1.334  10.308  10.695  0.2939  0.0961  0.1195
 8611W        W26815   1.356   3.166  14.565 -0.1205  0.1281  0.2008
 8612W        W26816  16.771   2.582   3.216 -0.1341 -0.2023  0.2750
 8613W        W26817   6.113   8.779  11.112  0.4786 -0.2274  0.0860
 8614W        W26818   6.284   8.958   2.426 -0.0174  0.0000  0.1337
 8615W        W26819   0.993  15.244  15.018 -0.0400 -0.0313  0.0274
 8616W        W26820  11.105  18.679   4.456 -0.0837 -0.2254  0.1199
 8617W        W26821   6.091   2.392   0.833  0.2260  0.1332 -0.1860
 8618W        W26822   1.092  12.190  11.041 -0.0094  0.1743 -0.1391
 8619W        W26823   5.096  13.756  11.954 -0.0000 -0.1191 -0.0093
 8620W        W26824   6.844   4.943  14.261 -0.2630 -0.0629 -0.0708
 8621W        W26825   4.505   3.260   3.961  0.2178 -0.0836 -0.0923
 8622W        W26826  14.956  11.808  12.777 -0.0661  0.1776  0.3695
 8623W        W26827   6.191  13.150   1.729  0.1829  0.2410 -0.2355
 8624W        W26828   8.467   7.170   1.724 -0.0573 -0.0664 -0.0976
 8625W        W26829   7.637  13.154   3.023  0.0808  0.2429  0.0145
 8626W        W26830  12.073   7.092   1.337  0.0016 -0.0224 -0.0887
 8627W        W26831  11.523   2.072  11.011 -0.2463  0.0989 -0.1176
 8628W        W26832   9.597   3.982   3.895 -0.0500 -0.1599  0.2054
 8629W        W26833  10.913   0.169   0.716 -0.2534 -0.2262  0.0175
 8630W        W26834   0.138  12.143  15.255 -0.0116 -0.6501 -0.1479
 8631W        W26835  17.884  18.528   3.515  0.1850 -0.0570 -0.0610
 8632W        W26836   3.076   5.728   0.531  0.0079 -0.3733 -0.2123
 8633W        W26837   7.983  16.761  14.480 -0.1584 -0.1886 -0.2330
 8634W        W26838   6.359  11.006  15.215  0.0791  0.0430  0.0367
 8635W        W26839  12.734   1.738  14.058 -0.0907 -0.2899 -0.0322
 8636W        W26840  11.039  12.297   3.156 -0.0760 -0.1452 -0.2783
 8637W        W26841  16.280   6.227   3.787 -0.3459 -0.0293  0.0987
 8638W        W26842   3.214   5.655   1.115 -0.1348 -0.2417  0.0631
 8639W        W26843  14.241  17.541  12.112 -0.0448  0.5277  0.3420
 8640W        W26844   3.457  13.790   2.100  0.2754  0.1709 -0.3556
 8641W        W26845  12.592   4.289  14.371 -0.1939 -0.2119 -0.2447
 8642W        W26846  16.949   5.165  14.766  0.2096 -0.5078  0.0549
 8643W        W26847  15.827   5.095   1.570 -0.1227  0.0683 -0.4197
 8644W        W26848   1.302   9.964   3.880  0.2694 -0.0539 -0.1729
 8645W        W26849   6.615   7.575  15.260  0.3051 -0.1803 -0.3690
 8646W        W26850   3.473  13.271   2.496  0.1173  0.2899 -0.0177
 8647W        W26851  17.693  17.398  10.937 -0.2033  0.0801  0.0050
 8648W        W26852   4.782   1.108  15.049  0.0749  0.0291 -0.0490
 8649W        W26853   5.936   6.585  14.666  0.1015 -0.0833 -0.2366
 8650W        W26854   5.981   7.163  15.261  0.1009 -0.3422  0.2802
 8651W        W26855  13.733   6.964  14.798 -0.2957 -0.1784 -0.0471
 8652W        W26856  15.170   9.136   0.840  0.0095 -0.0700  0.0479
 8653W        W26857  13.214  14.678  12.818  0.0613  0.1276  0.0497
 8654W        W26858  14.512  18.189   2.345  0.0341 -0.1557 -0.0102
 8655W        W26859   3.515   7.153   4.787 -0.0664 -0.1128 -0.1507
 8656W        W26860   0.058   3.687  15.209 -0.0847 -0.1447 -0.0867
 8657W        W26861   5.511   3.730   3.143 -0.2677 -0.1611  0.0084
 8658W        W26862   4.978  13.258   3.641  0.3507 -0.2455 -0.3390
 8659W        W26863   6.768   6.768   1.345 -0.0274 -0.1950 -0.0115
 8660W        W26864   3.385  11.702  12.751  0.2533  0.1647 -0.1748
 8661W        W26865  12.179  16.876   0.268  0.0054  0.0508  0.2494
 8662W        W26866  15.715  13.392  13.169 -0.0374 -0.0423 -0.2048
 8663W        W26867  16.057   6.694  11.105  0.0506  0.1499  0.1516
 8664W        W26868  13.828   5.244   0.509 -0.2233 -0.0510 -0.1883
 8665W        W26869  17.283  17.060   4.878  0.2223  0.3120  0.0984
 8666W        W26870   6.481   5.326  10.635 -0.1091  0.2718  0.1049
 8667W        W26871  15.846   2.681   1.006  0.3466  0.0513 -0.2533
 8668W        W26872   0.315   7.585  11.703 -0.0487 -0.0808  0.0625
 8669W        W26873   4.467   8.133  14.735 -0.2000 -0.0506  0.2211
 8670W        W26874   5.295  13.617   0.953 -0.3251 -0.2068 -0.2689
 8671W        W26875  16.653  18.565   4.570 -0.4767  0.1847  0.2319
 8672W        W26876  13.189   1.752  12.908  0.0990  0.0052 -0.0323
 8673W        W26877  10.339  13.398   5.018  0.2608 -0.2788 -0.3509
 8674W        W26878  15.563  11.678  14.014 -0.1832 -0.0793  0.2368
 8675W        W26879  13.260   6.027   0.931  0.1130 -0.1484  0.1620
 8676W        W26880  13.029  11.745   1.152 -0.2253 -0.3178 -0.0984
 8677W        W26881  13.214  15.871  13.065 -0.0198 -0.1921  0.1874
 8678W        W26882   3.681   1.846  12.268 -0.0849 -0.2048  0.2313
 8679W        W26883  10.839   1.233  10.886 -0.1076  0.0701 -0.0361
 8680W        W26884  14.140   8.005  14.841  0.2171 -0.0813  0.3005
 8681W        W26885   0.833   0.837  15.361 -0.0155 -0.1821 -0.0736
 8682W        W26886   8.054  11.660  13.480 -0.2139 -0.0856  0.1953
 8683W        W26887   7.393   5.079  13.753  0.1793 -0.2531 -0.0154
 8684W        W26888   7.027  10.080  15.002 -0.1173 -0.1835 -0.4260
 8685W        W26889  16.814   8.656   2.665 -0.0259  0.1355  0.1938
 8686W        W26890   9.677   1.427  13.858  0.1252  0.1783  0.1005
 8687W        W26891  17.107  14.468  12.872 -0.0091 -0.1987  0.0553
 8688W        W26892   9.611   9.172   3.012 -0.0507 -0.1078 -0.3694
 8689W        W26893  16.617   9.937  14.740  0.0208  0.2006  0.3159
 8690W        W26894  14.748  15.365  10.815  0.3880 -0.2041  0.3002
 8691W        W26895  12.545   2.259  14.367  0.1300  0.2297 -0.0321
 8692W        W26896  14.630  13.065  14.772 -0.1603 -0.1026  0.1064
 8693W        W26897  15.869   5.565   1.828 -0.0258 -0.1461  0.0171
 8694W        W26898   9.676  10.719  13.535  0.4724 -0.2583  0.0224
 8695W        W26899  13.825   0.210  14.754 -0.1846 -0.0583  0.0045
 8696W        W26900   1.677  18.452   5.724  0.0021 -0.1154  0.1568
 8697W        W26901   9.687  11.758   3.937 -0.0846  0.1524 -0.3574
 8698W        W26902   3.928   7.088   1.924  0.1810 -0.1004 -0.0916
 8699W        W26903   6.756  18.286  12.457  0.1912 -0.1997 -0.1939
 8700W        W26904  14.170   6.169  15.147 -0.1802  0.1332  0.4100
 8701W        W26905   0.888  10.744   4.834 -0.0282 -0.0021 -0.2425
 8702W        W26906   6.808   3.020   1.521 -0.0240 -0.1026  0.0973
 8703W        W26907   5.891  13.533  13.103 -0.1183 -0.3371  0.0122
 8704W        W26908  10.996   4.637   2.975  0.3916 -0.0764  0.2249
 8705W        W26909  12.646  16.206   1.643 -0.2502 -0.0877  0.0641
 8706W        W26910   1.971   8.487  11.385  0.1310 -0.1158 -0.1513
 8707W        W26911   5.987  18.419  13.017  0.1269 -0.1337  0.1464
 8708W        W26912  11.631  12.601  11.515  0.2283 -0.2279 -0.1688
 8709W        W26913   0.418   1.535  14.917  0.0216  0.0784 -0.0569
 8710W        W26914  10.931   5.744  14.285  0.0493 -0.2115 -0.0499
 8711W        W26915  18.643   7.500   4.474  0.2176 -0.4296 -0.3442
 8712W        W26916   5.525   7.722   4.692  0.0101 -0.0091 -0.0526
 8713W        W26917   7.276   0.095   3.451  0.1527 -0.2389  0.1712
 8714W        W26918  17.541  13.486  11.683 -0.1006 -0.0414  0.2646
 8715W        W26919   3.721  14.580  14.639  0.1899  0.0557  0.1135
 8716W        W26920   3.240  13.217  13.657 -0.0526  0.2356 -0.0689
 8717W        W26921   3.534   8.390  14.246  0.3795  0.1040  0.2413
 8718W        W26922  13.403   3.100   0.239  0.2318 -0.0614 -0.0801
 8719W        W26923  15.571   5.188   2.066  0.3067  0.1069 -0.1119
 8720W        W26924   8.113  11.247  13.820  0.3989  0.3221  0.4053
 8721W        W26925   8.333   6.047  11.477 -0.1283  0.0003 -0.0759
 8722W        W26926  17.422   2.161  11.942  0.0678 -0.2656  0.3317
 8723W        W26927   4.982   9.257   0.650 -0.3637  0.0729  0.0821
 8724W        W26928   7.722  15.185  14.323 -0.2189  0.4130  0.0088
 8725W        W26929  17.523   1.991   0.962  0.1250  0.1956  0.2467
 8726W        W26930   3.080   9.993  11.981 -0.2724  0.0569 -0.5459
 8727W        W26931   3.848   1.048  14.217  0.0777  0.1074 -0.0624
 8728W        W26932  16.116   4.119   2.244 -0.0006  0.1495 -0.0256
 8729W        W26933   2.682  15.236  14.670  0.0848  0.0546 -0.1056
 8730W        W26934  17.784  12.032  14.789 -0.0308  0.0783  0.1415
 8731W        W26935   2.751   5.052   2.693 -0.2847 -0.1664  0.1272
 8732W        W26936  10.203   7.429   4.380 -0.1948 -0.0157  0.0985
 8733W        W26937  15.378  13.896   3.336  0.1424 -0.0957 -0.2290
 8734W        W26938  17.784   5.437   0.807 -0.2421 -0.2722  0.0644
 8735W        W26939   9.900   5.221  14.712  0.1955 -0.0449 -0.0885
 8736W        W26940   9.824  17.664  12.271  0.0929  0.1867 -0.0630
 8737W        W26941   4.079   6.247   3.821 -0.2230 -0.3156 -0.0701
 8738W        W26942  18.361  12.930   1.677  0.1391  0.1246  0.1431
 8739W        W26943   4.651   1.865   0.129 -0.1683 -0.2400 -0.3292
 8740W        W26944   0.910   0.600   0.731  0.0272 -0.1072  0.0856
 8741W        W26945   5.498   2.719  14.300  0.0122  0.2333  0.1874
 8742W        W26946   0.610  14.403   0.576  0.1471 -0.2426 -0.0181
 8743W        W26947   3.040   3.991   0.137 -0.0396  0.0442 -0.2406
 8744W        W26948   7.505  17.724  11.981  0.1945 -0.2733  0.2950
 8745W        W26949   7.191  17.815   2.308 -0.5632  0.3639 -0.1014
 8746W        W26950  13.093   9.109   2.242  0.0408 -0.1938 -0.0745
 8747W        W26951   2.149  11.626   1.358  0.2766  0.2729 -0.1115
 8748W        W26952  15.480   3.441   0.781  0.1108 -0.1206 -0.3048
 8749W        W26953   9.497   3.407  13.081  0.1927  0.1638 -0.0675
 8750W        W26954  10.220   3.946   0.041  0.3138 -0.2097 -0.0693
 8751W        W26955  14.285   7.914  10.709 -0.0687  0.3649  0.2380
 8752W        W26956   5.587   9.006   4.535  0.0791  0.0861 -0.4074
 8753W        W26957  10.272  12.513  11.415  0.1937  0.0215 -0.0525
 8754W        W26958   8.730   2.144  12.540 -0.0556  0.2713  0.4027
 8755W        W26959  13.403   5.887  14.445  0.3322  0.0739  0.1193
 8756W        W26960   0.566  13.937   1.114  0.0535  0.0385 -0.0664
 8757W        W26961  14.671  16.792   2.784 -0.1722 -0.0959 -0.4118
 8758W        W26962   6.218  11.577   3.605 -0.3242  0.0587 -0.1796
 8759W        W26963  11.641  16.519  14.850  0.0589 -0.1823 -0.2087
 8760W        W26964   0.575   8.855   3.374  0.1858  0.0194 -0.1966
 8761W        W26965   4.392  14.812   3.227 -0.1059  0.1219  0.2991
 8762W        W26966  17.496   5.497   0.381  0.2276  0.0996 -0.1953
 8763W        W26967  17.959   4.709   0.827 -0.0263  0.1898  0.0208
 8764W        W26968   3.242   4.933   2.347 -0.1941  0.1891  0.3406
 8765W        W26969   4.504   2.624   3.240  0.0377 -0.1213 -0.2476
 8766W        W26970   3.579  14.699   5.441 -0.1026 -0.0711 -0.1453
 8767W        W26971  15.584   4.095  12.166 -0.3366 -0.0866  0.0390
 8768W        W26972  14.597   5.978   0.721  0.1203 -0.0380 -0.0744
 8769W        W26973  17.186   2.804  15.306  0.1787 -0.0154  0.0460
 8770W        W26974   0.345  17.720  13.229 -0.0573 -0.2524  0.3163
 8771W        W26975   3.513  12.523  15.231 -0.1314  0.0440 -0.1281
 8772W        W26976   6.727   2.927  11.093 -0.2485  0.0774 -0.0374
 8773W        W26977   8.720   0.260  12.835  0.0400 -0.2201  0.2433
 8774W        W26978  11.749   6.611  13.061  0.1740  0.0269 -0.1449
 8775W        W26979   6.467   4.696   2.086  0.0140 -0.2060 -0.1119
 8776W        W26980  16.225   9.281   0.388 -0.1109  0.0411 -0.1272
 8777W        W26981  16.959   7.782   5.074  0.1220 -0.3673  0.0274
 8778W        W26982  13.754   1.764   3.735 -0.3465 -0.0049  0.2176
 8779W        W26983   6.819   5.775  10.518  0.1608  0.0070  0.1815
 8780W        W26984  13.299  11.990  13.363 -0.3127 -0.2071 -0.2216
 8781W        W26985   2.521  13.783  12.427 -0.0409  0.0378 -0.1069
 8782W        W26986   1.582  11.456  12.033 -0.2678  0.3090 -0.1042
 8783W        W26987   5.612   9.861   0.953 -0.2227  0.1889 -0.2840
 8784W        W26988   9.934   8.907   1.155 -0.0692  0.1522  0.1301
 8785W        W26989   5.731  15.546   2.723 -0.1821 -0.1932 -0.1105
 8786W        W26990  14.130  14.672   2.527  0.1457  0.0599  0.1768
 8787W        W26991   3.141  16.943  11.228 -0.0845  0.2621 -0.2631
 8788W        W26992  17.625  14.943   1.508  0.2842  0.0943 -0.2704
 8789W        W26993   0.581   0.578   5.144  0.0099  0.4131 -0.0597
 8790W        W26994  13.199  10.673  13.784 -0.0605  0.1379  0.1280
 8791W        W26995  14.992   6.021  12.406  0.1600 -0.2033  0.2136
 8792W        W26996  17.230   7.500  11.812 -0.2960  0.0423 -0.2111
 8793W        W26997  13.054  14.986   0.549  0.0319  0.2315 -0.1137
 8794W        W26998   5.291   9.428  14.058  0.0799  0.0537  0.1117
 8795W        W26999   9.042  17.580  10.734  0.1787  0.1431 -0.1983
 8796W        W27000   4.479  15.653   1.436  0.0398  0.2234 -0.1228
 8797W        W27001   2.742  12.215   4.174  0.1340 -0.4839 -0.1213
 8798W        W27002   2.500   9.632   3.531 -0.2328  0.2928  0.0820
 8799W        W27003   0.686  12.151  13.506  0.3421 -0.1875  0.2741
 8800W        W27004   4.361   3.521   2.045 -0.1171  0.1350  0.0836
 8801W        W27005   1.496   7.691  12.294 -0.1182  0.0298  0.0118
 8802W        W27006  17.294  11.250   2.544 -0.1780  0.0417  0.1937
 8803W        W27007   3.608  10.998   1.252 -0.0674  0.3479  0.1229
 8804W        W27008  11.397  10.046  12.454  0.1805 -0.0415 -0.0828
 8805W        W27009   3.552   2.091   2.292 -0.1725 -0.2583  0.0186
 8806W        W27010   2.097  12.329  15.234  0.3064 -0.0697 -0.0167
 8807W        W27011   1.331   7.560  13.982  0.1486 -0.3133  0.2821
 8808W        W27012   7.067   6.165   4.351 -0.1448  0.1868 -0.3387
 8809W        W27013  16.733  11.268  14.103 -0.0908 -0.0445  0.0041
 8810W        W27014  10.367   4.717   3.846  0.2746  0.1930  0.0333
 8811W        W27015   0.281  16.454   3.876 -0.1851  0.0967 -0.0485
 8812W        W27016   8.306   1.080  10.593 -0.2007  0.2107 -0.1714
 8813W        W27017   1.401  17.416   1.239  0.0099  0.0239 -0.1717
 8814W        W27018   9.251   0.610   3.369  0.1002 -0.0671 -0.2742
 8815W        W27019  12.681   6.517   3.058 -0.0243 -0.0064  0.0477
 8816W        W27020  15.975   7.242   4.976 -0.3257  0.1764 -0.2495
 8817W        W27021   7.711   9.623   4.365  0.0845 -0.3569 -0.1320
 8818W        W27022  16.217   6.929   3.216 -0.2560  0.2275  0.1141
 8819W        W27023   8.645   7.760  10.939  0.1264  0.0825 -0.1854
 8820W        W27024  14.558  17.958   1.271  0.0458 -0.1299  0.1772
 8821W        W27025   3.120  10.869  15.423 -0.1267 -0.2627 -0.1263
 8822W        W27026  18.656  11.736   4.148  0.0382  0.2605 -0.0248
 8823W        W27027   0.309   6.472  14.930 -0.0405  0.1224 -0.4142
 8824W        W27028  10.633  13.949  14.122  0.3962  0.3837 -0.2072
 8825W        W27029   9.802  11.773  15.170 -0.1858  0.6597 -0.0362
 8826W        W27030   9.770  17.191  12.227  0.0645 -0.0755 -0.4788
 8827W        W27031   6.290   5.540  13.083 -0.0805 -0.0660  0.0607
 8828W        W27032   1.104   9.631  12.217  0.1105  0.0253  0.1758
 8829W        W27033  12.365  18.214   0.350 -0.2109 -0.1380  0.2612
 8830W        W27034  10.358   3.259  13.156 -0.1422  0.1840 -0.1776
 8831W        W27035  17.427   6.687   1.766  0.1105 -0.0941  0.0653
 8832W        W27036  17.173  10.262   0.603  0.0904  0.2559  0.1488
 8833W        W27037   8.654   8.461   1.895 -0.0781 -0.1524  0.1609
 8834W        W27038  13.777  13.583  13.942 -0.1342  0.3240  0.5092
 8835W        W27039   3.202   5.881  15.324  0.0780 -0.0573  0.0657
 8836W        W27040   0.809  18.517   1.105  0.0765 -0.3155  0.1035
 8837W        W27041  17.233   3.911   4.531 -0.0415  0.2703  0.0244
 8838W        W27042  10.266  10.034  11.802  0.2541  0.0149  0.2493
 8839W        W27043  12.474   5.954   2.073 -0.1438 -0.0894 -0.1923
 8840W        W27044  16.661  13.735   2.134  0.1076 -0.2171 -0.2190
 8841W        W27045   9.464   1.067   3.283 -0.0750 -0.0708  0.1113
 8842W        W27046  16.715   3.545  15.153  0.3226 -0.0597  0.4329
 8843W        W27047   1.160  10.976  13.431  0.2538  0.3642 -0.2480
 8844W        W27048   4.940   8.990  14.788  0.1293 -0.3546  0.1189
 8845W        W27049  11.025  11.852  15.400 -0.0261 -0.1618  0.2154
 8846W        W27050   5.099   4.594  11.194 -0.1109 -0.0099  0.0468
 8847W        W27051  15.354  18.364   0.100  0.1133 -0.2488 -0.0713
 8848W        W27052   5.689   4.611   2.641 -0.0609 -0.0127  0.1190
 8849W        W27053  13.947  13.783  12.527 -0.1269 -0.0061  0.1343
 8850W        W27054   0.027   1.257   0.504 -0.1141  0.1042 -0.0936
 8851W        W27055   0.467   2.896  11.563  0.0494  0.1443 -0.0800
 8852W        W27056   8.365   3.901   1.249  0.1141  0.3038 -0.0989
 8853W        W27057   1.395   3.251   4.754 -0.1988 -0.0701  0.1596
 8854W        W27058   9.482   0.672   9.856  0.1888  0.2730 -0.3589
 8855W        W27059   8.631   5.361  15.428 -0.0801  0.0392  0.1925
 8856W        W27060   5.326   8.175   4.743  0.1930 -0.0151  0.1349
 8857W        W27061  16.775   5.972   4.668  0.2842 -0.1736  0.2504
 8858W        W27062   0.444  15.168  13.968 -0.1723 -0.1467 -0.5039
 8859W        W27063  10.762  16.228  10.077  0.0086  0.1586  0.0779
 8860W        W27064   6.860   4.645  12.620 -0.0015 -0.0512 -0.0720
 8861W        W27065   0.836   4.199   2.752 -0.2080 -0.3958  0.2807
 8862W        W27066  17.737   3.610   3.273 -0.3685 -0.1647  0.2084
 8863W        W27067  14.992  15.879  13.032  0.0739  0.1456  0.1726
 8864W        W27068  12.162   3.406   1.398  0.1171  0.0524  0.1708
 8865W        W27069   1.012   2.011   4.579 -0.2959  0.2396 -0.0712
 8866W        W27070   7.921   2.161  14.810 -0.0859  0.1886  0.1478
 8867W        W27071   5.842  16.782   1.808 -0.0060 -0.0353  0.0378
 8868W        W27072   7.510   7.640   2.431  0.0622  0.0458  0.0417
 8869W        W27073  18.258  15.716   1.544 -0.0870  0.1036 -0.1979
 8870W        W27074   1.755  15.857  12.342 -0.0942  0.0653 -0.0775
 8871W        W27075  12.022  17.398   4.387 -0.3402 -0.3549 -0.3946
 8872W        W27076   1.364  15.254   4.386  0.0781 -0.1218  0.0052
 8873W        W27077   9.171   9.414  14.117 -0.2957  0.2196  0.0161
 8874W        W27078   3.172   2.694   1.044  0.0626 -0.1951 -0.4369
 8875W        W27079   0.018  11.735   0.705  0.1112 -0.1234  0.1613
 8876W        W27080  16.777  12.430   0.331 -0.1091  0.0803  0.0215
 8877W        W27081   2.553  12.718  10.249 -0.0569  0.1419  0.2120
 8878W        W27082  17.424  13.712   3.702  0.0794  0.4424 -0.0035
 8879W        W27083   7.960   8.407  12.548  0.0452  0.0142 -0.0270
 8880W        W27084  15.587   2.023   2.745 -0.2363  0.1445 -0.2594
 8881W        W27085   4.778   5.988  12.818  0.0332  0.1123  0.1724
 8882W        W27086  15.457   9.067  11.210  0.0469  0.4732 -0.0427
 8883W        W27087  12.317  15.880   0.570 -0.1403 -0.1828  0.0816
 8884W        W27088   5.864  17.662  14.570 -0.4560  0.4189  0.2040
 8885W        W27089  12.225   2.083   1.091 -0.1529 -0.1745  0.1978
 8886W        W27090   2.679  17.573  10.834  0.1536  0.2093  0.0421
 8887W        W27091   1.315  11.948  14.386  0.0597  0.1886 -0.1381
 8888W        W27092   5.650  12.626   3.386  0.1198  0.2151  0.3023
 8889W        W27093  15.644  16.935   0.288  0.1739 -0.0139 -0.0847
 8890W        W27094   4.334  14.016   3.471  0.3111  0.2391  0.0472
 8891W        W27095   4.215   1.814   4.371  0.0192 -0.0025 -0.2503
 8892W        W27096  17.863   6.314   5.826  0.1609  0.1585 -0.1909
 8893W        W27097   1.528  17.024  11.158  0.2089  0.0701 -0.0916
 8894W        W27098   0.323  13.369  11.432  0.0376 -0.1730 -0.2654
 8895W        W27099  17.077  13.982  13.743  0.1925  0.0370 -0.3808
 8896W        W27100  15.289   9.370  15.440 -0.0017  0.1368  0.3105
 8897W        W27101  14.688  18.044   1.812 -0.0619  0.1191  0.0084
 8898W        W27102  18.675   5.947   2.168  0.2628  0.1611  0.0772
 8899W        W27103   9.905   4.676   2.290  0.0964  0.2470  0.1308
 8900W        W27104  14.321  13.468  14.931 -0.1625  0.0256  0.2383
 8901W        W27105   7.259  18.282   0.997  0.0573  0.1460 -0.2504
 8902W        W27106  11.080   6.867   4.886 -0.4229 -0.1533 -0.0742
 8903W        W27107  16.055  11.818   0.555 -0.3069  0.0258 -0.0340
 8904W        W27108   6.640   0.654   5.258  0.2772 -0.0364 -0.0557
 8905W        W27109  14.180  17.638  11.166  0.0972  0.1585 -0.2269
 8906W        W27110  16.570  11.545  13.706  0.1229  0.3193  0.0626
 8907W        W27111   4.779  13.906   0.875  0.0355 -0.0346 -0.0016
 8908W        W27112   9.720   9.939  14.122  0.0885  0.1680  0.0353
 8909W        W27113   4.153  13.522  14.238  0.2464 -0.1063  0.0127
 8910W        W27114  13.176   8.416   3.953  0.0864  0.0502 -0.0439
 8911W        W27115   9.726   9.463  12.840 -0.0258  0.1647 -0.0384
 8912W        W27116   5.031   3.870   3.888 -0.0829 -0.0249 -0.1200
 8913W        W27117   9.423   5.887   4.651  0.1237  0.2026 -0.3489
 8914W        W27118   4.038  10.663   3.787  0.0656  0.1183  0.2753
 8915W        W27119  18.153   9.896  14.014  0.2449 -0.2615  0.0331
 8916W        W27120   0.801  10.253   3.099  0.1886  0.2680  0.3057
 8917W        W27121   5.122   9.077  13.013 -0.1203  0.1551  0.1689
 8918W        W27122  13.575   2.679   0.533  0.0860 -0.0867 -0.2377
 8919W        W27123  13.369   4.077  14.084 -0.2432 -0.1467 -0.2193
 8920W        W27124  16.314  16.753   1.179 -0.3453  0.0211 -0.0057
 8921W        W27125   3.590  14.249   2.821 -0.1294 -0.2676  0.0270
 8922W        W27126  18.649  14.583  15.026 -0.2510 -0.3792 -0.0038
 8923W        W27127  14.903   9.264   4.780  0.1293 -0.0496  0.0272
 8924W        W27128   5.906  12.182   2.763 -0.0313  0.0996 -0.0287
 8925W        W27129  18.369   3.386  14.472  0.0768  0.0063 -0.4415
 8926W        W27130   4.298  12.957   2.547 -0.0279  0.1038 -0.0393
 8927W        W27131   8.537  14.552  10.667  0.3632  0.0342  0.0969
 8928W        W27132   5.507  13.314  13.830  0.1238  0.0348 -0.2519
 8929W        W27133  11.734   8.783  11.764 -0.0033 -0.4244 -0.1367
 8930W        W27134  16.530   1.609   0.625 -0.0332 -0.2117 -0.1530
 8931W        W27135   1.181  12.673  12.886  0.0152  0.2888  0.2427
 8932W        W27136  10.512   3.784  12.457 -0.0177 -0.2700 -0.1879
 8933W        W27137   9.585   0.392   1.393 -0.1935  0.1732 -0.0646
 8934W        W27138  14.941   5.130   0.238  0.0275  0.1440  0.0155
 8935W        W27139  11.604  13.592   0.191  0.2068  0.0636  0.1445
 8936W        W27140   3.951   6.347  12.047  0.0668  0.2373 -0.1532
 8937W        W27141  16.699   1.456   4.750 -0.1096 -0.0158  0.1517
 8938W        W27142  15.839  15.349   9.939 -0.2598  0.2672  0.2521
 8939W        W27143  12.195   0.467   0.396  0.1812  0.2241  0.0258
 8940W        W27144  17.513   6.416  10.843  0.4702 -0.1214 -0.1313
 8941W        W27145   6.083   1.290   1.783  0.0256 -0.0914  0.0952
 8942W        W27146   3.319  15.337  13.539 -0.2711 -0.0676 -0.2212
 8943W        W27147   5.449   0.367  12.565  0.1020 -0.0545  0.1427
 8944W        W27148   6.253  17.542   4.106  0.1228 -0.0333 -0.1902
 8945W        W27149  15.513  15.253   4.348  0.0711  0.0010  0.0940
 8946W        W27150  13.386  12.821   3.135 -0.0298 -0.1084 -0.0940
 8947W        W27151  16.176  11.919  10.142  0.3159  0.1487 -0.0714
 8948W        W27152   8.390  13.947  14.781  0.3120  0.0050  0.2579
 8949W        W27153   3.749  11.582  11.170 -0.1738 -0.0328 -0.0627
 8950W        W27154  14.855   4.703   0.493 -0.0221  0.1486  0.0025
 8951W        W27155   8.365   7.151   0.360 -0.3666 -0.0089  0.0168
 8952W        W27156  14.715   0.941   2.834 -0.1422  0.2393  0.1761
 8953W        W27157   4.516  10.196  10.261  0.2184  0.0379 -0.0947
 8954W        W27158   2.811   8.708  11.108 -0.0867 -0.0216  0.0130
 8955W        W27159   0.690  15.169   3.829 -0.0041 -0.1212 -0.0623
 8956W        W27160   7.267  11.366  14.706  0.1953  0.1564 -0.1691
 8957W        W27161  18.521  18.032   4.137  0.1113 -0.0560 -0.0994
 8958W        W27162   3.838  12.404  11.876 -0.3046 -0.0940 -0.0267
 8959W        W27163   2.495  11.716  11.260  0.1981  0.1274  0.0483
 8960W        W27164  11.438  15.292   3.084 -0.0208  0.3637  0.1060
 8961W        W27165  17.801   9.160  11.237 -0.2357  0.1696  0.0576
 8962W        W27166   0.936  11.302  13.162  0.0575  0.1811  0.4909
 8963W        W27167   5.138   9.494   1.850 -0.0863 -0.0767 -0.1523
 8964W        W27168  13.949  18.345  14.265 -0.2622  0.0587 -0.1848
 8965W        W27169  17.667  13.143   2.275 -0.4025  0.3182 -0.1810
 8966W        W27170   0.812   1.890  12.851  0.1696  0.1313  0.0906
 8967W        W27171   4.469  12.740   3.644  0.0442 -0.1387 -0.0794
 8968W        W27172   9.590   9.734  15.055  0.0939 -0.4105  0.0601
 8969W        W27173   4.728  14.389  12.367  0.1320  0.3144 -0.1301
 8970W        W27174  12.300   4.161  11.159  0.0436 -0.1898  0.2645
 8971W        W27175  18.487   0.597   3.517  0.1033  0.3179  0.1465
 8972W        W27176   8.851  14.784   1.997 -0.0930 -0.0884  0.1735
 8973W        W27177  17.750   7.586   0.121 -0.0078 -0.2744  0.0008
 8974W        W27178  16.715   4.326  10.848  0.0061 -0.2100  0.1795
 8975W        W27179   1.743   4.988  13.516 -0.1330  0.0872  0.2324
 8976W        W27180   5.601  11.330   2.634  0.2049 -0.0773  0.0941
 8977W        W27181  12.546  11.512  13.759 -0.0110 -0.1312 -0.4083
 8978W        W27182  18.575   2.179   1.182  0.2461  0.0342 -0.1299
 8979W        W27183  11.450  10.613  12.304  0.4404 -0.0699 -0.0583
 8980W        W27184   5.050  10.671   3.768  0.2571 -0.0516 -0.0721
 8981W        W27185   5.617  17.232  13.475  0.1444 -0.0827  0.3122
 8982W        W27186   3.221   8.590   0.386  0.2124  0.1207 -0.1204
 8983W        W27187   6.168   7.745  13.695  0.0555 -0.1835  0.2274
 8984W        W27188  12.263   1.034  12.542 -0.1496 -0.1445 -0.3132
 8985W        W27189   4.245  17.816  11.033 -0.0317  0.1584 -0.1592
 8986W        W27190  14.982   9.119   2.422  0.0741  0.1566  0.0368
 8987W        W27191  13.914  17.503  12.988  0.2913 -0.0958 -0.3094
 8988W        W27192   9.143  12.423   4.205  0.1066  0.2961 -0.0035
 8989W        W27193   9.604   0.650   0.364 -0.0713  0.4090  0.1196
 8990W        W27194   8.432  17.339   2.914 -0.0944 -0.1292 -0.1799
 8991W        W27195   3.971   3.231  13.631  0.1274 -0.0646 -0.0952
 8992W        W27196  18.542  17.687   2.105 -0.0798  0.3107  0.2638
 8993W        W27197  10.470   4.423   0.102 -0.1576  0.0342 -0.1401
 8994W        W27198   6.171  10.183   3.180  0.2314 -0.4886 -0.1871
 8995W        W27199  12.868   4.011  14.031  0.1478  0.0125  0.1089
 8996W        W27200  13.560   6.097   1.780 -0.1249  0.1442  0.0894
 8997W        W27201  16.293  11.200  14.044  0.2027 -0.3415  0.2207
 8998W        W27202  18.665   4.390   4.239 -0.1032 -0.1071 -0.1460
 8999W        W27203   9.126  18.384  13.957 -0.0795 -0.1164  0.0206
 9000W        W27204   0.777   2.872  14.602  0.1083 -0.0230  0.1359
 9001W        W27205  14.578  14.902   1.817  0.0749 -0.2181 -0.1499
 9002W        W27206   4.919  15.117  11.861 -0.0609  0.1165 -0.2309
 9003W        W27207  15.500   9.812   3.182 -0.0019  0.0687 -0.1921
 9004W        W27208   2.364  17.339  11.188  0.0119 -0.1155 -0.4394
 9005W        W27209   9.795  15.610   3.915 -0.1104 -0.2831  0.0548
 9006W        W27210   0.916   5.317   3.910 -0.0481 -0.1930  0.1239
 9007W        W27211   4.438   4.439   1.310  0.0964 -0.1510 -0.1043
 9008W        W27212  11.704   0.051   2.242  0.0249  0.5159  0.3184
 9009W        W27213   5.950   3.991   2.952  0.1563 -0.0657 -0.1402
 9010W        W27214  15.608  16.033   0.822 -0.0389  0.1588 -0.3077
 9011W        W27215  16.931  13.266  12.986  0.0776 -0.1916  0.3331
 9012W        W27216   3.381   7.968  14.669  0.1181 -0.2636  0.3585
 9013W        W27217   3.199  18.646  13.345  0.0745  0.0205 -0.1141
 9014W        W27218  16.852   4.597  12.728 -0.1829  0.1067  0.0361
 9015W        W27219   2.895   0.591   1.678 -0.0387 -0.1137 -0.0952
 9016W        W27220  18.264   9.044   3.188  0.1855 -0.0335 -0.4058
 9017W        W27221   4.457   8.076   4.650 -0.2862  0.4615 -0.1716
 9018W        W27222   6.613  16.764   2.999  0.2609  0.3273 -0.0761
 9019W        W27223  11.284   6.620   0.290 -0.0394 -0.0955 -0.2208
 9020W        W27224  15.599  12.140   0.433 -0.0748 -0.2676 -0.1893
 9021W        W27225   9.404   5.118  11.685  0.0401 -0.0394  0.0079
 9022W        W27226   2.354  13.329   2.615  0.0962 -0.1039 -0.1187
 9023W        W27227   3.969  12.903  11.725  0.3573 -0.2166  0.1351
 9024W        W27228  15.251   7.907  11.549 -0.1303 -0.0263 -0.0394
 9025W        W27229   0.679  12.347   1.039  0.1873  0.5372 -0.1137
 9026W        W27230  17.942   6.138   1.049 -0.0993 -0.3802 -0.1359
 9027W        W27231  12.703  10.405   1.188  0.0654  0.0757 -0.2154
 9028W        W27232  13.750   5.674   3.007  0.2212  0.3731 -0.0169
 9029W        W27233  10.732  13.449  11.469  0.2016  0.3458  0.2649
 9030W        W27234   6.835   9.234   3.559  0.0847  0.0346  0.0174
 9031W        W27235  14.577  14.453  11.758 -0.2178  0.1327  0.2813
 9032W        W27236  11.119  18.014   0.785  0.4310  0.5184 -0.1332
 9033W        W27237  13.842  15.497   4.174 -0.2971  0.2639  0.3726
 9034W        W27238  17.510  17.350  14.789  0.1647 -0.0170  0.0790
 9035W        W27239   0.761   1.148  12.167  0.0231 -0.2472  0.0145
 9036W        W27240  13.540   2.032   1.884 -0.3641 -0.0834  0.2052
 9037W        W27241  13.635   1.566   2.385 -0.0837  0.1525  0.0328
 9038W        W27242   2.593  13.836   0.365 -0.0668  0.0377 -0.5677
 9039W        W27243  14.744  11.721   1.281 -0.1848 -0.6796 -0.0007
 9040W        W27244  17.724   1.223   1.114  0.0812  0.3061 -0.3484
 9041W        W27245   8.007   1.502  13.086  0.1168  0.2679  0.0363
 9042W        W27246   6.682  12.309   0.628  0.1029  0.1442 -0.1231
 9043W        W27247  14.071   7.981  14.308 -0.2752 -0.0902 -0.0193
 9044W        W27248  10.136   1.780   0.061 -0.0020  0.0099  0.0811
 9045W        W27249  11.288   8.233   0.956 -0.2220 -0.3895 -0.2898
 9046W        W27250  16.102  11.875   4.583 -0.1315 -0.1191  0.0843
 9047W        W27251  13.976   6.082   1.475 -0.1812 -0.0029 -0.1623
 9048W        W27252  13.905  18.353  10.905  0.3771  0.0065 -0.0172
 9049W        W27253  15.197  11.864  15.189  0.2538  0.0022 -0.3205
 9050W        W27254   7.358  16.433  15.076 -0.4867 -0.1769 -0.1667
 9051W        W27255  12.325   7.351   0.942 -0.1182 -0.0382  0.2816
 9052W        W27256  13.786  10.448  11.645 -0.0577  0.0028 -0.4347
 9053W        W27257  14.134  16.429  11.950  0.1482 -0.3361 -0.2819
 9054W        W27258   0.530  12.020   2.810  0.1086 -0.2136 -0.1992
 9055W        W27259   9.316   2.868   4.161  0.1787  0.1513 -0.0636
 9056W        W27260   0.458  12.884  12.965  0.1412  0.1303  0.0200
 9057W        W27261  14.575  17.937  11.063  0.1510 -0.2285 -0.2180
 9058W        W27262  12.933  13.112  12.137  0.0021 -0.4716  0.1541
 9059W        W27263   5.889   7.328  13.078 -0.4447 -0.2355  0.0441
 9060W        W27264  15.024   1.984   2.738 -0.0904  0.2201 -0.1190
 9061W        W27265   7.688   8.893   3.021  0.2670 -0.3435  0.2531
 9062W        W27266  13.115   5.651   4.328 -0.2049  0.1025 -0.0581
 9063W        W27267   7.010  12.368   3.411 -0.3036 -0.0046  0.1190
 9064W        W27268  13.128   1.721   2.102  0.1515 -0.0831 -0.0907
 9065W        W27269   5.426   8.013   0.276  0.0970  0.2262 -0.0639
 9066W        W27270  18.209  14.435   1.038  0.1526 -0.0829 -0.3506
 9067W        W27271  12.106   6.475   0.313  0.1334  0.0086  0.0132
 9068W        W27272   5.769   6.314   3.620  0.1452 -0.0863 -0.1212
 9069W        W27273   3.340  17.450  12.906  0.2035  0.2031  0.0525
 9070W        W27274  15.981   4.023  11.339  0.1062  0.0171  0.3196
 9071W        W27275  15.634   1.095  13.246  0.0617  0.2335 -0.2527
 9072W        W27276   8.565   1.735  12.791 -0.0394 -0.2002  0.2216
 9073W        W27277  13.287  10.450  14.299  0.1443  0.1638  0.1882
 9074W        W27278   7.234   3.473   1.189  0.1422 -0.0818  0.0122
 9075W        W27279  15.944   8.685  13.231  0.0362 -0.0392 -0.1737
 9076W        W27280   6.799  15.770  12.074  0.3574  0.0972  0.1015
 9077W        W27281   1.425  14.359   3.438 -0.1142 -0.5525  0.2297
 9078W        W27282   2.674  13.106   4.747 -0.1313 -0.1898 -0.2661
 9079W        W27283   3.764  14.089  13.884  0.0785  0.2933 -0.1072
 9080W        W27284   3.547   7.347   1.671 -0.1994  0.2146 -0.1277
 9081W        W27285   5.623   8.464  10.364  0.5055  0.3223 -0.1076
 9082W        W27286  13.476   8.610   3.644  0.1056 -0.0023  0.0901
 9083W        W27287   4.490   9.897   4.040 -0.0602  0.2435 -0.0765
 9084W        W27288   1.530   4.400  14.303  0.0413 -0.1443 -0.1817
 9085W        W27289   7.741   8.867  12.506 -0.1714 -0.0874  0.0934
 9086W        W27290   5.115  12.216  14.362  0.0291 -0.1030 -0.0247
 9087W        W27291  12.402  17.847   4.466 -0.0339 -0.3908  0.2224
 9088W        W27292   0.651  18.061  12.998 -0.2730  0.0845  0.0587
 9089W        W27293  14.574  14.952  13.098  0.1828 -0.1597 -0.0507
 9090W        W27294   8.733   9.386  12.633  0.1967  0.1090  0.0518
 9091W        W27295  18.593   2.757  13.670 -0.0176 -0.1568 -0.1413
 9092W        W27296   2.898  10.960  14.421  0.3579 -0.1866 -0.1891
 9093W        W27297   6.875   9.731  14.683 -0.0667  0.2975  0.0777
 9094W        W27298   4.998   5.387  11.982  0.0801 -0.1894 -0.1167
 9095W        W27299   9.313  16.447  13.068 -0.2340  0.1338 -0.5467
 9096W        W27300   1.110  11.822  13.421  0.0525 -0.2873  0.0654
 9097W        W27301  13.259   0.818   3.779  0.2841 -0.3546 -0.0741
 9098W        W27302  18.374  13.369  11.617 -0.1314 -0.2442  0.0522
 9099W        W27303   0.795   5.037   4.550 -0.2452 -0.1610  0.1639
 9100W        W27304   3.465   6.300  11.881 -0.0089 -0.1313  0.0315
 9101W        W27305   2.302   2.635   2.705 -0.0477  0.2598  0.0662
 9102W        W27306   8.109   3.919   2.687 -0.5408  0.1634 -0.1133
 9103W        W27307   5.018   6.481  11.848  0.0335 -0.0977  0.0184
 9104W        W27308  14.360   4.256   4.214 -0.2239 -0.1009  0.3247
 9105W        W27309  15.763   0.748  11.865  0.0432  0.0327 -0.2356
 9106W        W27310  12.741  10.405   0.614 -0.0422 -0.0875  0.0730
 9107W        W27311   7.941   4.431   4.563  0.2586 -0.0695  0.1729
 9108W        W27312   6.613   0.556   2.145  0.2760 -0.1233 -0.0347
 9109W        W27313   4.080   6.007  14.967  0.3685  0.2347 -0.3233
 9110W        W27314   0.974   5.505  14.005  0.1188 -0.1006 -0.0811
 9111W        W27315   4.286   5.981   2.642  0.2395 -0.0274 -0.0006
 9112W        W27316   0.561  10.774  15.265  0.1046 -0.0682 -0.1838
 9113W        W27317  13.399  17.688  15.275  0.1684  0.0727  0.0064
 9114W        W27318   3.561   4.512  15.152 -0.3729  0.2262  0.0306
 9115W        W27319   3.803  18.035  11.540 -0.2582 -0.3203  0.0465
 9116W        W27320   0.584   8.330   3.465  0.1543 -0.3312  0.2658
 9117W        W27321   0.403   1.621  14.357  0.1079 -0.0391  0.3404
 9118W        W27322   1.292  11.909  13.886  0.0205 -0.0458 -0.2078
 9119W        W27323   9.356  10.428  13.268  0.0193 -0.1391  0.0246
 9120W        W27324   7.210  15.549   4.113 -0.0699 -0.2653  0.1306
 9121W        W27325  14.487   6.470  12.521  0.3052  0.0198 -0.0033
 9122W        W27326  15.971  11.180  12.451  0.5106 -0.1955 -0.1559
 9123W        W27327  11.464  12.929  13.012  0.0889  0.1765 -0.3028
 9124W        W27328  18.484  16.363  12.738 -0.1254 -0.0276  0.0475
 9125W        W27329  10.866   3.958  12.915 -0.0698 -0.2872  0.3260
 9126W        W27330  10.894   8.814  12.588  0.5506  0.2905  0.1369
 9127W        W27331   3.853   4.924   4.285 -0.3033  0.1541  0.0119
 9128W        W27332   5.631   6.502  14.055  0.1090  0.0311  0.1712
 9129W        W27333  15.770   5.865  11.973  0.2421 -0.0180 -0.3041
 9130W        W27334   2.252  15.233  13.148  0.1196  0.4221  0.1807
 9131W        W27335   5.396   2.701  12.781  0.0530 -0.0643  0.1454
 9132W        W27336  10.362  15.037   0.503 -0.0822 -0.1513 -0.2076
 9133W        W27337  15.375  16.498   0.160 -0.0394  0.0468 -0.3127
 9134W        W27338  18.513   0.534  12.053 -0.1393  0.2711 -0.0380
 9135W        W27339   6.348   3.244  11.040  0.1734  0.0919  0.2707
 9136W        W27340  13.846  13.554   4.416  0.0284  0.3946 -0.1792
 9137W        W27341   3.485  16.309   1.779 -0.1146  0.0286  0.1922
 9138W        W27342  14.497  16.225  10.812  0.0737 -0.3373 -0.0523
 9139W        W27343   3.604  12.345  12.373  0.1257 -0.0287  0.0622
 9140W        W27344   6.602   5.042  15.334  0.1033  0.2449 -0.1526
 9141W        W27345  18.271   6.857  14.499 -0.1259 -0.2634 -0.4510
 9142W        W27346   1.971   4.901   4.841  0.1983  0.3183  0.0398
 9143W        W27347   2.384   0.643  14.277  0.2141  0.4387  0.0144
 9144W        W27348   3.451  15.262   5.277 -0.3387  0.1692 -0.0298
 9145W        W27349  11.397   3.838   3.122 -0.1674 -0.0033 -0.2981
 9146W        W27350   3.620  14.480  10.644 -0.0866  0.2412  0.3044
 9147W        W27351  12.940  16.973   2.866  0.3196 -0.0289 -0.0742
 9148W        W27352   7.217   2.748  14.206 -0.1398  0.2075  0.0584
 9149W        W27353   0.482   9.965   2.687  0.0439 -0.2638 -0.2726
 9150W        W27354  10.584  18.129   2.568 -0.0645  0.1859  0.1720
 9151W        W27355  17.221   8.044  13.849  0.2284 -0.1046  0.5915
 9152W        W27356   4.159  13.087  12.529 -0.4089  0.2700 -0.1269
 9153W        W27357  16.653   7.481   0.502 -0.0248 -0.0430 -0.1664
 9154W        W27358  16.828   2.928   1.237  0.2725 -0.3217  0.2389
 9155W        W27359   0.612   6.392  10.321 -0.3044  0.0491 -0.0596
 9156W        W27360  11.671   0.849   4.281 -0.0324 -0.0615  0.1822
 9157W        W27361   2.319  16.831  12.159  0.1571  0.1499  0.0421
 9158W        W27362   9.835  11.574  11.508  0.0403  0.0326 -0.0462
 9159W        W27363   1.789   2.066  11.386 -0.0669  0.0344  0.0100
 9160W        W27364  14.507   4.861   1.883 -0.3904 -0.2141  0.0278
 9161W        W27365  11.806  15.334  14.903 -0.3557  0.2716  0.1661
 9162W        W27366  16.970  10.432   3.044  0.1490  0.0810  0.2147
 9163W        W27367  13.071  14.168  13.261  0.3028  0.1188  0.0014
 9164W        W27368  17.945  15.575   2.679  0.0980 -0.0301 -0.3730
 9165W        W27369   1.444   0.167  15.044 -0.0375 -0.1051 -0.1613
 9166W        W27370  16.265  14.717   0.851  0.0849 -0.1819  0.0015
 9167W        W27371  13.303   1.418   4.119 -0.1589  0.0579  0.1583
 9168W        W27372  13.720  16.493   1.682 -0.1932 -0.1167 -0.0269
 9169W        W27373  12.487  12.630  14.418 -0.1158 -0.2917 -0.0639
 9170W        W27374   9.272  15.103   0.170 -0.1452 -0.0521  0.1010
 9171W        W27375   7.070   4.688  13.788  0.0873  0.1557  0.3223
 9172W        W27376  16.160  16.571   2.382 -0.1431  0.0582 -0.1824
 9173W        W27377  15.193   0.293   2.809  0.0891  0.2420  0.4043
 9174W        W27378   6.190  11.632  14.682 -0.1804 -0.2603  0.2773
 9175W        W27379  14.616   9.105   3.075  0.3724  0.0987 -0.1099
 9176W        W27380   9.887   0.159  11.547 -0.0699  0.0526 -0.2291
 9177W        W27381  18.371   8.556   2.179  0.2275 -0.4275  0.1764
 9178W        W27382   1.868  13.232   0.756  0.1618  0.0490  0.2492
 9179W        W27383  14.417   6.168   4.170 -0.2233 -0.1055  0.0370
 9180W        W27384   2.689   9.304   3.923 -0.2020 -0.1201 -0.4680
 9181W        W27385   0.559  11.904   3.462 -0.3506  0.1131  0.1772
 9182W        W27386   8.698   4.321  14.557  0.0862  0.1495 -0.0543
 9183W        W27387  17.620   9.763   1.578  0.1908  0.2569  0.1666
 9184W        W27388  16.271  16.321   0.238 -0.1009  0.0366  0.1466
 9185W        W27389  11.738   5.051  11.180 -0.0492 -0.4763 -0.0033
 9186W        W27390   1.494   8.235   2.836  0.0881 -0.0740  0.0744
 9187W        W27391  14.468  16.505  13.263 -0.2855  0.0037 -0.4245
 9188W        W27392  10.308   3.323   2.124  0.0309  0.3080  0.1213
 9189W        W27393  16.082   4.279   0.397 -0.2348  0.2031 -0.4506
 9190W        W27394  15.006   1.911  12.518 -0.0858 -0.0624  0.0952
 9191W        W27395   0.468  15.715   3.009  0.2930  0.0021 -0.0846
 9192W        W27396   6.911   9.561   4.134  0.1223 -0.2288 -0.2341
 9193W        W27397  14.887   7.415   4.330 -0.1427 -0.0624  0.0065
 9194W        W27398   9.901  17.863  14.129  0.1171 -0.0495  0.0415
 9195W        W27399  14.347   0.543  13.389 -0.0616  0.0189 -0.2415
 9196W        W27400  11.820   8.543   4.869 -0.1267 -0.1157 -0.0248
 9197W        W27401   9.019  18.310  14.823  0.1288 -0.1621  0.2929
 9198W        W27402   5.980   2.731  13.271  0.1106 -0.1248  0.0986
 9199W        W27403   7.744  16.647   4.351 -0.0912  0.0640  0.1723
 9200W        W27404  15.280   5.850  12.815 -0.1086 -0.0174 -0.3542
 9201W        W27405   2.136  10.763   4.250 -0.0005 -0.0556  0.1928
 9202W        W27406  10.767  18.389   4.214  0.2613 -0.0373  0.0150
 9203W        W27407  14.899   4.587  13.826  0.2050  0.1472 -0.0417
 9204W        W27408  14.073  16.212   1.834  0.2006 -0.0939  0.2811
 9205W        W27409   7.682  13.789   1.851  0.0477 -0.2225  0.2615
 9206W        W27410  16.588   6.542  14.028 -0.3750 -0.2254  0.1662
 9207W        W27411   9.873   5.527   1.887 -0.2866 -0.1428 -0.1237
 9208W        W27412   0.104   5.855  14.321 -0.0558  0.3766  0.2188
 9209W        W27413   3.321  12.065   4.719 -0.1485  0.0577 -0.3316
 9210W        W27414  17.204   2.927   0.817 -0.1270 -0.0323  0.2386
 9211W        W27415  11.676   3.011  13.562  0.0210 -0.1755 -0.3344
 9212W        W27416   1.467  16.445   2.746 -0.1129 -0.0430 -0.1087
 9213W        W27417   1.026   7.161   4.118  0.0534 -0.2390  0.0987
 9214W        W27418   2.266  13.115   4.030  0.0655 -0.2514 -0.2901
 9215W        W27419  15.768  16.564   2.004  0.1187  0.2178 -0.3682
 9216W        W27420   4.035   6.155  13.077  0.0780 -0.3022  0.0594
 9217W        W27421  18.150   8.935  11.689  0.3759 -0.0861  0.2582
 9218W        W27422   9.882  10.419  15.081 -0.0271 -0.1329 -0.1369
 9219W        W27423   6.728   4.418   3.139  0.2741  0.2696 -0.1812
 9220W        W27424   1.999  13.303  11.455  0.0409 -0.0013  0.1901
 9221W        W27425   3.811   6.142   3.463 -0.1843 -0.0394  0.2785
 9222W        W27426  12.816   4.867   3.734 -0.0970  0.0583 -0.2053
 9223W        W27427   4.912   5.518  12.453  0.0117  0.0028 -0.0390
 9224W        W27428   1.583  10.013  12.106  0.3300 -0.0972 -0.1651
 9225W        W27429   0.512  15.834  14.437  0.1343  0.3150 -0.2052
 9226W        W27430   0.981  10.742  14.391  0.0086  0.0194 -0.1416
 9227W        W27431   9.044  11.607   3.209 -0.1196 -0.0172  0.0682
 9228W        W27432  11.907  10.171  11.607  0.2807 -0.1011  0.1212
 9229W        W27433  14.809  15.345   1.626 -0.0442  0.3004  0.3177
 9230W        W27434   1.685   3.793   4.511  0.0587 -0.2335 -0.1022
 9231W        W27435  14.653   5.564  12.800  0.4217  0.1595  0.2569
 9232W        W27436  18.553   8.313  14.742  0.1638  0.1718 -0.0916
 9233W        W27437  16.728  17.193  14.710 -0.1097  0.1128 -0.0864
 9234W        W27438  12.059   6.946   4.862  0.3314  0.4266 -0.1524
 9235W        W27439   4.704  15.639  13.212  0.1791 -0.1664 -0.0479
 9236W        W27440   7.870   3.921   4.624  0.1927  0.0885  0.2108
 9237W        W27441  13.834  14.087   4.142 -0.1905 -0.3091  0.1838
 9238W        W27442   5.670  18.548  13.764  0.1114  0.0027  0.4238
 9239W        W27443  10.932  11.377   4.421 -0.5132  0.0783  0.0746
 9240W        W27444   6.419  17.671  14.483 -0.0251 -0.1763 -0.1174
 9241W        W27445   8.607  11.427   3.784 -0.0903  0.0175 -0.1369
 9242W        W27446  15.631   5.555   1.329  0.1415 -0.1354  0.3880
 9243W        W27447   0.783   8.814  12.852  0.1345  0.1125 -0.1273
 9244W        W27448   1.993   4.795   4.331 -0.2311 -0.0484  0.2460
 9245W        W27449   4.543  17.330   3.189 -0.1359  0.2554  0.1169
 9246W        W27450   5.249   0.379   2.151  0.1250 -0.3478 -0.0707
 9247W        W27451   2.251  15.256   4.066  0.3729  0.0470 -0.3354
 9248W        W27452  17.367  18.292   3.309 -0.2608  0.0575 -0.3331
 9249W        W27453  17.322   6.900  12.389 -0.3033  0.3058 -0.2592
 9250W        W27454  12.292   2.885   4.272 -0.1271  0.2187 -0.2301
 9251W        W27455  12.313  11.488  14.938 -0.1088  0.0694 -0.2974
 9252W        W27456  12.546  16.067  13.781  0.0604 -0.2067  0.4133
 9253W        W27457   8.961   3.028   1.304 -0.0171 -0.2635 -0.0216
 9254W        W27458  16.662   0.196   3.770 -0.1796  0.2918 -0.1511
 9255W        W27459   0.796   8.352  12.076 -0.1548 -0.1014 -0.1243
 9256W        W27460  18.371   5.853  15.454  0.0963  0.2197 -0.3193
 9257W        W27461  10.474   0.458  12.558  0.0211 -0.0114  0.2983
 9258W        W27462  15.444   3.082   4.193  0.0428  0.1174 -0.2387
 9259W        W27463  16.879  18.019   0.820 -0.1811 -0.0771 -0.1949
 9260W        W27464   5.188  17.852  11.921 -0.1574 -0.1699  0.0488
 9261W        W27465  17.799  14.343  14.244 -0.0092 -0.0324  0.0774
 9262W        W27466   3.916   9.815   3.211 -0.2510 -0.1882 -0.0178
 9263W        W27467  18.427  14.802  13.542  0.1354  0.0869  0.0903
 9264W        W27468  13.319   8.435  11.911 -0.1197 -0.0332  0.1086
 9265W        W27469  14.306  13.901   3.113 -0.0237 -0.0678 -0.2334
 9266W        W27470   6.336   4.999   1.622 -0.0564 -0.0287 -0.2249
 9267W        W27471  16.660  15.710  10.422  0.1169  0.2510 -0.0040
 9268W        W27472  17.115   0.324  13.209  0.0992 -0.4066  0.3434
 9269W        W27473  12.795   3.818  15.351 -0.1424  0.3023 -0.3122
 9270W        W27474  13.459   4.958   4.962  0.1301  0.1106 -0.1639
 9271W        W27475   2.282  16.839   2.893 -0.2559  0.2603  0.0971
 9272W        W27476  10.786   8.676  11.609 -0.0119 -0.1202  0.0562
 9273W        W27477   3.178  12.199  12.735  0.1396 -0.0059  0.0274
 9274W        W27478   2.163   1.076   4.400  0.2309  0.1588  0.1939
 9275W        W27479  15.602  14.233  12.271 -0.0475 -0.2814  0.2449
 9276W        W27480   1.929  16.971   1.586 -0.1553  0.2065  0.1345
 9277W        W27481  16.410   5.261  11.422  0.2520  0.2001 -0.1057
 9278W        W27482   1.899   6.342  12.748  0.1786  0.1959 -0.2315
 9279W        W27483  13.774  17.150   0.972  0.2212  0.0146 -0.1174
 9280W        W27484  16.479   6.978   0.406 -0.0597  0.1755 -0.0366
 9281W        W27485  11.021  11.202   2.748  0.0376 -0.2573  0.1437
 9282W        W27486   7.629   9.325  13.125  0.0387  0.0264  0.0806
 9283W        W27487  11.563  11.259  11.288 -0.1190 -0.1224 -0.2058
 9284W        W27488  13.856   8.259  10.825  0.4538  0.3513  0.0594
 9285W        W27489  14.271   9.921   3.593  0.0874  0.2161 -0.0086
 9286W        W27490  12.531   2.969   2.744  0.0410  0.1782  0.0342
 9287W        W27491   1.851  14.084   0.456 -0.0548  0.3279  0.0809
 9288W        W27492   8.692   1.444  14.097 -0.0302 -0.2408  0.0161
 9289W        W27493  15.936   0.341   1.895  0.0336  0.1972 -0.0979
 9290W        W27494   3.133  14.499  10.921  0.0737  0.0659  0.0503
 9291W        W27495   2.895   6.756  11.535 -0.1743 -0.0932  0.0886
 9292W        W27496   7.064   2.689   4.424  0.0394 -0.4398  0.0534
 9293W        W27497   3.320  17.009   2.255 -0.0463  0.0507 -0.0326
 9294W        W27498   4.909   3.128   1.763  0.3688 -0.0705 -0.2641
 9295W        W27499   9.938   9.914  13.606 -0.1643  0.1515  0.1223
 9296W        W27500  11.899   6.546  13.759 -0.0994 -0.0470 -0.2140
 9297W        W27501   2.861  15.973  13.961  0.2616 -0.2760  0.1967
 9298W        W27502  13.627  10.489   1.373  0.2602 -0.1145  0.3887
 9299W        W27503   5.021  16.492  15.006 -0.0299  0.0735  0.2176
 9300W        W27504   7.967  11.413   2.020  0.0203  0.1171 -0.1522
 9301W        W27505   0.206   7.599   3.102 -0.0652  0.2010 -0.0477
 9302W        W27506   3.042  17.464   2.445  0.0946 -0.1357 -0.0616
 9303W        W27507   2.578   5.069  12.997 -0.1384 -0.0117  0.0344
 9304W        W27508   4.809   0.426  15.101  0.1744  0.3220 -0.0357
 9305W        W27509   4.851   5.535   1.072 -0.2777 -0.0456 -0.0402
 9306W        W27510  11.305  13.612   5.163 -0.0870  0.0363 -0.1309
 9307W        W27511   8.909  14.370   5.051 -0.1992 -0.0615  0.3085
 9308W        W27512  10.318   3.584   0.408 -0.1782  0.3573 -0.2800
 9309W        W27513   2.031   0.741   0.365 -0.1188 -0.0393  0.2913
 9310W        W27514  16.257   9.423  14.491 -0.1478 -0.1021 -0.2863
 9311W        W27515   8.934  12.009  12.329 -0.3441  0.2211 -0.1313
 9312W        W27516  14.623   3.298   2.014  0.0291 -0.4134 -0.3590
 9313W        W27517  12.656   5.519  11.038  0.1567 -0.0844  0.2479
 9314W        W27518  11.064   7.157   1.664  0.1928  0.0776 -0.0273
 9315W        W27519   0.725  17.106  12.752 -0.0251  0.0688  0.0045
 9316W        W27520   5.830  10.884   2.491 -0.0588  0.2181  0.1384
 9317W        W27521  12.411   7.391  15.421 -0.2841  0.1601  0.0540
 9318W        W27522   5.235  17.935   2.487 -0.2301 -0.3023  0.0753
 9319W        W27523   8.317   3.556   2.289 -0.0037  0.2637  0.0970
 9320W        W27524   3.121  17.152   0.728 -0.0826  0.0961  0.1616
 9321W        W27525   9.851   0.757  12.798 -0.0002 -0.0135  0.1863
 9322W        W27526   7.389   9.745  11.944 -0.4190 -0.0759 -0.1125
 9323W        W27527  17.506   9.132  12.120 -0.3565  0.3411  0.0743
 9324W        W27528   2.738   0.882  14.483  0.1869 -0.1375 -0.0188
 9325W        W27529   8.905  13.753   3.574 -0.1201  0.0536  0.1858
 9326W        W27530  13.949  12.601  11.397 -0.0337  0.0857  0.0332
 9327W        W27531   5.041   4.355  15.366 -0.1911 -0.3336  0.3564
 9328W        W27532  12.072  15.999   2.995  0.0969  0.0150  0.1646
 9329W        W27533  13.525   8.856  11.710 -0.2505  0.0653  0.2789
 9330W        W27534   2.663  18.512  14.031  0.1666 -0.0758 -0.2275
 9331W        W27535  17.040   3.724  12.440  0.1841  0.1492 -0.0173
 9332W        W27536   7.296   7.211  14.267  0.0186  0.1734 -0.2443
 9333W        W27537   9.537   7.737  14.644 -0.1748 -0.0508  0.2516
 9334W        W27538  11.315  11.201   0.496 -0.1024 -0.5997  0.0296
 9335W        W27539  10.318   9.968  14.433 -0.2882 -0.1087 -0.0429
 9336W        W27540   2.976  16.765  12.541 -0.1977  0.0054 -0.0308
 9337W        W27541   3.790   6.199  11.067  0.0588  0.2623  0.1218
 9338W        W27542  13.496  17.641  10.036  0.2643  0.1188 -0.2526
 9339W        W27543   4.636  18.127  13.168 -0.0242 -0.1734 -0.1941
 9340W        W27544   0.531   4.008  15.268  0.1807 -0.2113  0.0435
 9341W        W27545   1.227   7.255   0.347  0.0743  0.1955 -0.2645
 9342W        W27546   1.233   1.210  15.402  0.2213  0.1519 -0.0062
 9343W        W27547  12.648   8.696  12.844  0.0817  0.1805 -0.0305
 9344W        W27548  10.592   5.554   9.966  0.0547  0.1839 -0.2712
 9345W        W27549  14.100   6.801  12.564 -0.0213  0.0010 -0.0247
 9346W        W27550  16.302  17.050   4.679  0.1373  0.2334  0.0985
 9347W        W27551   6.122   9.560  13.579 -0.1801 -0.4418  0.0762
 9348W        W27552  13.925   8.940   1.056 -0.1308  0.1613 -0.2518
 9349W        W27553  13.980   1.800   1.964  0.1746 -0.0106 -0.0535
 9350W        W27554   0.336  17.506  14.127 -0.0517 -0.1338  0.3220
 9351W        W27555   7.800  13.516  14.242 -0.0603  0.2836 -0.0557
 9352W        W27556   6.748  14.742  11.535 -0.0031 -0.0085 -0.2685
 9353W        W27557   0.396   8.343   3.945 -0.3143  0.1401  0.0947
 9354W        W27558   9.228  15.981  12.860 -0.1964 -0.1772  0.0095
 9355W        W27559  13.238  13.187   2.187  0.3073 -0.0946 -0.2410
 9356W        W27560   7.556   9.827   3.213 -0.0780 -0.2509 -0.4231
 9357W        W27561   3.472   4.475  14.258  0.0426  0.0902  0.1905
 9358W        W27562   8.925  15.696   4.241  0.0323  0.2500  0.0164
 9359W        W27563  12.753  14.311   4.450  0.3824  0.0425  0.2291
 9360W        W27564   2.502   1.672  14.898  0.0048  0.1060  0.2458
 9361W        W27565  15.503  17.281  15.359 -0.0861  0.1646  0.0939
 9362W        W27566  11.506  16.321   2.325 -0.0258 -0.0474  0.0052
 9363W        W27567  14.827   8.741   1.424  0.0220 -0.0446 -0.0226
 9364W        W27568   9.811   3.542  14.043  0.0638 -0.1827 -0.0241
 9365W        W27569  16.947  18.395   4.977 -0.1443 -0.1848  0.0242
 9366W        W27570   8.797  16.465  10.834  0.1084 -0.0126  0.2472
 9367W        W27571  14.546  16.700  15.059  0.1744 -0.3734 -0.2089
 9368W        W27572   8.494  16.844  10.983  0.2821 -0.2064  0.4275
 9369W        W27573   3.974  17.591   2.418  0.1925  0.3815 -0.0497
 9370W        W27574  11.332  17.148  14.728  0.4214  0.0292  0.0619
 9371W        W27575  16.071  11.165  11.345 -0.2924  0.1381  0.0602
 9372W        W27576   1.381   0.463  11.390 -0.1711  0.0404 -0.0730
 9373W        W27577  18.608   8.585  10.943 -0.0812 -0.2068 -0.1430
 9374W        W27578   8.002   9.856  12.289 -0.1167  0.1038 -0.1295
 9375W        W27579   5.861   5.629  13.885  0.1420 -0.0045 -0.2756
 9376W        W27580  16.363   3.363  11.161 -0.2170 -0.2955  0.0492
 9377W        W27581   4.938   7.693  10.888 -0.1921 -0.4507  0.1254
 9378W        W27582  18.547   8.459  14.039  0.0977 -0.1377  0.3070
 9379W        W27583  12.341   3.463  11.807  0.0304  0.1972 -0.4729
 9380W        W27584  14.376   4.270  11.397 -0.1439 -0.1150 -0.1015
 9381W        W27585   2.515   0.936  11.740  0.0745  0.1985 -0.1801
 9382W        W27586   4.199   1.257  11.542  0.3364 -0.0013  0.2509
 9383W        W27587   5.385  16.268  12.631 -0.1817 -0.2256 -0.1735
 9384W        W27588  13.104  18.428  12.102  0.2961 -0.1886  0.0349
 9385W        W27589   8.928   5.703   5.668 -0.1777 -0.2580  0.1818
 9386W        W27590  14.826   3.002  12.637 -0.3900 -0.0680 -0.0071
 9387W        W27591  18.245   5.158   0.795 -0.0898 -0.1505  0.1563
 9388W        W27592  16.627   5.477  13.778 -0.2692  0.4409  0.0845
 9389W        W27593   7.138   0.962   2.052  0.2498 -0.0745  0.1093
 9390W        W27594  15.023   5.389   2.016  0.0786 -0.1025  0.0130
 9391W        W27595  14.536   0.910  11.499 -0.2348 -0.0706 -0.1915
 9392W        W27596   4.516   2.434  14.037 -0.1174 -0.2682  0.0922
 9393W        W27597   5.071  12.112   2.520 -0.1865 -0.3875  0.2500
 9394W        W27598  18.148   5.763   0.848 -0.0198 -0.0187  0.0092
 9395W        W27599   3.046  12.609   3.976  0.3293 -0.2164 -0.1489
 9396W        W27600  12.566  16.380  12.667 -0.1435 -0.0518  0.1653
 9397W        W27601  11.884  18.516   3.150 -0.0868  0.1183 -0.2425
 9398W        W27602  14.361  18.457  13.983  0.1066 -0.1401 -0.1788
 9399W        W27603  11.107  12.203   3.695 -0.0251 -0.4025 -0.0221
 9400W        W27604   7.228  18.013   3.389 -0.0841 -0.0757  0.0910
 9401W        W27605   2.015  11.043   0.071  0.2137  0.2985 -0.0245
 9402W        W27606   0.719  12.022  15.128  0.1835  0.2090 -0.3017
 9403W        W27607  15.105   3.313   1.674 -0.2965  0.0850  0.1771
 9404W        W27608   0.702  11.469   3.596 -0.0989  0.2865 -0.0504
 9405W        W27609  10.441   6.798   5.489 -0.1456  0.1599 -0.0237
 9406W        W27610   7.792  12.560  15.158 -0.1657  0.0860 -0.1519
 9407W        W27611   6.352  10.451   3.600 -0.0993 -0.0480 -0.1341
 9408W        W27612  14.693  10.695   3.262  0.1229 -0.3913  0.1544
 9409W        W27613  13.210  11.385  12.883  0.0698  0.1165 -0.1266
 9410W        W27614  10.514  18.586  13.740 -0.4542  0.0441 -0.2374
 9411W        W27615  17.442   4.490  14.452 -0.1004  0.0366  0.0865
 9412W        W27616   3.555   4.898   3.840 -0.2198  0.3168 -0.2377
 9413W        W27617   8.318   4.575  12.361  0.2664 -0.2602 -0.0390
 9414W        W27618   2.815  12.225   1.285 -0.0679  0.1352  0.1561
 9415W        W27619   1.004  13.397  13.560  0.0191  0.1674 -0.2136
 9416W        W27620   1.543  13.852  15.362  0.1338 -0.1899 -0.3379
 9417W        W27621  18.284  18.380   2.618  0.3462 -0.1240 -0.1964
 9418W        W27622  15.343  18.659  13.521  0.1190  0.1068  0.1149
 9419W        W27623   0.875   1.197  11.690  0.1189  0.1805  0.0929
 9420W        W27624  13.391  11.823   0.728 -0.1527  0.1748 -0.1707
 9421W        W27625  10.287   2.505  15.142 -0.0260  0.2132 -0.2538
 9422W        W27626   4.784   0.087   3.637 -0.0976 -0.0236  0.0318
 9423W        W27627   6.737   6.783   0.456 -0.2775  0.0755 -0.0975
 9424W        W27628  13.068   4.109  13.543 -0.3143  0.1178 -0.1034
 9425W        W27629  14.708  17.935   3.478  0.0673  0.2064 -0.1279
 9426W        W27630   7.488  11.936   4.124 -0.2212 -0.0101  0.5467
 9427W        W27631  12.101   6.210   3.402  0.1611  0.1232  0.0646
 9428W        W27632   7.776  17.470  13.051  0.2161  0.2543 -0.2362
 9429W        W27633   0.239   4.018   1.694 -0.3507  0.4543  0.2865
 9430W        W27634   8.826  16.472   0.065  0.1170 -0.1867  0.1399
 9431W        W27635   7.631   9.692  15.194  0.2894  0.0350  0.0536
 9432W        W27636   4.059   7.223  11.475  0.1195 -0.3462 -0.1167
 9433W        W27637  18.224   6.103  11.364 -0.0022  0.0097  0.1667
 9434W        W27638  13.194   3.596  15.132 -0.0570  0.2607 -0.0849
 9435W        W27639  14.037   7.160   2.900 -0.0303  0.0379 -0.0045
 9436W        W27640  16.635  17.863  14.596  0.0409  0.1009 -0.3422
 9437W        W27641   9.414  12.460  11.317 -0.1162  0.0790  0.0611
 9438W        W27642  13.695   8.033   1.933  0.0069  0.1974  0.0660
 9439W        W27643  10.166  15.028   3.153  0.0185 -0.3214 -0.0770
 9440W        W27644  17.268  11.880  12.087  0.1511 -0.2598  0.1394
 9441W        W27645  14.244   2.029   0.162  0.1849  0.1015 -0.0672
 9442W        W27646   7.389   3.372  11.444 -0.1692 -0.0010 -0.1164
 9443W        W27647   2.492   5.470   1.740 -0.4705  0.5147 -0.2534
 9444W        W27648  12.902   4.856  12.955 -0.0623  0.1823 -0.0303
 9445W        W27649   9.868  10.889  11.150  0.0343  0.0541  0.3514
 9446W        W27650  15.793  11.729   9.771 -0.1464  0.0842  0.2053
 9447W        W27651  13.957   4.241   3.887  0.0161  0.0777 -0.0282
 9448W        W27652   9.975   0.711  14.472 -0.0105 -0.3504 -0.1708
 9449W        W27653   4.477   1.113   0.094  0.0769 -0.1922 -0.0653
 9450W        W27654  10.102  10.368   4.546 -0.1853 -0.1571 -0.1780
 9451W        W27655   8.986  17.132   0.779  0.2662 -0.1569 -0.1741
 9452W        W27656   4.430   0.086   5.371  0.1898 -0.0486  0.3524
 9453W        W27657  11.662   6.490   3.372 -0.4933  0.0943  0.1767
 9454W        W27658   0.160   3.390  14.346  0.1424 -0.0259 -0.0267
 9455W        W27659  12.459  14.803   0.511 -0.1991 -0.1115 -0.0361
 9456W        W27660  15.531   4.534  13.031 -0.0845 -0.0781  0.3216
 9457W        W27661  16.540   8.107   4.840  0.1199  0.0058 -0.3120
 9458W        W27662   3.577   6.157   4.494 -0.3069  0.2614  0.0545
 9459W        W27663   9.076   2.394   4.305 -0.1086 -0.2295  0.0528
 9460W        W27664  13.792   2.758   2.945  0.0022  0.0605  0.0241
 9461W        W27665  16.997   9.939  11.650  0.0174 -0.0104 -0.1560
 9462W        W27666  18.155  16.233  13.165  0.3899  0.0953 -0.0854
 9463W        W27667  16.670  11.688   2.728  0.1026 -0.0175 -0.4607
 9464W        W27668   4.751   7.921   2.361 -0.0284 -0.4011  0.0618
 9465W        W27669   5.970   0.907  14.644 -0.3233 -0.1524  0.0792
 9466W        W27670  17.962   1.561  13.480 -0.0299 -0.0208  0.0115
 9467W        W27671   9.458  10.923   2.775 -0.0578  0.2136 -0.1584
 9468W        W27672  15.961  18.143  12.204 -0.1619  0.2140  0.1047
 9469W        W27673   6.708  17.304  14.436 -0.1126  0.2102  0.1944
 9470W        W27674   1.129   7.353   2.787 -0.1073 -0.1994  0.0591
 9471W        W27675  17.636   9.314   0.691  0.0507  0.1083  0.4257
 9472W        W27676  13.030   6.625   4.336 -0.0202  0.3213 -0.2386
 9473W        W27677   9.129   3.716  13.605 -0.0281 -0.1760 -0.0754
 9474W        W27678  17.236   9.483  14.307  0.2244  0.1107 -0.0090
 9475W        W27679  13.944   6.352  12.324 -0.0602  0.2504  0.1439
 9476W        W27680   5.320   4.302   2.392 -0.0050  0.0626  0.1571
 9477W        W27681   4.354  10.475   0.650 -0.2105 -0.0733  0.0457
 9478W        W27682   6.599  15.655  12.537 -0.5029 -0.1109  0.1184
 9479W        W27683  18.349  12.989   3.685  0.1378  0.2207 -0.0724
 9480W        W27684  16.951  13.273  14.970 -0.0332 -0.0408  0.1742
 9481W        W27685  12.949  15.059   1.264 -0.0885  0.2220  0.1515
 9482W        W27686   0.052  10.222  11.956  0.0192  0.0835 -0.2678
 9483W        W27687   9.368  11.751  13.790  0.1011 -0.1298  0.1854
 9484W        W27688  15.780   7.997  12.746 -0.0228 -0.1920  0.1854
 9485W        W27689  13.195  13.908  11.508  0.2595  0.2710  0.1094
 9486W        W27690   7.448   3.842   3.938  0.0401  0.0481 -0.0491
 9487W        W27691   7.659  16.218  11.290 -0.0676 -0.2477 -0.0123
 9488W        W27692   8.359   2.311   3.198  0.4742  0.0740  0.1305
 9489W        W27693  17.019  10.821  15.064 -0.1974  0.0924  0.1586
 9490W        W27694   2.098   8.954  11.220 -0.0522 -0.2416  0.1237
 9491W        W27695   3.176  17.990  11.944  0.1127 -0.0048 -0.3132
 9492W        W27696   5.854   6.759   3.366 -0.0004  0.1687  0.0319
 9493W        W27697  16.790   0.847   1.022  0.1349 -0.1012 -0.0088
 9494W        W27698   1.769   7.938   2.513 -0.1538 -0.2083  0.0091
 9495W        W27699   6.217  12.258   3.755 -0.1845  0.1252 -0.3042
 9496W        W27700  10.447   3.753   3.824 -0.0968 -0.1390 -0.1047
 9497W        W27701   9.321   8.511  11.672 -0.1450 -0.2522  0.2656
 9498W        W27702   3.995   3.296   4.018  0.0737 -0.1804  0.0875
 9499W        W27703  15.224  10.529   4.146  0.1988 -0.1103  0.1695
 9500W        W27704   5.857   0.536   2.706 -0.2346 -0.2657 -0.0591
 9501W        W27705   0.528   1.257  13.306  0.1375 -0.0993 -0.0672
 9502W        W27706  10.788  11.462   3.181 -0.1879 -0.0552  0.1385
 9503W        W27707   6.656   0.309   4.039  0.0745  0.0995  0.3806
 9504W        W27708   3.198   2.802   5.561 -0.2479 -0.4469  0.3704
 9505W        W27709   6.719   7.880   0.228 -0.0023  0.2302 -0.0044
 9506W        W27710   6.861  11.925  14.014  0.1010 -0.4029  0.0816
 9507W        W27711   9.580   0.725   1.806  0.2811  0.0700  0.0072
 9508W        W27712   3.430  10.088   1.618 -0.2487 -0.0324  0.1150
 9509W        W27713  15.497  12.930  11.267 -0.2251 -0.0684  0.4033
 9510W        W27714  11.753  13.795   2.904  0.0307 -0.1287 -0.0397
 9511W        W27715  13.939  11.958  12.678  0.0237 -0.1864 -0.4382
 9512W        W27716   3.312  15.731  13.923  0.1594 -0.0741  0.0723
 9513W        W27717   6.142   7.373  10.516  0.1152  0.3131 -0.2974
 9514W        W27718  16.738   4.208  13.441 -0.3785  0.2827 -0.0217
 9515W        W27719   8.929  14.262  13.739  0.1324 -0.1421  0.0966
 9516W        W27720  10.829   8.155  12.747  0.0581  0.4717 -0.0871
 9517W        W27721  17.646   5.941   2.267 -0.0422  0.0014  0.3524
 9518W        W27722   7.210  14.941  12.287 -0.0100  0.1452  0.0409
 9519W        W27723  13.366  12.422  13.608 -0.1110 -0.1193 -0.0025
 9520W        W27724   0.022  17.659  14.788  0.0539  0.0515  0.1732
 9521W        W27725  10.315   6.070  13.613 -0.3625 -0.1673 -0.2219
 9522W        W27726   9.479  15.930   3.080  0.1349  0.2287  0.0303
 9523W        W27727  16.967   3.966  13.821 -0.0643 -0.1940  0.6033
 9524W        W27728  11.233   0.651   4.137 -0.0312 -0.3173  0.2137
 9525W        W27729   0.505   4.223   3.593 -0.1327  0.2807  0.1088
 9526W        W27730  14.885   2.160   0.842  0.0254  0.1153  0.1885
 9527W        W27731   5.372  10.451  12.676  0.0676  0.1168 -0.2488
 9528W        W27732  14.742   0.148   1.004  0.0251  0.2008  0.2048
 9529W        W27733   9.554  18.678  13.865  0.1640  0.0586  0.0684
 9530W        W27734   9.315  15.316  13.423  0.1789 -0.0514 -0.1519
 9531W        W27735   3.933   4.459   2.578 -0.1410  0.0547 -0.1326
 9532W        W27736  11.561  15.586   4.669  0.0064 -0.0692 -0.0001
 9533W        W27737  13.518   9.519   1.801 -0.1401  0.2302 -0.2027
 9534W        W27738   1.462  16.723  12.575 -0.1827 -0.0161  0.2135
 9535W        W27739  11.137  17.249   3.588  0.0621 -0.3164  0.0477
 9536W        W27740  12.962  12.362  14.009 -0.1944  0.2039  0.2636
 9537W        W27741   3.601  17.307   2.708 -0.0133 -0.1142  0.1718
 9538W        W27742  16.183  10.408   4.693 -0.3340  0.0973 -0.1448
 9539W        W27743   3.312  10.108  11.071 -0.1692  0.2679  0.0933
 9540W        W27744  16.614   2.157   1.540  0.3578 -0.1944  0.0272
 9541W        W27745  15.512  16.072  13.204 -0.4396  0.0269  0.1646
 9542W        W27746  13.229   9.226   6.015  0.2472 -0.0128 -0.2552
 9543W        W27747   0.738   8.769   2.503  0.4174  0.1465  0.0801
 9544W        W27748   8.291   6.841   3.309 -0.0080  0.0273  0.0492
 9545W        W27749   1.274  11.416  11.535  0.1663  0.0651  0.0723
 9546W        W27750  12.298   0.879   3.345  0.1379  0.0726  0.1193
 9547W        W27751  17.664   9.825   4.679 -0.1437 -0.0369 -0.0188
 9548W        W27752   4.800   3.552  15.318  0.1586  0.0657  0.0004
 9549W        W27753  12.347   0.528  15.379 -0.0038  0.0127  0.0498
 9550W        W27754  16.627   0.648  14.086  0.0922  0.0627  0.0187
 9551W        W27755  11.307   8.720   4.894  0.0862 -0.1396  0.2355
 9552W        W27756   3.605   7.352   5.282  0.0108  0.0476 -0.2127
 9553W        W27757   4.627  12.191  14.015 -0.0602 -0.0879 -0.1465
 9554W        W27758   4.579   0.573  11.290 -0.0004  0.2323  0.1040
 9555W        W27759  17.059   2.466  12.906  0.1702 -0.0553  0.0869
 9556W        W27760   3.259   3.647   1.872 -0.3326 -0.0185  0.1650
 9557W        W27761   8.681  16.889   4.291 -0.2614  0.2140  0.0720
 9558W        W27762   4.693  18.627   2.500 -0.2923 -0.0657  0.2853
 9559W        W27763  12.649  12.590   0.344  0.0556 -0.3040  0.1315
 9560W        W27764   1.915   6.433  11.677  0.0045 -0.0495  0.0911
 9561W        W27765   9.494   7.693  13.763 -0.0272 -0.0261  0.0530
 9562W        W27766  12.675   1.219  13.957 -0.1863  0.0900 -0.0598
 9563W        W27767   4.994  11.401  11.643  0.1259  0.1034  0.0871
 9564W        W27768   2.635   3.841  15.137  0.1812 -0.2126  0.1720
 9565W        W27769  17.638   6.998  12.859  0.1450 -0.1107 -0.1111
 9566W        W27770   1.122  14.712  11.684 -0.2871 -0.0419 -0.1571
 9567W        W27771   9.243  12.074  10.356 -0.2212  0.1114  0.1540
 9568W        W27772  12.298   8.058   4.075 -0.2217  0.1488  0.1097
 9569W        W27773  13.497   5.745   3.951 -0.1341 -0.1171  0.0627
 9570W        W27774  13.025  10.701   0.318 -0.0133 -0.1107  0.1849
 9571W        W27775   8.670  10.357   4.477 -0.1810 -0.1640 -0.0249
 9572W        W27776  17.323  15.272  10.878  0.0314 -0.1545 -0.1516
 9573W        W27777   2.638   0.553  11.313  0.2623  0.2147  0.0892
 9574W        W27778  16.307  18.035   1.435  0.0311 -0.0587  0.3604
 9575W        W27779   2.512  18.412  11.161 -0.0966 -0.1455 -0.2331
 9576W        W27780   6.623   8.805  15.016 -0.0931  0.2109 -0.0982
 9577W        W27781  16.127   0.443  14.313 -0.0619 -0.0426 -0.3062
 9578W        W27782  17.664  15.104  14.035 -0.2132  0.0327 -0.1918
 9579W        W27783   1.688   8.942  11.791 -0.1367  0.2257  0.1066
 9580W        W27784  10.904  16.086  12.884  0.0964 -0.1036  0.0599
 9581W        W27785   2.956  12.114  11.964 -0.1746  0.4263 -0.0698
 9582W        W27786   8.202  12.865  14.375  0.1718  0.2151 -0.0675
 9583W        W27787   4.284   7.224  13.797  0.0180 -0.1993  0.2229
 9584W        W27788   9.048   8.816   3.152 -0.2322  0.4383 -0.2548
 9585W        W27789  13.699   4.750  10.088 -0.2927 -0.2388  0.1727
 9586W        W27790   9.375  16.027   1.729 -0.3664  0.4323 -0.3295
 9587W        W27791   7.453   0.465  14.549  0.1046 -0.0039 -0.0343
 9588W        W27792   4.055   3.674  14.816 -0.3000  0.2663  0.0743
 9589W        W27793  18.589  16.804  14.445  0.1271 -0.1226  0.1283
 9590W        W27794  11.168  16.196   2.655 -0.1644  0.0476  0.1271
 9591W        W27795  11.108  13.540   2.964 -0.1054 -0.1833 -0.2301
 9592W        W27796  13.516   3.840   3.162  0.0567  0.0657  0.0979
 9593W        W27797   0.136  17.811  10.794 -0.0505  0.0152  0.2124
 9594W        W27798   8.847   3.739   3.833  0.0377  0.1072  0.0406
 9595W        W27799  14.955   3.719   0.546  0.1581 -0.2810 -0.0122
 9596W        W27800  12.865  10.212   0.158 -0.0006 -0.0379  0.0335
 9597W        W27801  16.359  14.218   0.554  0.0760  0.0455  0.4921
 9598W        W27802   6.760  11.346  13.182  0.0261  0.0306  0.0079
 9599W        W27803  14.691   1.698  11.988 -0.0508 -0.2993  0.2187
 9600W        W27804   4.285  15.473  11.810 -0.2630 -0.0025  0.0377
 9601W        W27805   4.843  10.484  12.619 -0.0824 -0.2159 -0.0632
 9602W        W27806  18.417  14.867  14.621  0.0132 -0.0368  0.0701
 9603W        W27807  13.995  13.237   2.604  0.0465  0.0656 -0.2093
 9604W        W27808   2.369   6.438  11.765 -0.0067 -0.3774  0.0483
 9605W        W27809   5.506  16.571  14.857 -0.0453  0.1677  0.1353
 9606W        W27810   0.713   2.633  14.101  0.2143  0.2110  0.2944
 9607W        W27811  13.166   5.943   3.570  0.4004 -0.2689 -0.2122
 9608W        W27812   0.301   6.743  12.796  0.0198 -0.1845 -0.1031
 9609W        W27813  17.522   0.402  14.605 -0.2809 -0.2937 -0.1762
 9610W        W27814   7.633   3.914   0.512 -0.4263  0.0466  0.0618
 9611W        W27815  15.338  11.362  15.403  0.3963 -0.0686 -0.0608
 9612W        W27816   1.839   8.165   1.730  0.0261  0.1201  0.1670
 9613W        W27817   4.271  10.016   0.428  0.0508 -0.2247  0.2042
 9614W        W27818  17.596   1.052  14.254 -0.0316 -0.0266  0.1580
 9615W        W27819   8.851   1.138  11.986  0.3824  0.2124 -0.1010
 9616W        W27820   1.916  15.413  15.374 -0.1704 -0.1420 -0.0870
 9617W        W27821  17.639   8.897  11.616 -0.0654 -0.2944 -0.0355
 9618W        W27822  14.690   7.914   0.298 -0.1092 -0.0702 -0.0267
 9619W        W27823   7.993   8.215   3.507  0.2263 -0.0124  0.2013
 9620W        W27824  11.104  15.668  13.763 -0.2204 -0.0544 -0.1469
 9621W        W27825   3.380  14.346  13.050 -0.0349  0.2963  0.0503
 9622W        W27826   9.757   3.312   2.585 -0.1224  0.1066  0.0426
 9623W        W27827   9.653   5.682   0.380  0.2372 -0.2277  0.2127
 9624W        W27828  11.337   2.806  14.782 -0.1291 -0.0222 -0.3625
 9625W        W27829  12.375  12.457  12.851  0.1083  0.2817 -0.5363
 9626W        W27830   7.976  17.536  10.557  0.0125 -0.1488 -0.3870
 9627W        W27831  10.841   2.820   4.043  0.0670  0.1909  0.2981
 9628W        W27832  14.492   1.853  14.578 -0.1908  0.0682 -0.0435
 9629W        W27833   6.557   5.401  14.389 -0.1372  0.0829 -0.0556
 9630W        W27834   5.310   1.991  10.953  0.1630 -0.0279  0.1216
 9631W        W27835  11.407   3.748   1.160 -0.0986  0.0272  0.3499
 9632W        W27836   0.201   6.992   9.959  0.1125  0.0431 -0.1320
 9633W        W27837   0.186   4.573  11.700  0.2891 -0.0369 -0.0726
 9634W        W27838   7.972   5.214   0.592 -0.1190 -0.1891  0.0764
 9635W        W27839  10.196   2.118   4.273  0.1615 -0.4558  0.0911
 9636W        W27840  12.997  11.808  13.004  0.1431 -0.1449  0.1969
 9637W        W27841  16.309  16.414  13.791  0.1106  0.4626  0.1725
 9638W        W27842  12.097  18.192   3.552 -0.2108  0.3360  0.0002
 9639W        W27843   5.405  14.253   0.298  0.2952  0.0766  0.0522
 9640W        W27844  16.280   2.389  12.142 -0.1663 -0.0466 -0.0476
 9641W        W27845   5.269   2.825   0.371 -0.0079 -0.0874 -0.1568
 9642W        W27846  16.346  13.829  11.725 -0.1172  0.1246  0.1849
 9643W        W27847  11.448  11.057  11.731 -0.1340  0.0394  0.1112
 9644W        W27848  15.947  17.138  13.792  0.1053 -0.1729  0.3380
 9645W        W27849   3.618   5.798  14.847 -0.1241 -0.2965  0.0556
 9646W        W27850   0.413   8.927   9.943  0.2353 -0.1383  0.1781
 9647W        W27851  18.438   4.572  15.088 -0.2880 -0.0656  0.1953
 9648W        W27852  10.806   2.286   4.706 -0.0838 -0.2412 -0.2310
 9649W        W27853   0.267   7.559   1.677  0.0004  0.0285  0.2236
 9650W        W27854  17.927  10.511   0.027 -0.4637 -0.1307  0.2973
 9651W        W27855   1.968   3.681   1.798  0.4099  0.0731 -0.0379
 9652W        W27856   0.326   5.927  12.362 -0.1462  0.0961 -0.0910
 9653W        W27857  13.873  15.689   1.980  0.0058 -0.2638  0.1829
 9654W        W27858   6.392  13.011   2.476  0.0884  0.2026 -0.0490
 9655W        W27859   9.762   8.121  13.748  0.0927 -0.2839  0.1712
 9656W        W27860  10.654   5.337  13.097  0.0498  0.3176 -0.0696
 9657W        W27861  16.892   4.918   4.835 -0.0681 -0.4075  0.1137
 9658W        W27862  14.661   1.010   2.274 -0.4470  0.0657  0.0060
 9659W        W27863  16.159  14.669  13.982  0.2060 -0.1192 -0.0503
 9660W        W27864  12.075   9.907   3.593 -0.1683 -0.1777 -0.3194
 9661W        W27865   9.675  17.934   2.767  0.1309 -0.0298 -0.0719
 9662W        W27866  15.676  15.058   1.586 -0.0430 -0.2757  0.2414
 9663W        W27867   6.631   2.671   4.659 -0.0774  0.0260 -0.1525
 9664W        W27868  12.557  17.540  15.316  0.1239 -0.0433  0.1447
 9665W        W27869  15.058  15.997   2.137 -0.0420 -0.0728 -0.0683
 9666W        W27870   0.364   4.102  12.870  0.1483 -0.0118  0.1869
 9667W        W27871   4.171   1.516  12.781 -0.1076 -0.1388  0.4090
 9668W        W27872  17.935  15.357  15.237 -0.2195  0.2730  0.0499
 9669W        W27873  16.203  18.391   4.360 -0.0085  0.2255  0.2688
 9670W        W27874   5.839  15.000  11.843  0.0440  0.0316 -0.1355
 9671W        W27875   2.627   8.194  13.660  0.1730  0.0166 -0.2381
 9672W        W27876  17.227  16.143   4.272  0.2536 -0.1998  0.1073
 9673W        W27877  13.680   3.306   1.434  0.2742 -0.0265 -0.4546
 9674W        W27878   7.970   2.802   5.564 -0.1300 -0.1237 -0.0604
 9675W        W27879  14.062   2.246   2.858 -0.1854  0.0414 -0.1568
 9676W        W27880  13.015   3.236   4.584 -0.3206  0.0840  0.2394
 9677W        W27881   9.023   1.703   3.134 -0.2223 -0.1495  0.0130
 9678W        W27882   6.877  15.828  10.939 -0.2451 -0.0265  0.1506
 9679W        W27883  18.239   8.473  15.050 -0.4766 -0.0589  0.1999
 9680W        W27884   4.747   8.459   4.620  0.2369 -0.1265 -0.2639
 9681W        W27885   9.995   7.316   1.048  0.1970  0.1633  0.0300
 9682W        W27886   2.501   3.873  13.425  0.0601  0.3059 -0.2748
 9683W        W27887   4.358  11.685  10.838  0.1336 -0.2271 -0.2610
 9684W        W27888  12.068   7.867  11.311 -0.1275 -0.0256 -0.1441
 9685W        W27889   1.630  10.629   4.033  0.1572  0.3039 -0.1716
 9686W        W27890  14.337  14.240  12.868 -0.1849 -0.1529  0.3660
 9687W        W27891  14.797   4.433  14.596 -0.3023 -0.2572  0.2828
 9688W        W27892  12.948  17.919   3.514 -0.0034  0.2372  0.2507
 9689W        W27893   6.057  15.970  12.458  0.2914  0.0944  0.1961
 9690W        W27894  15.411   9.247   2.654 -0.1099 -0.0982  0.2368
 9691W        W27895  11.212   0.678  13.212  0.0787  0.1389  0.1819
 9692W        W27896  10.938   6.344   2.160 -0.3300 -0.1606  0.1536
 9693W        W27897  12.209   4.422  12.636  0.0708  0.1643 -0.0295
 9694W        W27898   7.043   2.421  12.017  0.1448  0.0685  0.0450
 9695W        W27899   3.125  14.944   1.926 -0.0518 -0.0284  0.2413
 9696W        W27900  12.338   9.540   2.693 -0.1281  0.1347 -0.2579
 9697W        W27901  12.827  15.208   1.972 -0.3893  0.0272  0.1842
 9698W        W27902   5.312  16.735  13.569 -0.0923  0.3505 -0.0846
 9699W        W27903   3.141   8.833  15.015  0.0936  0.0604 -0.0009
 9700W        W27904  18.544   9.092   0.510 -0.1411  0.1205 -0.3086
 9701W        W27905   7.139   9.236  13.325 -0.2959 -0.0217 -0.1000
 9702W        W27906  11.368   5.727   1.543 -0.1681  0.2409  0.0270
 9703W        W27907   5.647   7.407   1.507  0.1039 -0.1757 -0.0977
 9704W        W27908   5.781   7.302  11.312  0.0611  0.0342 -0.1102
 9705W        W27909  18.174   8.053  11.699 -0.1126  0.2741 -0.2191
 9706W        W27910  13.870  11.226   0.325  0.2553 -0.2442 -0.2537
 9707W        W27911  13.764  12.789   0.429  0.1517  0.1030 -0.3761
 9708W        W27912  10.273  16.967   2.576  0.2637  0.2117 -0.2485
 9709W        W27913  17.151  10.110   4.926 -0.0433  0.1634  0.2539
 9710W        W27914   6.847  11.628  13.601 -0.0693 -0.0602  0.1481
 9711W        W27915  13.632   6.344   2.600  0.1051 -0.1395  0.0559
 9712W        W27916  13.474   8.523   3.143 -0.1360 -0.1602 -0.0185
 9713W        W27917   2.977   2.802  14.287  0.2589 -0.0599 -0.2066
 9714W        W27918   9.825  18.445   2.221 -0.0068  0.0354  0.0419
 9715W        W27919   9.188  14.946   3.872 -0.3005  0.2750  0.0076
 9716W        W27920   7.099   4.421   3.569 -0.0845  0.1351 -0.1683
 9717W        W27921   7.687   7.258   2.220  0.0068  0.2388 -0.0687
 9718W        W27922   0.605  17.961   1.038  0.2191  0.0738 -0.0036
 9719W        W27923  13.123   6.071  12.459 -0.2388 -0.0367 -0.1749
 9720W        W27924   0.992  18.508  11.636  0.1230 -0.2046 -0.0355
 9721W        W27925   8.248  18.509   3.073  0.1318 -0.2602 -0.2225
 9722W        W27926   9.013  10.423  15.252 -0.4564  0.1629  0.4595
 9723W        W27927  13.218  18.549  15.344  0.1076  0.1386  0.0897
 9724W        W27928  16.861  15.005   3.956  0.0558  0.1801  0.1398
 9725W        W27929   8.951   6.322   0.789 -0.0097  0.1064 -0.1719
 9726W        W27930   6.129   6.013   1.988 -0.1321  0.3721  0.1274
 9727W        W27931  13.032   8.757   0.805  0.0055  0.1933  0.4583
 9728W        W27932   0.163   3.106  13.265  0.0846 -0.2997  0.0969
 9729W        W27933  15.348   4.674   2.169  0.1006 -0.1610 -0.2893
 9730W        W27934  14.649   3.821   0.123  0.1505 -0.0470 -0.2390
 9731W        W27935   1.387   5.534  12.800  0.1516  0.0936  0.1746
 9732W        W27936  14.005  12.571   2.103  0.2205 -0.1476 -0.1865
 9733W        W27937  17.585   4.865   4.108 -0.0428 -0.3072  0.0820
 9734W        W27938   1.066   1.798   1.995 -0.2997 -0.1789 -0.0190
 9735W        W27939  18.324   0.418   0.612  0.3286 -0.0924  0.0294
 9736W        W27940  10.595  13.531   3.229  0.0595 -0.0164  0.0659
 9737W        W27941  14.551  15.592  14.642 -0.1439 -0.1223 -0.0675
 9738W        W27942   2.959  17.780   4.130 -0.1756  0.0281  0.0548
 9739W        W27943   9.438   4.441   3.656 -0.0110 -0.1720  0.4025
 9740W        W27944  18.441   8.159   3.344 -0.1706  0.1102 -0.0017
 9741W        W27945  17.274  10.825   2.164  0.0985 -0.2432  0.0099
 9742W        W27946   1.429  17.497  13.417  0.0287  0.0140 -0.2095
 9743W        W27947  14.490   3.554  14.570 -0.2224  0.1040  0.1426
 9744W        W27948   8.791   2.053   2.836 -0.2252  0.0423 -0.2079
 9745W        W27949  10.021  14.144   2.624 -0.3635  0.3009  0.0202
 9746W        W27950   0.715  16.153  12.226 -0.0677 -0.3001 -0.0847
 9747W        W27951  12.191   4.472  13.148  0.2137  0.0392 -0.2199
 9748W        W27952  11.282  14.799  12.117  0.1349 -0.0798  0.1991
 9749W        W27953  15.177   4.867  10.023 -0.0420 -0.1185  0.1699
 9750W        W27954  17.296   7.212   4.241 -0.2885  0.0271  0.2066
 9751W        W27955  15.050   8.419   1.058 -0.1950  0.1726 -0.1488
 9752W        W27956  15.132   1.341   3.126 -0.0591 -0.0154 -0.1561
 9753W        W27957   1.477   7.048  13.802 -0.1086  0.1971  0.1030
 9754W        W27958   1.150   8.075   4.398  0.0256  0.1366 -0.0448
 9755W        W27959   3.780   9.044  10.816 -0.0679 -0.1378 -0.1571
 9756W        W27960   7.682  10.480   4.723 -0.0822  0.0582 -0.1747
 9757W        W27961   9.756  11.209  13.700 -0.0704  0.0289 -0.0191
 9758W        W27962   0.698   6.340  12.185 -0.1989 -0.1945 -0.2780
 9759W        W27963  12.315   7.913   0.886  0.0826  0.2134  0.2517
 9760W        W27964  11.670  11.222   2.758 -0.1575  0.3453 -0.0091
 9761W        W27965   9.215  17.208   3.345 -0.1860  0.0734  0.2010
 9762W        W27966  15.946  13.205  12.709 -0.3173 -0.1405  0.1227
 9763W        W27967  10.507  13.076   3.148  0.2504  0.1245  0.0061
 9764W        W27968   1.522   0.720   2.350 -0.0717  0.2170  0.1556
 9765W        W27969   9.587   8.813   4.573  0.0826 -0.2317 -0.1696
 9766W        W27970   5.271   2.724   0.879  0.0476 -0.1880  0.0934
 9767W        W27971   2.043  16.727  13.744  0.2537  0.0677 -0.0803
 9768W        W27972  10.456   6.621   3.877 -0.2013 -0.4806 -0.1232
 9769W        W27973  12.209   4.720   1.510  0.0885 -0.0684  0.1234
 9770W        W27974  18.418   6.841   1.559 -0.0018 -0.2049 -0.2612
 9771W        W27975  11.925   6.186  11.571  0.3310  0.1988 -0.2470
 9772W        W27976  11.105  17.456   2.141  0.2776 -0.0179 -0.2799
 9773W        W27977   2.619   5.782  13.468 -0.2922 -0.2072 -0.1556
 9774W        W27978  15.058   1.595   3.574 -0.0238 -0.2046  0.2639
 9775W        W27979   3.432  10.027   3.139  0.1777  0.1430 -0.2331
 9776W        W27980   3.168   1.589  14.064  0.0311  0.1508 -0.2875
 9777W        W27981   9.837   9.428  14.090 -0.4020  0.3289 -0.1033
 9778W        W27982   9.505  14.341   5.584 -0.0916 -0.0851 -0.1880
 9779W        W27983   3.584   7.471  15.109 -0.3312  0.0366  0.2509
 9780W        W27984  18.617   7.551   0.671 -0.2567 -0.0769  0.0378
 9781W        W27985   7.445   5.316   0.595  0.1634 -0.1262  0.0266
 9782W        W27986  14.745   2.621   2.603  0.1448  0.1740 -0.0585
 9783W        W27987  14.536  10.123   9.909  0.1516 -0.1276  0.0880
 9784W        W27988   6.607  13.330  11.784  0.1317  0.1382  0.1245
 9785W        W27989  18.634   0.323   3.121 -0.2097 -0.3820  0.1742
 9786W        W27990  18.441   5.503   1.205  0.0572  0.0303  0.0607
 9787W        W27991   6.652  13.558  12.863 -0.1140  0.1224  0.0937
 9788W        W27992   8.075   6.331  12.545  0.0312 -0.1631 -0.0070
 9789W        W27993  12.734   2.003   2.699  0.0070 -0.2431  0.0977
 9790W        W27994  18.288   6.245  15.037  0.2696  0.0709  0.4502
 9791W        W27995  12.979  10.238  13.362 -0.1234 -0.1669  0.0317
 9792W        W27996  13.822  17.270  13.417  0.2430  0.1207 -0.0273
 9793W        W27997  17.154  10.344  14.547 -0.1225 -0.0124  0.0227
 9794W        W27998  10.014   3.064  11.778 -0.1713 -0.0943 -0.2376
 9795W        W27999  17.694   9.542   3.805  0.2183  0.0263  0.1295
 9796W        W28000  15.460   2.432   0.445 -0.3061 -0.1826  0.0927
 9797W        W28001   7.907  10.690  12.889  0.3150 -0.1578  0.0229
 9798W        W28002   9.164  16.576   1.686  0.1878 -0.0332  0.0396
 9799W        W28003  17.326  14.041   0.041  0.1035  0.3803 -0.0767
 9800W        W28004  16.951   0.479   1.914  0.1445 -0.1344 -0.0424
 9801W        W28005  13.909  12.603  12.921  0.0273  0.2154 -0.1990
 9802W        W28006   1.190  10.619   9.667  0.0622  0.0886 -0.0374
 9803W        W28007   1.571   9.500  14.450 -0.2403  0.0302 -0.1141
 9804W        W28008   4.966  14.056  14.200 -0.1313  0.0418 -0.1291
 9805W        W28009  10.334  13.394   2.146  0.0439  0.2701  0.1816
 9806W        W28010   0.215   0.541  10.934  0.1229 -0.0332  0.1696
 9807W        W28011  17.574  13.811   0.386 -0.1198  0.4605 -0.0573
 9808W        W28012  14.553   0.634   1.157 -0.1749 -0.1291  0.0730
 9809W        W28013   6.307   9.090   3.493  0.2156 -0.0858  0.2151
 9810W        W28014   8.909   8.260   4.510 -0.0087 -0.1265  0.0237
 9811W        W28015  18.089   7.426   2.922 -0.1930  0.1340  0.0536
 9812W        W28016  13.470  11.786  15.143 -0.1570 -0.1151 -0.1122
 9813W        W28017   3.104   3.779  15.095 -0.0305  0.0562  0.1338
 9814W        W28018  15.299  11.982   4.839  0.0340 -0.0987 -0.1881
 9815W        W28019   0.997  14.413   1.881  0.1365 -0.0000 -0.1659
 9816W        W28020  12.517   3.097  14.648  0.1055 -0.0271 -0.2802
 9817W        W28021  11.130   7.393   2.948 -0.1222  0.0132 -0.1381
 9818W        W28022   8.923   9.650   0.480  0.1436 -0.0494 -0.1789
 9819W        W28023  18.686   0.087  11.862 -0.0561  0.1550 -0.0394
 9820W        W28024  12.384   4.849  12.933 -0.0895  0.2641  0.1112
 9821W        W28025   8.523   0.520  11.054  0.1102 -0.5430  0.1230
 9822W        W28026  11.053   3.921  13.393  0.3601 -0.5261 -0.1482
 9823W        W28027  12.486  13.579   2.763 -0.2428 -0.2126  0.0487
 9824W        W28028   4.502   4.922   4.340  0.0977 -0.0735 -0.2554
 9825W        W28029  17.374  10.206   5.369  0.1663 -0.3258  0.2836
 9826W        W28030   8.027   3.227   4.089 -0.0146 -0.3919  0.0923
 9827W        W28031  11.263   8.732  10.273  0.1501 -0.2753  0.2587
 9828W        W28032  16.685  18.057   0.233 -0.1027  0.1113  0.2369
 9829W        W28033   5.165  17.432  13.488  0.1973 -0.0212  0.1655
 9830W        W28034  14.459   7.494  11.216  0.1392  0.4385 -0.1695
 9831W        W28035  10.803   5.267  14.424  0.1136 -0.2020 -0.0245
 9832W        W28036   2.355   7.473  14.887 -0.0360 -0.1478  0.0038
 9833W        W28037  16.696   7.928  13.768 -0.0218 -0.0031  0.0099
 9834W        W28038   2.590  14.645   3.672  0.3168 -0.0604  0.1326
 9835W        W28039   4.837   8.663   1.969 -0.0239  0.3107  0.0202
 9836W        W28040  16.178  10.041   1.530  0.1704  0.0578  0.3621
 9837W        W28041   9.886   6.666  13.334  0.1125  0.0138  0.0732
 9838W        W28042   3.760   5.193   3.365  0.0734 -0.2567 -0.1287
 9839W        W28043   4.963  15.895   0.781  0.1103  0.0707  0.3548
 9840W        W28044   1.826   0.386  12.663  0.2182  0.3668 -0.0218
 9841W        W28045   5.624  10.916  14.105  0.2412 -0.0324 -0.1637
 9842W        W28046   5.322   4.156   0.307  0.0410  0.0621  0.1692
 9843W        W28047   3.793  12.551  13.883 -0.2829 -0.0604  0.1850
 9844W        W28048  18.312   3.828  13.521 -0.0647 -0.5972 -0.0944
 9845W        W28049  10.583   2.281   3.778  0.1480  0.2921  0.1473
 9846W        W28050  17.456   5.026   1.161  0.5392  0.2141  0.1099
 9847W        W28051  12.929  10.466  10.716  0.1470 -0.1012  0.0722
 9848W        W28052   4.055   3.150   2.751  0.0073  0.1624  0.1140
 9849W        W28053   2.686  17.970  12.451 -0.0260 -0.4828 -0.0878
 9850W        W28054   2.781   2.104  13.837 -0.1069  0.1418  0.2816
 9851W        W28055  17.287   8.394   3.819 -0.1357 -0.0525 -0.0832
 9852W        W28056  11.111  18.506  14.494  0.0881 -0.2834  0.1605
 9853W        W28057  10.570  13.387   1.351  0.2409 -0.4281  0.1361
 9854W        W28058  14.081  10.312  13.490  0.0645  0.1670  0.1816
 9855W        W28059  14.360  17.365   0.035  0.0545 -0.1173  0.2257
 9856W        W28060   5.451  11.665   0.994 -0.2921  0.0387 -0.2219
 9857W        W28061  13.000   9.510  12.343 -0.1919  0.2270  0.1409
 9858W        W28062   0.910   3.255   2.647 -0.0770  0.0767  0.1819
 9859W        W28063  12.832  11.701   2.813  0.1155 -0.0418  0.1312
 9860W        W28064   7.942  16.283   4.035 -0.2099  0.1949  0.1886
 9861W        W28065   3.324  13.310   1.912 -0.2021 -0.1379 -0.0291
 9862W        W28066   4.688  11.296   2.231 -0.4103 -0.1798 -0.0625
 9863W        W28067   4.285  11.798   0.251 -0.0288  0.2529 -0.0134
 9864W        W28068   0.848   7.456   2.391 -0.1640  0.3115 -0.0674
 9865W        W28069   8.836   6.938  12.302  0.0976  0.1215  0.0532
 9866W        W28070  15.235   7.480   4.750  0.1768  0.2170  0.0813
 9867W        W28071  13.786  14.687  13.706 -0.0877 -0.1410  0.0034
 9868W        W28072  17.158   7.723   3.040  0.2469 -0.0219  0.1246
 9869W        W28073   6.809   1.095  12.608  0.0360 -0.1680  0.2315
 9870W        W28074  18.382  13.568   1.055 -0.2620  0.3080  0.1531
 9871W        W28075   5.834   0.098  12.631 -0.1970  0.2854  0.1342
 9872W        W28076   7.456   1.973  13.476  0.0428  0.1510 -0.1669
 9873W        W28077   3.361  11.335  15.205 -0.1288  0.0389  0.2531
 9874W        W28078  15.544  11.449  10.805  0.0026  0.1695 -0.0739
 9875W        W28079   1.106  13.766   0.559 -0.0500 -0.4046  0.3932
 9876W        W28080   7.026   3.147   3.313 -0.1435 -0.2234 -0.1910
 9877W        W28081   5.830  10.770  10.381 -0.0500  0.1559 -0.2237
 9878W        W28082   3.885  16.746  10.926 -0.0189 -0.0133  0.0257
 9879W        W28083  13.132   3.274   2.246  0.1053 -0.1166  0.5636
 9880W        W28084  15.542   8.332  11.346 -0.0258 -0.0135  0.2397
 9881W        W28085  18.058  18.227   5.311  0.0559  0.0527  0.0102
 9882W        W28086   1.156   7.657   1.143  0.1047  0.0254  0.0475
 9883W        W28087  12.696  17.113   1.079 -0.2122  0.2447  0.3451
 9884W        W28088   2.856  16.318   3.873  0.2378 -0.1909 -0.0655
 9885W        W28089  16.005  17.734  13.735  0.2275 -0.0716 -0.1223
 9886W        W28090  10.136  14.208  11.264 -0.0330  0.1289 -0.3351
 9887W        W28091   4.918   7.237   3.426 -0.1588  0.1098 -0.1356
 9888W        W28092   7.728   1.705   1.631 -0.1763 -0.2145  0.1177
 9889W        W28093   4.137   5.170  13.843  0.0988  0.5270  0.3268
 9890W        W28094  11.843   5.808  13.584  0.1514 -0.1600  0.2092
 9891W        W28095  18.031   8.436   1.208  0.0047  0.1643  0.0847
 9892W        W28096   9.532   6.033  12.483 -0.1988  0.0595 -0.0551
 9893W        W28097  18.513   8.580   1.376  0.0094  0.0738 -0.1769
 9894W        W28098   9.385   1.132   0.327  0.1251 -0.1427  0.1777
 9895W        W28099   4.309  12.591  11.904 -0.4163 -0.2334  0.0772
 9896W        W28100  11.136  12.272  13.367  0.0696  0.2340 -0.1321
 9897W        W28101  13.479   1.587   4.608  0.0462 -0.1818 -0.1144
 9898W        W28102   2.833   5.443   2.994 -0.1763 -0.1291 -0.0684
 9899W        W28103   7.280  18.016   1.429  0.1657  0.0628 -0.1478
 9900W        W28104  13.424   3.975  10.938  0.0238 -0.2083  0.1465
 9901W        W28105  17.508  15.909  12.638 -0.1092  0.3284 -0.0955
 9902W        W28106   3.390   4.216   3.111 -0.0190 -0.1164 -0.1887
 9903W        W28107   8.544  15.753  13.395 -0.0281 -0.0048 -0.0421
 9904W        W28108   4.330   1.199   1.404  0.2041  0.1088 -0.3729
 9905W        W28109  16.833   7.400   4.299 -0.0271  0.0225  0.2277
 9906W        W28110   3.265   4.551  14.700  0.0482 -0.2013  0.3397
 9907W        W28111  13.757  15.851  11.129  0.1150 -0.2021 -0.2061
 9908W        W28112   3.011  18.690   1.901 -0.2288 -0.2953  0.1161
 9909W        W28113   6.352   5.319  11.159  0.0562 -0.1483  0.3059
 9910W        W28114  11.641   4.421  13.097 -0.0130  0.1968 -0.3714
 9911W        W28115   5.437   5.751  13.559 -0.0962  0.0450  0.0506
 9912W        W28116   7.615  18.214   3.681 -0.1518  0.5466 -0.1436
 9913W        W28117  10.348  10.930   0.353 -0.2361  0.3868  0.1893
 9914W        W28118   9.477  15.311   4.171  0.2375  0.0096  0.1236
 9915W        W28119   9.575   3.581  14.483  0.2226  0.2995  0.1334
 9916W        W28120  11.853  15.624   0.478 -0.2693  0.1515  0.1759
 9917W        W28121  15.556   1.441   0.807  0.2701  0.3169 -0.1312
 9918W        W28122   1.885   4.306   4.093 -0.0088 -0.0453  0.0054
 9919W        W28123   2.565  17.600  14.858 -0.0873 -0.2178 -0.0878
 9920W        W28124  17.074   0.670   4.288  0.1615 -0.0680  0.0743
 9921W        W28125   1.825  18.274   1.076 -0.4598 -0.1081  0.1696
 9922W        W28126  12.448  16.864   2.082  0.3886 -0.0966 -0.1869
 9923W        W28127  15.565  12.473   0.797 -0.1029 -0.2608 -0.1511
 9924W        W28128   4.024  12.312  15.281 -0.0740 -0.1974 -0.0063
 9925W        W28129  14.874   5.608   2.959 -0.0966 -0.0137  0.0094
 9926W        W28130  10.784   7.377   4.016 -0.0024 -0.2206  0.0139
 9927W        W28131  17.272  15.806  13.539 -0.2347  0.1176 -0.1658
 9928W        W28132   1.218   6.965   2.500 -0.0367 -0.0240  0.0564
 9929W        W28133   8.487  11.806  15.129 -0.2434 -0.0820  0.2089
 9930W        W28134  10.933  11.380  10.708 -0.0727  0.1133  0.3045
 9931W        W28135   3.786   3.194   0.055  0.1211  0.0158 -0.2656
 9932W        W28136  14.789   5.599   0.080  0.2216 -0.0544  0.2115
 9933W        W28137  18.173   2.082  14.748  0.0851  0.0288 -0.0482
 9934W        W28138   5.201   5.030  12.342 -0.2186 -0.2434 -0.0492
 9935W        W28139   6.266  10.084   4.762 -0.2029  0.1971  0.2253
 9936W        W28140  11.035  10.737  14.429  0.0468  0.1926  0.0506
 9937W        W28141   9.921   9.868   2.239 -0.2346  0.0870 -0.1302
 9938W        W28142   8.699   3.683   3.359 -0.0308 -0.2314 -0.0881
 9939W        W28143  12.077  13.565  14.792 -0.0694  0.3179 -0.3299
 9940W        W28144  16.581   6.645  13.089 -0.0314 -0.0360 -0.1195
 9941W        W28145  12.213   9.907   1.824 -0.0458 -0.0656  0.0756
 9942W        W28146   5.624  15.315   4.340 -0.5114 -0.4073  0.0205
 9943W        W28147  16.362  12.207   3.433  0.2366 -0.2510  0.0011
 9944W        W28148  17.024   9.532   3.385 -0.1076  0.1155 -0.0321
 9945W        W28149   4.757  16.237   3.097 -0.0525  0.1083 -0.1532
 9946W        W28150  10.421  14.921  13.845 -0.0070 -0.0527  0.0724
 9947W        W28151   3.144   4.417  13.333  0.0690 -0.1659 -0.0307
 9948W        W28152  13.816  13.363  11.275  0.0194 -0.0313  0.3604
 9949W        W28153   4.289   9.096   2.700  0.0588  0.0102  0.0103
 9950W        W28154  11.439   5.143   2.693 -0.3465 -0.1416 -0.0684
 9951W        W28155  11.325  10.175   3.743 -0.0580  0.0152 -0.0392
 9952W        W28156  13.225   0.258   3.817  0.2305 -0.0548 -0.0814
 9953W        W28157  16.793   6.225  14.995  0.1809  0.2951 -0.2240
 9954W        W28158   1.465   8.853   3.451  0.0005 -0.0789 -0.1362
 9955W        W28159  10.824  14.018   1.030  0.1800 -0.1520  0.3671
 9956W        W28160  14.266  11.708   3.037 -0.2767  0.1739  0.2311
 9957W        W28161   0.613  10.467  14.045  0.0747 -0.4495 -0.3173
 9958W        W28162  15.255   3.635  15.078  0.0780  0.0147  0.1136
 9959W        W28163  11.018  15.464   3.249  0.3199 -0.0748  0.0947
 9960W        W28164   1.272   6.989  12.176  0.1372  0.0272 -0.0443
 9961W        W28165  13.228  18.219   5.233  0.2470 -0.0096  0.0552
 9962W        W28166   3.115  14.017  14.228  0.0157 -0.5705 -0.1783
 9963W        W28167  12.074  11.098   3.782  0.1823 -0.2263  0.1710
 9964W        W28168   6.829  12.846  12.514 -0.0252  0.1923 -0.0523
 9965W        W28169   1.294   2.238  10.821 -0.2772 -0.0883  0.0496
 9966W        W28170   3.096   3.251  15.129  0.0062 -0.0156 -0.1708
 9967W        W28171   9.280   3.547   0.425  0.0389 -0.0680 -0.0414
 9968W        W28172  13.042  12.194   1.847 -0.0206  0.1547 -0.1072
 9969W        W28173  10.879  18.198   2.219  0.0839  0.1817  0.0795
 9970W        W28174  15.008   9.862  11.687  0.0024  0.2308 -0.2983
 9971W        W28175  10.492  18.159   1.073  0.1075  0.0564 -0.0215
 9972W        W28176  10.797  15.620  14.577  0.1154  0.1466 -0.0130
 9973W        W28177  11.429   5.064   4.085  0.0950  0.1392  0.1303
 9974W        W28178   0.704   1.885  14.718  0.1995  0.0079 -0.1600
 9975W        W28179   3.474  16.651   3.851 -0.1473  0.0871  0.0717
 9976W        W28180  16.054   1.608  12.379  0.2074 -0.3662  0.2132
 9977W        W28181  10.466  10.125   3.945  0.2073  0.1555 -0.0454
 9978W        W28182  11.908   1.266  11.528  0.1424 -0.0197  0.3113
 9979W        W28183  11.847   9.132   4.794 -0.0164  0.0271  0.0618
 9980W        W28184  14.778   4.352  12.256  0.0815 -0.2343  0.1067
 9981W        W28185   6.175   8.864   3.944 -0.1234  0.1036  0.1370
 9982W        W28186  13.333  14.740  14.354  0.1998 -0.3554 -0.1457
 9983W        W28187  15.571   8.269   4.800  0.0763  0.1396  0.0227
 9984W        W28188   4.327   4.476  15.072  0.0739 -0.2435  0.0911
 9985W        W28189   4.821   0.527   1.193 -0.0983  0.1527 -0.2547
 9986W        W28190  16.264  14.138   3.560  0.0300 -0.1709  0.0963
 9987W        W28191   0.925  17.193   1.298  0.1302 -0.1235  0.1209
 9988W        W28192  18.012   8.910   2.092 -0.1134  0.1054  0.2099
 9989W        W28193  17.795   1.281   1.719 -0.1972 -0.1352 -0.0945
 9990W        W28194  17.911   0.817   0.885 -0.1393 -0.3060  0.0353
 9991W        W28195   5.379  13.675  11.545 -0.2300 -0.0982  0.2949
 9992W        W28196   4.896  11.099  13.492 -0.0994 -0.3406 -0.1142
 9993W        W28197   8.336   3.497   2.853  0.0420  0.3236 -0.0548
 9994W        W28198  14.459  10.557   2.704 -0.1315 -0.1554  0.1472
 9995W        W28199  12.051  16.219   1.452  0.1884 -0.0077  0.0767
 9996W        W28200   8.310  17.812  15.380 -0.6709 -0.0733 -0.0384
 9997W        W28201   7.840  12.074  13.935 -0.0788  0.2018  0.1064
 9998W        W28202   0.751   5.753   5.282 -0.2300 -0.0277 -0.0636
 9999W        W28203   2.619   7.448   3.608 -0.1594  0.0048  0.0284
10000W        W28204   0.529   5.256   4.201  0.1310  0.1670 -0.2221
10001W        W28205  15.379   3.598  11.819  0.1150 -0.4005  0.0648
10002W        W28206  14.526  10.227  13.107 -0.1867 -0.1886 -0.3446
10003W        W28207  18.190  16.266   3.249  0.1295  0.0268 -0.1600
10004W        W28208  16.274   1.590   2.965 -0.0907 -0.1086  0.1614
10005W        W28209   8.784  15.011   0.175  0.2657  0.1124  0.4589
10006W        W28210   2.028   1.060  15.215 -0.3302 -0.0630 -0.3057
10007W        W28211   7.790   4.166  14.110 -0.0129 -0.1384 -0.0973
10008W        W28212   8.194   5.645   0.797 -0.0822 -0.1195  0.2744
10009W        W28213   6.095  15.892   1.493 -0.2128 -0.0347  0.1840
10010W        W28214   4.532  10.212   4.665 -0.1398 -0.0548  0.1577
10011W        W28215  15.199  10.216   2.335 -0.0648  0.5330  0.1054
10012W        W28216  17.550  18.190  12.713 -0.0587  0.1319  0.0755
10013W        W28217   0.150  13.595   0.684 -0.1471 -0.0400 -0.2314
10014W        W28218  16.975   4.755  14.504  0.2826 -0.2498 -0.0865
10015W        W28219   7.504  16.700   1.049  0.3145 -0.1698 -0.4664
10016W        W28220   1.010   6.626  11.807  0.1252 -0.1427 -0.1780
10017W        W28221  13.208   5.520   1.034 -0.1266  0.2238  0.0786
10018W        W28222   9.390   8.509  13.002  0.1528 -0.1725  0.0997
10019W        W28223   0.135   0.045  12.991 -0.1735  0.0623 -0.1500
10020W        W28224   7.931  14.492   0.133  0.1006  0.1939  0.3130
10021W        W28225  15.083  16.418   3.918 -0.2198 -0.0626 -0.1987
10022W        W28226   6.209  10.399  13.607  0.0630  0.0128  0.0718
10023W        W28227   8.898   8.424  13.629  0.0060 -0.0956  0.3412
10024W        W28228   1.549   5.620   3.392  0.1207  0.2440  0.0751
10025W        W28229   0.157  16.433   3.274  0.1447 -0.0484 -0.1799
10026W        W28230   0.217  12.382   4.227 -0.3645  0.1356 -0.2000
10027W        W28231  11.726   4.408  13.946 -0.4035  0.0980  0.0500
10028W        W28232   9.192  10.486   1.287  0.0652  0.0374  0.0474
10029W        W28233  15.003  12.232  13.845 -0.4627 -0.4222 -0.2121
10030W        W28234   6.384  11.587   4.133  0.0852 -0.0006 -0.0946
10031W        W28235   7.826  13.000  13.473  0.2119  0.0969  0.3313
10032W        W28236  17.413  18.192  12.071 -0.0087  0.0668  0.0430
10033W        W28237  11.507  10.559   4.029 -0.1602 -0.0574 -0.1069
10034W        W28238   4.494  12.374   3.277  0.2197  0.2548 -0.0165
10035W        W28239   4.386  11.486   3.675 -0.1252  0.1573  0.2805
10036W        W28240   0.964  12.650  13.309  0.0018 -0.0044 -0.1134
10037W        W28241  17.689  13.661  15.371  0.0829 -0.0425 -0.2228
10038W        W28242   8.022   3.736   4.154  0.1526  0.0412  0.4159
10039W        W28243   4.509   1.564   3.144  0.0269 -0.2450 -0.1112
10040W        W28244  17.187   4.950  15.237 -0.1631  0.1445  0.0165
10041W        W28245   3.628   2.207   1.272  0.0569  0.1461  0.0029
10042W        W28246  10.782  13.874  14.684 -0.1756  0.3634  0.1852
10043W        W28247  10.013  15.999   0.192  0.0938 -0.0216  0.0986
10044W        W28248  18.362   4.419  14.610 -0.1290  0.2368 -0.0494
10045W        W28249  11.843   3.159   4.557  0.2222  0.1139 -0.1008
10046W        W28250   2.675  10.404  13.662 -0.1943  0.0689  0.2765
10047W        W28251   0.210   8.065   3.493 -0.2993  0.1719  0.0230
10048W        W28252   1.567   1.760  10.544  0.3035  0.2275 -0.0054
10049W        W28253   8.044  13.077  13.927 -0.2326  0.0406 -0.1392
10050W        W28254   2.918  15.203  12.046 -0.2454 -0.2394 -0.0996
10051W        W28255  17.343   6.821   0.593 -0.2364 -0.0842 -0.0410
10052W        W28256   6.372   8.536   2.794  0.1914  0.4015 -0.2632
10053W        W28257   8.507   0.754  12.681  0.2214 -0.1597 -0.2361
10054W        W28258   1.385   7.435  15.404  0.0848  0.1656 -0.1505
10055W        W28259  15.714  11.095  15.178 -0.0089  0.1128 -0.1396
10056W        W28260   8.818   6.066   2.498 -0.1950 -0.0654  0.1308
10057W        W28261  15.396   6.342  12.701  0.0579 -0.1305 -0.0899
10058W        W28262   5.809   9.758   4.150 -0.0550 -0.1873  0.0143
10059W        W28263   8.257   1.178   2.106  0.0594  0.0781  0.2184
10060W        W28264  17.579   3.987   2.948  0.2847 -0.0519 -0.1700
10061W        W28265   2.594   7.911   3.434 -0.0516 -0.0607 -0.1912
10062W        W28266   4.197  14.530  12.306 -0.1486  0.1130  0.2409
10063W        W28267   7.399   0.321   0.023 -0.0396 -0.2973  0.1570
10064W        W28268  13.284  14.259   1.125 -0.0522 -0.3052 -0.0742
10065W        W28269   5.659  15.709   2.264  0.1835  0.0411 -0.3339
10066W        W28270  10.624  14.658  13.345 -0.0973  0.2671 -0.0069
10067W        W28271   3.553   3.496   1.365 -0.0943  0.1101  0.2330
10068W        W28272   3.938   5.421  14.785 -0.0688  0.1888  0.0347
10069W        W28273  18.428  13.528  12.141 -0.1295  0.0334  0.1942
10070W        W28274   0.708  16.228  15.360 -0.3187 -0.0777  0.0379
10071W        W28275   7.029   9.584  12.373 -0.0514  0.0825  0.2497
10072W        W28276  15.870   3.842   0.500  0.2045 -0.0960 -0.1010
10073W        W28277  14.406  18.037  14.190 -0.1605 -0.1562  0.2830
10074W        W28278  16.910   5.340  13.314 -0.0713 -0.1202  0.2764
10075W        W28279  14.676  10.801   4.657 -0.0059  0.1847 -0.0222
10076W        W28280   4.885  13.545   1.966  0.1620 -0.0158 -0.1526
10077W        W28281   5.525   6.321  15.409 -0.2830 -0.2101 -0.5470
10078W        W28282   7.344   7.517  11.284 -0.1090  0.0414 -0.1263
10079W        W28283   0.006   4.764   4.780 -0.2293  0.3289  0.0160
10080W        W28284  15.384  11.863  13.587 -0.0676  0.3426 -0.2370
10081W        W28285  12.500   0.148   2.782  0.1093 -0.1493 -0.2725
10082W        W28286  11.178   6.115   0.270 -0.3488 -0.1511 -0.1730
10083W        W28287   0.131   3.762   3.829 -0.1618  0.1064 -0.2279
10084W        W28288   9.829   7.189  13.689 -0.1054  0.0297  0.2149
10085W        W28289  14.040  17.844  11.662 -0.0755  0.1607  0.0668
10086W        W28290   9.233  10.784  12.298  0.1669  0.1936  0.3606
10087W        W28291   2.939  16.023  15.425  0.3782  0.0262 -0.0395
10088W        W28292   1.991   0.442  13.132  0.0365  0.2327  0.1287
10089W        W28293  10.817   8.740  14.523 -0.2056 -0.1675  0.0163
10090W        W28294   8.535  14.242  12.291  0.1634 -0.0419 -0.1010
10091W        W28295   4.659  15.320  13.738 -0.0054 -0.0637 -0.4113
10092W        W28296   1.386  11.328  10.705 -0.0469  0.2008 -0.1084
10093W        W28297   2.402  11.639  12.907 -0.0347  0.0387  0.4057
10094W        W28298   3.300  12.900   0.117  0.0120 -0.0850 -0.2850
10095W        W28299  16.548   2.498  12.915 -0.2120  0.1397  0.0853
10096W        W28300   0.795   9.785  14.200 -0.0504  0.1321  0.2942
10097W        W28301  15.843  13.476  15.141 -0.0772 -0.0341  0.2644
10098W        W28302   0.167  17.509   0.746 -0.3490 -0.2526  0.4325
10099W        W28303  10.270  15.676  13.729 -0.3002 -0.1617  0.0127
10100W        W28304   7.737  11.546  13.981 -0.0753  0.3360  0.0236
10101W        W28305   3.422   8.465   4.234 -0.0870 -0.0780 -0.0080
10102W        W28306  12.645   1.248   3.365  0.0475 -0.0116 -0.1559
10103W        W28307  16.795   6.710   0.717 -0.0157  0.0974  0.0943
10104W        W28308   7.749  10.815  14.975  0.0596 -0.2865  0.0716
10105W        W28309  14.864   1.337   5.639 -0.3334  0.1858  0.2070
10106W        W28310  14.046   5.679  13.581 -0.1988  0.2187 -0.3592
10107W        W28311   6.242  14.906   3.833 -0.1078 -0.1929  0.2196
10108W        W28312   2.234  14.356   0.832 -0.2018  0.0492 -0.1509
10109W        W28313  16.568   6.676  11.097 -0.0365 -0.2080  0.1419
10110W        W28314  11.948  11.697   4.431 -0.0756 -0.0043  0.0674
10111W        W28315  11.903  16.359  12.480  0.4322 -0.1836 -0.1741
10112W        W28316   0.365  16.954   1.254  0.3110 -0.0780 -0.0513
10113W        W28317   3.394  11.532   0.744  0.5728 -0.4850 -0.0840
10114W        W28318   2.166  15.284  14.499  0.0296  0.1544  0.1323
10115W        W28319   5.767   9.560  14.321 -0.0162 -0.0497  0.0224
10116W        W28320  13.688  15.948   0.742 -0.0607 -0.1213 -0.1978
10117W        W28321   5.525   6.576   2.148  0.1692  0.0713  0.4442
10118W        W28322  16.816  10.825   1.768 -0.0680 -0.1482  0.2832
10119W        W28323   1.940   9.277  14.761 -0.1964 -0.0904  0.1917
10120W        W28324   4.920   1.052   1.128  0.0164 -0.0989  0.1040
10121W        W28325  17.977   1.287  13.056  0.0095  0.0806  0.1339
10122W        W28326   8.561  10.509   1.834  0.0857 -0.0489  0.0007
10123W        W28327   9.704  15.728  11.932 -0.0695  0.0222 -0.1342
10124W        W28328   9.847   7.924  11.964 -0.1268  0.2221 -0.1481
10125W        W28329   1.113   0.323   0.275  0.0870 -0.0629 -0.0284
10126W        W28330  16.693   7.142  11.174  0.1542  0.2749  0.0510
10127W        W28331   7.851   9.905   1.084 -0.0445 -0.0259 -0.3253
10128W        W28332  11.663  10.396  11.248  0.2416 -0.2518  0.3952
10129W        W28333   5.839   5.579   1.143 -0.0136 -0.1245  0.1048
10130W        W28334  17.873  17.601  12.795  0.0267 -0.1004 -0.1890
10131W        W28335  10.111   7.051  12.046  0.0090 -0.1747 -0.0091
10132W        W28336  18.314   6.790   5.131  0.4863 -0.3141  0.0894
10133W        W28337  10.293  17.987  11.736 -0.0479  0.1677  0.0865
10134W        W28338   7.417  11.557  11.369  0.2387 -0.2454  0.4127
10135W        W28339  13.247  13.464   4.295 -0.0924  0.0163 -0.0755
10136W        W28340  13.462   3.402   2.699  0.3401  0.1839 -0.2822
10137W        W28341   5.532  11.344  14.338 -0.3172 -0.4772  0.3079
10138W        W28342  14.433   1.485   0.129 -0.0281  0.0536  0.0017
10139W        W28343   3.843   7.659   0.143  0.3650  0.1281 -0.0902
10140W        W28344  16.164  17.669  11.343 -0.1118  0.1745  0.2797
10141W        W28345  10.899   9.198  11.888 -0.0646 -0.0827  0.0498
10142W        W28346   2.562  15.493  12.185  0.1886 -0.2221  0.2073
10143W        W28347  15.090   5.829   4.075  0.0903 -0.0542  0.3866
10144W        W28348  17.336   8.851   1.256  0.3033  0.1205  0.2091
10145W        W28349   6.424   1.586   3.983  0.3715 -0.0794  0.0745
10146W        W28350   7.495  11.464   4.268 -0.0063 -0.0426 -0.0170
10147W        W28351  15.447  17.348   0.688 -0.0955  0.0958 -0.0603
10148W        W28352  15.794   1.687  11.154  0.1118 -0.0266  0.1796
10149W        W28353  12.920  15.406   4.022  0.2910  0.1649  0.1884
10150W        W28354   8.572  14.951  14.592 -0.1800  0.1970  0.2961
10151W        W28355   4.595  14.106  13.644 -0.2885  0.0302 -0.0230
10152W        W28356  10.979   2.437   1.595  0.0358  0.0300  0.0365
10153W        W28357  12.179  13.128  14.479 -0.1345  0.0271 -0.2016
10154W        W28358  13.911  17.849  14.396 -0.1588 -0.0778 -0.2532
10155W        W28359  16.169  17.243   1.120 -0.0335 -0.1409  0.3644
10156W        W28360   0.241  15.611  14.058  0.3925 -0.0280  0.0021
10157W        W28361   3.882   1.446  11.978  0.0583  0.0493 -0.1050
10158W        W28362  15.063   9.031  12.434 -0.1618 -0.0537 -0.0019
10159W        W28363  14.684  12.903  12.859  0.0695  0.0116 -0.1859
10160W        W28364  18.662  12.059   4.575 -0.3296  0.2173  0.2556
10161W        W28365  14.797   6.516  14.147 -0.1250 -0.0951  0.4221
10162W        W28366   0.343  14.953   3.456 -0.0163  0.0634  0.1779
10163W        W28367   0.015   1.316  14.124  0.0260  0.1518 -0.0336
10164W        W28368   0.994  16.129  13.742 -0.0738  0.1057 -0.0981
10165W        W28369   4.536  12.128   2.850 -0.0260  0.0596 -0.4409
10166W        W28370   5.648  13.016  14.848  0.2325 -0.0890 -0.0334
10167W        W28371   9.107  13.924   4.047 -0.3242 -0.1844  0.0877
10168W        W28372  11.398  18.187   0.220  0.1772  0.3240  0.0493
10169W        W28373  17.569   5.150  12.721 -0.0954  0.0422  0.1581
10170W        W28374  10.923  16.978   0.058  0.1437  0.0390 -0.3469
10171W        W28375  12.819  11.009  12.945 -0.0968  0.1678 -0.1331
10172W        W28376   9.513   6.779  13.840  0.2043 -0.0210  0.1595
10173W        W28377   6.145   8.065   1.062 -0.0743 -0.0194  0.0165
10174W        W28378   6.665  14.491   3.148  0.0930 -0.0776 -0.4411
10175W        W28379   0.696  10.819   4.349  0.1720 -0.0016  0.0442
10176W        W28380   1.787   5.341  12.654 -0.1557  0.2963 -0.1042
10177W        W28381   0.838   0.671   3.343 -0.0144 -0.0832 -0.2709
10178W        W28382  17.254   6.142   1.851  0.0053  0.2338 -0.1328
10179W        W28383  10.142  13.259  12.880  0.0131 -0.0599 -0.0013
10180W        W28384   4.498   3.152  13.587 -0.2435 -0.0831  0.1377
10181W        W28385   3.396  16.007  15.170 -0.0498  0.3898  0.1799
10182W        W28386   1.728   5.876   2.238  0.0653  0.1733 -0.3450
10183W        W28387  11.060  13.553  15.033  0.1271 -0.3850 -0.1916
10184W        W28388   7.788  13.254   3.804 -0.1359  0.0192 -0.0081
10185W        W28389  13.112   0.951  11.291 -0.0153  0.0204 -0.1168
10186W        W28390   8.531  10.618   4.043  0.0194 -0.1273 -0.1393
10187W        W28391   6.232   2.371  15.103  0.2518  0.1190  0.0914
10188W        W28392   3.880   7.703   3.865  0.1303  0.1508  0.0523
10189W        W28393   0.622   3.162  11.146  0.4934 -0.1590 -0.1334
10190W        W28394  16.132  16.479  13.010 -0.3306 -0.2307 -0.1604
10191W        W28395   0.637   4.876  13.311 -0.2316 -0.6182 -0.3237
10192W        W28396  16.178   5.434   1.329 -0.0033  0.1497 -0.0678
10193W        W28397  10.731  14.739   4.199 -0.0340  0.0398  0.0404
10194W        W28398  18.554   6.243   3.116 -0.0153 -0.2065 -0.1408
10195W        W28399   1.763  14.562  12.923 -0.4045  0.1483 -0.0943
10196W        W28400   8.345  14.512  15.384  0.1376  0.1369  0.0611
10197W        W28401  13.565  13.805  11.061  0.0796  0.0747  0.0582
10198W        W28402   6.337   7.263   1.957  0.2070  0.0472 -0.1611
10199W        W28403   8.513   9.345   3.801  0.0404  0.0046 -0.1522
10200W        W28404  16.266   0.078   0.897 -0.2494  0.1530  0.2742
10201W        W28405  17.717  15.636   1.508 -0.3737 -0.3687 -0.1487
10202W        W28406  16.258  14.149  14.003 -0.3365  0.0654  0.1853
10203W        W28407  14.998   6.797   3.677 -0.0903  0.0060 -0.1998
10204W        W28408   2.329   5.375   0.144 -0.1884  0.0325  0.1002
10205W        W28409   3.547   9.536  14.458  0.0989 -0.2842 -0.0236
10206W        W28410   1.165   7.939   5.643  0.0770 -0.0455  0.2493
10207W        W28411   7.951  10.021  14.826  0.0687 -0.1597 -0.1250
10208W        W28412  11.197  15.959  15.379 -0.2818 -0.0896  0.0553
10209W        W28413   1.809   7.501   3.094 -0.1280 -0.0556 -0.2918
10210W        W28414  15.036   0.161   0.587 -0.0897 -0.0742  0.2034
10211W        W28415   7.546   6.262   4.449 -0.2276 -0.1118 -0.0202
10212W        W28416   3.088   7.068  14.323  0.2325  0.1699 -0.0327
10213W        W28417   6.443  17.623  13.029  0.0108 -0.1608  0.3533
10214W        W28418   1.317   0.572  15.364  0.0187  0.0313  0.3659
10215W        W28419  17.765  10.579  14.652 -0.0790 -0.1312  0.2817
10216W        W28420  12.148   6.178   0.732 -0.4938 -0.4477  0.0076
10217W        W28421  18.529  15.287  13.898 -0.0218  0.1772 -0.1400
10218W        W28422   6.493   7.704   1.658 -0.2902 -0.0272 -0.0529
10219W        W28423  16.034   1.635  11.586  0.1609  0.4099  0.0259
10220W        W28424   8.484  10.724   0.932 -0.0461 -0.2302  0.1643
10221W        W28425   5.199  13.733  12.857  0.0626 -0.0898  0.0783
10222W        W28426  16.728  17.196   2.853 -0.0931  0.0277  0.1248
10223W        W28427   1.453  15.576   3.975 -0.1444 -0.3254  0.1399
10224W        W28428  14.782   5.728   4.689 -0.2447 -0.0797  0.3205
10225W        W28429  14.300  11.683   0.182  0.5378 -0.4279  0.0627
10226W        W28430  12.757   3.705  12.147  0.2020  0.1148 -0.0170
10227W        W28431  15.391  10.553   1.550  0.1743  0.1686  0.1500
10228W        W28432   2.455  15.385   2.408  0.3280 -0.1050 -0.2621
10229W        W28433   6.572   0.663  11.108 -0.1499  0.1068 -0.0831
10230W        W28434   8.604   6.677   1.680 -0.1898 -0.1628  0.0224
10231W        W28435   0.159   2.664   1.044  0.3464  0.0525  0.2185
10232W        W28436  12.293   1.726   3.021 -0.2253 -0.0427  0.2233
10233W        W28437  16.858   0.992  11.850  0.2681  0.2152 -0.0720
10234W        W28438   8.070  16.243   4.567 -0.2289  0.0561  0.1306
10235W        W28439  18.584   6.738  12.349 -0.2602 -0.1528  0.0010
10236W        W28440  14.325  12.008   1.440  0.0602 -0.1252  0.0515
10237W        W28441  17.182  12.288   1.538 -0.1584  0.2762 -0.0462
10238W        W28442  10.385   8.505  10.532  0.0606 -0.1247  0.1918
10239W        W28443  10.784  10.907   1.644 -0.1530  0.1293 -0.0970
10240W        W28444   6.993   6.996   0.028  0.1499 -0.0243 -0.2041
10241W        W28445   0.054  12.390  12.238 -0.1040 -0.2884  0.2165
10242W        W28446  17.944  14.775  14.441  0.4469 -0.0709  0.1909
10243W        W28447   3.622   7.062   0.955 -0.0283 -0.1464 -0.0943
10244W        W28448  16.007  17.197   1.704 -0.2296  0.1209 -0.0947
10245W        W28449   0.187  14.653   1.546  0.0033 -0.2086 -0.0399
10246W        W28450   2.091  17.449   0.697  0.1759 -0.1347  0.1775
10247W        W28451  16.469  10.707  13.267 -0.2380 -0.1591  0.1854
10248W        W28452  17.797  14.078  12.510  0.0668 -0.1378 -0.1453
10249W        W28453   5.563  14.118  13.969  0.5007 -0.0272 -0.2637
10250W        W28454   7.145  17.408  15.213 -0.2361 -0.0954  0.0223
10251W        W28455  10.982   1.088  13.355  0.1039 -0.1457  0.0115
10252W        W28456   7.268   7.017  13.329 -0.1440  0.2011  0.1492
10253W        W28457   3.302  10.617  10.880 -0.0820 -0.0341  0.3373
10254W        W28458   7.629  18.598   1.057 -0.1436  0.1401 -0.3136
10255W        W28459   9.549   0.935  10.871 -0.4139  0.0016 -0.1545
10256W        W28460   9.862   4.390  13.720 -0.1209 -0.0738 -0.2482
10257W        W28461  14.580  13.398   3.909  0.0665 -0.0778  0.0915
10258W        W28462   5.948   4.263  10.988  0.0110 -0.1961  0.2096
10259W        W28463  17.182  17.611   2.132  0.4296 -0.1706 -0.2709
10260W        W28464  15.323   4.232  13.925  0.2855  0.0711  0.2181
10261W        W28465   3.704   1.650   1.999 -0.0675 -0.0005 -0.1809
10262W        W28466   6.994  18.440  10.962 -0.0334  0.1872 -0.1996
10263W        W28467  16.052   2.125  14.709  0.0704  0.1967  0.1634
10264W        W28468  17.536  10.489   4.977 -0.2162 -0.1617 -0.1364
10265W        W28469   0.020  13.145   4.102 -0.1334  0.2859 -0.1127
10266W        W28470  18.332   4.557   1.159  0.0162  0.0105 -0.0939
10267W        W28471  16.922   4.180  11.246 -0.0873 -0.1810 -0.2423
10268W        W28472   5.518  14.454   3.759  0.1215  0.2319  0.4666
10269W        W28473  18.021   1.274   4.756  0.0077  0.3549  0.2085
10270W        W28474  14.130  16.615   1.305 -0.0039 -0.3492 -0.4353
10271W        W28475  11.391   5.093  11.586 -0.0737 -0.0093  0.1409
10272W        W28476   1.883   2.163  10.075 -0.0218 -0.1983  0.1262
10273W        W28477   7.411  11.138   0.146  0.0238  0.0137 -0.1243
10274W        W28478  18.586  16.769   1.345  0.4183  0.1090 -0.0197
10275W        W28479  11.476  18.533   1.280 -0.0002  0.2426  0.0327
10276W        W28480  11.180  18.068  13.167  0.0151  0.0344 -0.0175
10277W        W28481   3.001  17.405   4.504 -0.0612  0.1071 -0.1027
10278W        W28482   8.127   8.717   3.137  0.1089  0.0501  0.0024
10279W        W28483  12.794  11.198   5.960 -0.1617 -0.0033  0.0938
10280W        W28484   3.967   3.988   4.085 -0.0619 -0.1520  0.0628
10281W        W28485   5.640   0.599  15.423 -0.0808 -0.2171 -0.3006
10282W        W28486   5.033  10.971   1.582 -0.3371 -0.1676 -0.0349
10283W        W28487   3.799   2.756   5.402 -0.2425  0.0367  0.1038
10284W        W28488  12.011   9.298  11.970  0.1158 -0.0745  0.3421
10285W        W28489  14.019   6.243   4.442  0.1176  0.0917  0.0218
10286W        W28490  13.893  17.717   4.560 -0.4559 -0.3804 -0.1812
10287W        W28491  11.781  17.983   1.782  0.3047  0.1808 -0.1731
10288W        W28492  10.706   0.331   1.571 -0.1061 -0.0003 -0.2717
10289W        W28493  11.341   2.750  11.402 -0.1306 -0.5120 -0.1144
10290W        W28494   1.606  16.934   2.589  0.0641 -0.1376 -0.1112
10291W        W28495   0.067  11.098  15.221 -0.5414 -0.4958  0.0955
10292W        W28496   9.763  13.886  14.482 -0.2551  0.1635  0.0946
10293W        W28497  16.381   0.184  14.669  0.0367  0.1295 -0.2721
10294W        W28498   1.626  16.375   4.412 -0.0622  0.3116 -0.0949
10295W        W28499   5.990   3.596   1.928  0.1929  0.1112  0.2858
10296W        W28500   6.679  15.029  12.336 -0.2660 -0.4383 -0.0385
10297W        W28501  12.173  18.607  11.875 -0.0612 -0.0785 -0.0985
10298W        W28502  10.718  17.006   4.436 -0.1377 -0.1052  0.1603
10299W        W28503   5.294  15.936   2.839  0.0404  0.0723 -0.1068
10300W        W28504  15.941   5.905  13.520 -0.3327  0.0783  0.1424
10301W        W28505   4.377   0.652   2.871  0.2285 -0.1985 -0.0447
10302W        W28506  15.346  18.372  11.167  0.4669 -0.0130 -0.0015
10303W        W28507  16.272   0.489  13.111  0.0031 -0.1897 -0.0961
10304W        W28508   5.059   5.034   0.221 -0.2296 -0.0266  0.0327
10305W        W28509   3.546  11.957  14.391  0.0678 -0.0022  0.0462
10306W        W28510  12.554   4.062  12.542 -0.1028  0.1280 -0.0102
10307W        W28511  13.594   2.954  11.831 -0.1198  0.0898  0.1437
10308W        W28512   3.469   6.881   1.390  0.0306  0.1032 -0.2227
10309W        W28513   6.644   6.330   0.465  0.2737 -0.0972  0.0794
10310W        W28514   9.477   2.661   2.872 -0.0652 -0.0700  0.0280
10311W        W28515   2.349  11.310   2.831 -0.0330 -0.0199 -0.0401
10312W        W28516  13.220   6.615   3.858 -0.2155  0.0424 -0.1073
10313W        W28517   9.488   7.377   1.886 -0.0898 -0.3614 -0.0942
10314W        W28518  18.021  15.240   1.657  0.1475 -0.3872  0.2501
10315W        W28519   6.733   1.605  11.588 -0.2783 -0.0975 -0.0493
10316W        W28520  17.330  14.139  12.303 -0.0315  0.1638 -0.0036
10317W        W28521   7.298   6.941  11.315 -0.2166  0.1622  0.0181
10318W        W28522   5.746   7.043  12.592 -0.0181 -0.0142  0.2267
10319W        W28523  17.814   4.084   1.887  0.1214  0.1346  0.0955
10320W        W28524  11.516   9.231  10.768  0.1405  0.1576 -0.0166
10321W        W28525   9.234  10.545   5.062  0.1446  0.0257  0.0814
10322W        W28526   1.045   7.818  13.161  0.0491  0.0704 -0.0885
10323W        W28527   1.685   6.994   0.158 -0.0412  0.0186  0.0253
10324W        W28528  15.775   8.371  12.236  0.0539 -0.1263 -0.1660
10325W        W28529   5.687   4.516   4.199 -0.0238 -0.0652 -0.1117
10326W        W28530   4.608  10.013  14.956 -0.1762  0.0650  0.0228
10327W        W28531   2.576   9.770   4.101 -0.0569 -0.2186 -0.1325
10328W        W28532  15.125  14.180   4.295  0.0576  0.3300  0.1320
10329W        W28533  10.188  13.962   2.149 -0.1688  0.0587  0.0555
10330W        W28534  12.434   5.389  11.504 -0.2905  0.0774  0.2709
10331W        W28535   0.658   8.344  12.579  0.2777 -0.1530 -0.2735
10332W        W28536  12.599   3.570  12.706 -0.0084 -0.1918  0.1719
10333W        W28537   0.206  11.497   3.319  0.1509  0.0193 -0.0847
10334W        W28538   2.435  11.030  12.548  0.0761  0.1486 -0.2179
10335W        W28539   9.152   9.189  12.348  0.2437  0.0498  0.1368
10336W        W28540   8.510   3.258  12.750 -0.3807  0.1050 -0.3329
10337W        W28541  15.447   9.383  14.066  0.3272 -0.0037 -0.0643
10338W        W28542  16.821  10.016  10.961  0.2263 -0.3893  0.0155
10339W        W28543  17.996  14.893   3.157 -0.1931  0.0213  0.1840
10340W        W28544   2.970  15.016  15.206  0.0092  0.1205 -0.2620
10341W        W28545   9.473  10.068   1.910  0.1018  0.1660 -0.0150
10342W        W28546   4.205  12.872  13.559 -0.1162 -0.3729  0.3181
10343W        W28547   8.149  14.388  11.573  0.0022 -0.0831  0.3542
10344W        W28548   8.407   0.649   2.603 -0.2710  0.3583  0.4376
10345W        W28549   0.731   3.750   2.949  0.1508  0.2432  0.1013
10346W        W28550  18.431  10.482  14.879 -0.3322  0.2998  0.1257
10347W        W28551   9.369   4.150   0.216  0.0451 -0.3852 -0.2131
10348W        W28552  16.059  16.854   4.199  0.2758 -0.1026  0.2142
10349W        W28553  11.670   4.660   3.849 -0.2201 -0.1246 -0.1038
10350W        W28554  13.711   1.418   3.320 -0.0712  0.2858  0.0238
10351W        W28555   1.874  12.297   2.433  0.0576 -0.0646 -0.0976
10352W        W28556   4.393   7.337  14.698  0.1632  0.2427  0.3060
10353W        W28557  13.543   8.053   5.309 -0.3083  0.0641  0.0618
10354W        W28558   5.500   0.506  11.921 -0.2767 -0.2138  0.1143
10355W        W28559  18.472   9.586   2.577  0.0310 -0.2188 -0.1229
10356W        W28560  12.971   9.023  13.007  0.4516  0.0318  0.3018
10357W        W28561  16.731   0.620  14.670 -0.2493 -0.0266  0.2081
10358W        W28562   3.153  10.836   1.279  0.0820  0.0325 -0.3718
10359W        W28563  12.700  18.061  13.566  0.1666 -0.0047  0.2853
10360W        W28564   5.287  15.389   3.370  0.0780  0.0959 -0.0467
10361W        W28565  16.084   5.059   5.016  0.3783 -0.3957 -0.1782
10362W        W28566  11.448   9.068  13.850 -0.1359 -0.0682 -0.0073
10363W        W28567   6.064   4.317   0.897 -0.0320 -0.0322  0.3420
10364W        W28568   6.972   5.682   3.162 -0.0344  0.0427 -0.1719
10365W        W28569   6.118   7.646   3.695 -0.1123 -0.1545 -0.2468
10366W        W28570   9.790   0.326   4.404  0.0517  0.0807 -0.2621
10367W        W28571  16.339  15.254  10.682  0.1106 -0.1332  0.0982
10368W        W28572   8.753   8.825  12.513  0.0162  0.0034  0.1697
10369W        W28573   7.588   7.683   0.035 -0.0957  0.1488 -0.0922
10370W        W28574   4.426  17.570  14.964 -0.1683 -0.2008 -0.5050
10371W        W28575  12.607   8.387   3.376 -0.2374 -0.0615 -0.0081
10372W        W28576   2.984  12.623   1.096  0.4251 -0.0971 -0.0625
10373W        W28577   2.496   2.070  14.582  0.3055 -0.2006  0.1130
10374W        W28578   7.281   9.830   0.071  0.0301 -0.0291  0.1723
10375W        W28579   7.058  17.939  11.255  0.1340  0.0678  0.3170
10376W        W28580  10.454  16.431  13.826  0.1656  0.1825  0.4058
10377W        W28581   4.673  13.665  14.231  0.1706  0.2194  0.1226
10378W        W28582  10.833   1.642   3.143 -0.3998 -0.1423 -0.0455
10379W        W28583  12.333  17.412   1.784  0.2149  0.2511  0.2304
10380W        W28584   2.145  16.299  12.909 -0.3104 -0.0368  0.0931
10381W        W28585   5.310   5.476   0.440  0.0524  0.3014  0.2237
10382W        W28586  15.778  17.257  12.030  0.1316  0.0817  0.1126
10383W        W28587   5.814  18.166  14.664  0.3456 -0.0341  0.0388
10384W        W28588   7.306   5.902  12.299 -0.1048 -0.0815  0.0542
10385W        W28589   1.087  10.496  11.698  0.1379 -0.2602  0.4007
10386W        W28590   5.768  17.291   0.318  0.1666 -0.4416 -0.1477
10387W        W28591   1.956   5.484  15.208 -0.0410  0.4043 -0.2627
10388W        W28592   1.070   9.126   1.294 -0.1326  0.4669 -0.0301
10389W        W28593  12.213   5.319   4.501  0.0962 -0.0876 -0.0096
10390W        W28594  14.151   6.894   2.492 -0.1510  0.0761 -0.0100
10391W        W28595   3.949   8.067  15.352  0.1551 -0.0075 -0.0224
10392W        W28596   4.344  15.301   1.124 -0.0602 -0.0242 -0.2124
10393W        W28597   0.092   3.201   4.693  0.2802 -0.1438  0.1203
10394W        W28598  15.922  16.589   3.083 -0.2556 -0.1312  0.2826
10395W        W28599   9.484  12.271   1.712  0.1401 -0.0713  0.1472
10396W        W28600  10.747  12.589   3.809 -0.0355  0.2301 -0.0682
10397W        W28601   3.838  13.457   1.686 -0.0293 -0.0788 -0.5423
10398W        W28602   4.324   4.086   4.499  0.0064 -0.1389  0.1075
10399W        W28603   4.261  11.974   2.245 -0.0102  0.0101  0.1481
10400W        W28604   1.802  15.680  10.595 -0.0290 -0.0200  0.3179
10401W        W28605   5.351   2.189  15.044  0.1849 -0.1224 -0.0884
10402W        W28606   1.979  11.597   3.657 -0.2538  0.0121 -0.3233
10403W        W28607   0.943  12.076   1.726  0.1105 -0.0030 -0.1318
10404W        W28608  15.810  17.333  14.482 -0.2787 -0.0916  0.0772
10405W        W28609  12.188   3.833   3.902 -0.2249 -0.1150 -0.1564
10406W        W28610   6.454  18.190   0.715 -0.0980 -0.2298  0.0279
10407W        W28611  17.581  17.764  11.815 -0.3484 -0.0265  0.0560
10408W        W28612  17.043  13.309   3.069 -0.0464  0.2571  0.1535
10409W        W28613   0.096  11.379   2.356 -0.0630  0.2380  0.2638
10410W        W28614   3.934  10.346   3.170  0.0261  0.3003  0.0152
10411W        W28615   4.886   7.839   3.296 -0.0377 -0.0335  0.1256
10412W        W28616  15.531  16.040  14.585  0.1054 -0.0439  0.1360
10413W        W28617   6.773   1.759   1.421 -0.2507 -0.2931 -0.2277
10414W        W28618   5.714   5.671   3.464  0.1293  0.1939  0.1420
10415W        W28619  12.189  10.904   1.721 -0.3757 -0.0295 -0.2033
10416W        W28620  14.412  12.547  10.085  0.2470  0.1841 -0.0671
10417W        W28621  16.953   4.798   5.323 -0.2245 -0.0649 -0.1335
10418W        W28622  10.178  11.631   1.678 -0.1331  0.1920 -0.0245
10419W        W28623  12.773  12.326  15.356  0.1927 -0.0015  0.0481
10420W        W28624  12.214  12.302   0.103  0.0331 -0.3408  0.2014
10421W        W28625   8.595   8.770   1.457 -0.0354 -0.3332 -0.2713
10422W        W28626  13.130  11.316   2.532 -0.0320  0.2336  0.1216
10423W        W28627   2.732  18.140   3.871 -0.0725  0.0440  0.1039
10424W        W28628   4.920  14.302  10.879  0.2717  0.1321  0.1644
10425W        W28629   7.817   5.326  14.080  0.2120  0.2114  0.2355
10426W        W28630  10.341   3.680  11.059 -0.1692  0.0748 -0.0728
10427W        W28631  15.683   4.594  12.479  0.2725  0.2854  0.2310
10428W        W28632   8.990  13.818  13.511 -0.3958  0.0910  0.0013
10429W        W28633   1.757   9.254  13.600 -0.0621 -0.0492  0.4653
10430W        W28634   7.097  11.836  14.949 -0.2182  0.3615 -0.0082
10431W        W28635  12.035  17.483   2.462 -0.0052  0.1368  0.1380
10432W        W28636   3.789  15.790  12.757  0.0542 -0.0549 -0.2357
10433W        W28637  15.479   3.019   3.703  0.4074  0.0508  0.3626
10434W        W28638   0.790  11.625   3.072  0.3581 -0.0380  0.3011
10435W        W28639   9.239   7.135   0.555  0.1901 -0.0110 -0.1121
10436W        W28640   8.964   0.229   4.088  0.3496 -0.0798 -0.2326
10437W        W28641  14.104  18.290  15.363 -0.0199  0.0363  0.3894
10438W        W28642   1.125   5.254   3.463  0.1592  0.1148 -0.1011
10439W        W28643  14.337  15.782   2.095  0.1014  0.0998  0.0756
10440W        W28644  12.858  10.087  14.705  0.1002  0.1658  0.0695
10441W        W28645   9.634  13.444  13.025 -0.2875  0.0828 -0.0758
10442W        W28646   5.845   8.268   3.027 -0.1713  0.1178  0.5085
10443W        W28647  15.651   5.511  14.526 -0.0573 -0.0473 -0.2354
10444W        W28648   3.918   0.198  14.490  0.0912 -0.1724 -0.2759
10445W        W28649  17.125   6.430  13.035  0.0175  0.4388 -0.0207
10446W        W28650   1.368  15.857   4.539 -0.2103  0.0998  0.0849
10447W        W28651  10.221  17.824  13.392 -0.1420 -0.3509 -0.0972
10448W        W28652  18.622  13.543  15.321 -0.1035  0.1454 -0.3548
10449W        W28653   8.332   8.212  11.733 -0.0846 -0.3544  0.0977
10450W        W28654  14.294   3.478   0.048  0.1352  0.2879 -0.1882
10451W        W28655   9.924  14.207  14.028 -0.2400  0.0423 -0.0047
10452W        W28656   4.448  16.333   4.546 -0.1610  0.5102  0.0464
10453W        W28657   2.215   5.776   2.093 -0.0189  0.1214  0.2732
10454W        W28658  10.811   3.363   2.606 -0.1002  0.0166  0.4265
10455W        W28659  16.941   1.453   3.962  0.2444  0.1975  0.2345
10456W        W28660   8.619  17.539  14.067  0.0758 -0.0066  0.0061
10457W        W28661   2.820   4.729  13.818 -0.3945 -0.2338  0.4436
10458W        W28662   7.902   3.404  13.232  0.0245 -0.2092  0.0844
10459W        W28663  16.466  17.092   1.510 -0.3037 -0.0311 -0.1022
10460W        W28664  17.426   3.305   4.486 -0.2515 -0.1202 -0.0825
10461W        W28665  11.593  14.244  11.389  0.0257  0.0160 -0.0765
10462W        W28666   5.568  15.347  14.213  0.0963  0.1422  0.2081
10463W        W28667   5.151  17.595  12.954 -0.2661  0.1462  0.0284
10464W        W28668  17.925   5.433   3.015  0.0121  0.1044 -0.1094
10465W        W28669   2.956   4.769  15.017  0.0589  0.2297 -0.1686
10466W        W28670  11.129  14.011  13.175 -0.0612 -0.1455 -0.1799
10467W        W28671  13.499  11.312  15.333  0.4802 -0.0424  0.3251
10468W        W28672   5.874  13.073   2.629 -0.0576 -0.2552  0.0527
10469W        W28673  14.775   9.953  13.697 -0.3749 -0.0238  0.1578
10470W        W28674  12.613  16.896  10.255 -0.2258 -0.0227  0.0670
10471W        W28675  17.425  13.611  12.614 -0.4071  0.0297 -0.1072
10472W        W28676   7.871   4.318   2.684 -0.5184  0.0896 -0.1795
10473W        W28677   8.475   7.314  12.298  0.1620 -0.0339 -0.1086
10474W        W28678   8.727   2.479   5.155  0.0587 -0.3202 -0.0183
10475W        W28679  11.392   1.981   0.340 -0.1775  0.3266  0.1539
10476W        W28680  14.094   1.200  13.264  0.3663 -0.4539 -0.0356
10477W        W28681  12.141   0.376  11.091 -0.2578 -0.2070  0.1158
10478W        W28682  11.172   6.344   3.248  0.1911  0.0234  0.3232
10479W        W28683   2.282  12.819  11.231 -0.0821  0.0583  0.0655
10480W        W28684  18.049   0.753   4.681  0.2683  0.5093 -0.0721
10481W        W28685  14.398  10.081   3.100  0.0302  0.5205 -0.1196
10482W        W28686   1.864  13.206  10.965  0.0026 -0.3721 -0.1695
10483W        W28687  10.714   1.284  11.421 -0.0596 -0.0249  0.0005
10484W        W28688   8.617   5.969   1.130 -0.1544 -0.0182  0.2527
10485W        W28689  18.051   8.779   0.474 -0.0604  0.0220  0.2480
10486W        W28690   6.629  10.522  11.396 -0.0948 -0.2506 -0.4395
10487W        W28691  17.756  13.079   1.038 -0.0827  0.0525 -0.2390
10488W        W28692  10.700   9.853   2.441  0.2883  0.1601  0.1035
10489W        W28693  16.158   7.001  13.843  0.0971  0.5115 -0.0575
10490W        W28694  11.504   7.213   1.158 -0.1350 -0.2080  0.2934
10491W        W28695  10.754  13.489  10.300  0.1164 -0.0601 -0.0398
10492W        W28696  14.126  12.614   3.679  0.0220  0.0742  0.0769
10493W        W28697  11.024   4.533   4.376  0.4729 -0.0692 -0.2779
10494W        W28698  15.473  11.016  12.453 -0.3785 -0.2794  0.4082
10495W        W28699  16.744   1.830   1.050  0.3270 -0.0446  0.0446
10496W        W28700   2.905   9.964   0.267 -0.0826 -0.0045 -0.1203
10497W        W28701  15.146   7.074   2.331 -0.2862  0.2378 -0.1116
10498W        W28702   1.981   9.222  12.876 -0.1073 -0.3093 -0.0110
10499W        W28703   7.182   4.461  14.975  0.1723 -0.1295  0.0135
10500W        W28704  12.538   5.239  10.637 -0.1897  0.0725  0.1413
10501W        W28705   1.512   5.841   1.264  0.1601  0.0052 -0.1619
10502W        W28706   9.520   0.219  12.539 -0.3646  0.2050  0.1555
10503W        W28707  15.271   4.064  14.674  0.1133 -0.0977  0.2481
10504W        W28708   5.596   7.344   0.835 -0.1162  0.0974  0.2463
10505W        W28709  12.811  11.260  11.307  0.3548 -0.2214 -0.1998
10506W        W28710   5.462  17.979  12.334 -0.0718  0.1024  0.0828
10507W        W28711  14.355   2.662  12.949 -0.1402 -0.0383 -0.1849
10508W        W28712   7.161  17.323  11.946 -0.2269  0.3763  0.1280
10509W        W28713   4.795   7.316  13.768  0.2998  0.4843 -0.3663
10510W        W28714  12.701  13.690   4.716 -0.0390 -0.1727  0.1968
10511W        W28715  13.173  15.416   3.560 -0.1154  0.0106 -0.1712
10512W        W28716   1.462   1.292   2.891  0.0860  0.1056  0.0889
10513W        W28717   1.783  17.682   4.014  0.1477 -0.1147 -0.1372
10514W        W28718   2.984   1.059  15.457  0.4838  0.1575  0.3166
10515W        W28719  16.416   4.486  12.538 -0.1222  0.0230 -0.0274
10516W        W28720   7.679   8.637   1.061 -0.0887  0.3309 -0.1642
10517W        W28721  15.754  12.401  14.108  0.2596 -0.0299  0.0655
10518W        W28722  13.331  12.260  12.247  0.0455  0.0269  0.0135
10519W        W28723  10.854  14.471  12.945  0.1119 -0.1084  0.2362
10520W        W28724   4.159   0.020   0.645  0.0497  0.1347  0.0759
10521W        W28725   9.504   8.877  12.617  0.2561 -0.1288  0.0700
10522W        W28726  11.015  16.492   3.915 -0.1000 -0.1029 -0.2523
10523W        W28727   8.385   1.740  14.767  0.1643 -0.0792 -0.0422
10524W        W28728   2.952  10.235   3.038  0.0452 -0.0326 -0.1644
10525W        W28729   3.420  13.296  13.179 -0.1785  0.1234  0.1884
10526W        W28730   7.965  14.828   4.097  0.0092 -0.0051 -0.1166
10527W        W28731   8.440  13.370  15.423 -0.0011 -0.2090  0.0673
10528W        W28732   4.654   5.613   3.154 -0.2319  0.1724  0.1108
10529W        W28733   8.254   1.717   2.449 -0.1735 -0.0253 -0.1470
10530W        W28734  15.637   6.573  13.084  0.0289 -0.2336 -0.2168
10531W        W28735   6.637  17.988  15.245 -0.1416 -0.3004  0.3345
10532W        W28736  10.625   0.660  15.314 -0.0091 -0.3830  0.1835
10533W        W28737   6.517  13.096  11.041  0.0538  0.0081 -0.1174
10534W        W28738  12.951   8.071  10.436 -0.0799 -0.0938 -0.1288
10535W        W28739   4.602   3.520   0.332 -0.2286  0.0601  0.0475
10536W        W28740   5.161   3.145  14.066  0.0207 -0.2564  0.1657
10537W        W28741  11.720  14.017  15.089 -0.0485  0.1212  0.1217
10538W        W28742   6.954   9.638   0.834  0.1360  0.1415  0.1444
10539W        W28743   5.790   4.550   1.325 -0.0661  0.0381 -0.0063
10540W        W28744  12.646   1.226   0.624  0.0297  0.1458  0.4288
10541W        W28745   9.497   0.440  12.082  0.1134 -0.1005  0.2761
10542W        W28746   3.752  10.895   2.665  0.1077 -0.2595  0.0758
10543W        W28747   1.469   5.050  12.932  0.3457 -0.0287  0.1535
10544W        W28748  18.391  10.741  15.380  0.0672 -0.2507 -0.4072
10545W        W28749   3.919   3.253   3.257 -0.1437 -0.3176  0.1646
10546W        W28750   7.575  18.084   1.963 -0.0055 -0.0950  0.0023
10547W        W28751  17.050   8.607   2.187  0.0036  0.1037 -0.1864
10548W        W28752   3.252   8.325   5.162 -0.0791 -0.0056  0.3330
10549W        W28753  11.202   9.851   3.385  0.1639  0.0185  0.0823
10550W        W28754  14.381  16.287  11.358 -0.0837  0.3301  0.0922
10551W        W28755   2.141  10.356   2.806 -0.1755  0.1368  0.0275
10552W        W28756   7.072   0.960  14.582  0.3045  0.0309  0.1061
10553W        W28757  14.785  13.420  12.115 -0.0248 -0.1072 -0.0200
10554W        W28758   5.283  12.312  11.457  0.1056  0.0969 -0.0455
10555W        W28759  10.191  17.605  11.316 -0.0518 -0.0994 -0.2270
10556W        W28760   5.552   0.762   1.807 -0.1459 -0.2886 -0.0647
10557W        W28761  12.041   0.306  15.019  0.0734  0.1981  0.1563
10558W        W28762  16.895  12.491   4.251 -0.1432  0.0821  0.0578
10559W        W28763   2.961  10.024  13.837  0.0901  0.0015  0.0665
10560W        W28764   0.544   8.370  13.862  0.1026 -0.0104  0.0925
10561W        W28765   4.865  16.204   4.202 -0.0221 -0.1882 -0.2040
10562W        W28766  16.933   7.996  14.616 -0.3292  0.1695 -0.0212
10563W        W28767  16.676   4.953   2.081 -0.2600 -0.0033  0.0266
10564W        W28768   7.285  16.840   4.229 -0.0331 -0.2370 -0.2203
10565W        W28769   2.282   0.087  12.889 -0.2450  0.3697  0.3024
10566W        W28770   2.098   8.888   5.000 -0.0421  0.0406 -0.3814
10567W        W28771   1.167  15.850   0.726  0.0780  0.2871  0.0703
10568W        W28772  10.383  18.529   2.403 -0.1033  0.1879  0.0729
10569W        W28773   9.882   2.120  11.860 -0.2108 -0.3321  0.0605
10570W        W28774  10.113  14.844  13.469  0.1093  0.1632 -0.1056
10571W        W28775   7.399  10.498  13.137 -0.1603  0.1006  0.2775
10572W        W28776  16.901   5.974   3.080 -0.0813  0.1585 -0.0984
10573W        W28777  17.961   3.909  11.233 -0.1653  0.0249 -0.2586
10574W        W28778  13.227   7.959  11.772 -0.0355 -0.1153  0.1825
10575W        W28779   4.432   3.836   1.638 -0.0439 -0.0320 -0.0775
10576W        W28780   4.192   5.836  14.501  0.2684 -0.1630 -0.0198
10577W        W28781  10.263   6.463   0.255 -0.2035 -0.1211 -0.0562
10578W        W28782   3.298   9.619   1.810  0.1542  0.1486  0.4364
10579W        W28783  17.742  10.016   3.036 -0.2577  0.0662  0.0846
10580W        W28784   5.932  14.604  12.308 -0.2042 -0.3511  0.0560
10581W        W28785  18.107   7.236   1.836 -0.1701 -0.0385  0.0518
10582W        W28786   1.298  14.917  12.410 -0.0874  0.3520  0.1887
10583W        W28787  11.219  11.583  14.417 -0.4249  0.0093 -0.0310
10584W        W28788  11.991   2.888  11.007  0.1575  0.1865 -0.0341
10585W        W28789   5.764   1.376  14.680 -0.2105  0.0840  0.1388
10586W        W28790  17.749   0.248  13.639 -0.1991  0.3220 -0.0965
10587W        W28791  18.591  16.991  11.657  0.1863  0.2273  0.0556
10588W        W28792  15.210  12.040   2.034  0.1440  0.4280  0.2640
10589W        W28793   3.685   8.535   2.781  0.1509  0.1920 -0.2037
10590W        W28794  10.337   9.283   1.239  0.1249  0.0154 -0.2241
10591W        W28795  16.119  13.387   3.105  0.3951 -0.1484 -0.0102
10592W        W28796  12.807   5.628  14.979  0.0663 -0.1809 -0.1366
10593W        W28797  18.123   5.520  11.486 -0.0107  0.1414  0.0821
10594W        W28798   2.565   7.372   0.351  0.1242 -0.0577  0.1505
10595W        W28799  11.119   3.148   4.241  0.1214 -0.3565 -0.1961
10596W        W28800   9.580  16.296   3.418 -0.0973  0.0593  0.0765
10597W        W28801  17.330   6.306  12.128 -0.1217  0.3194 -0.0827
10598W        W28802   4.575   5.506   0.618 -0.2212  0.1909  0.0333
10599W        W28803   7.769   7.376   3.541 -0.0101 -0.2488 -0.0021
10600W        W28804  15.122  16.897  15.464  0.1123  0.1146 -0.1367
10601W        W28805   1.390   6.431  13.005 -0.0311  0.0314  0.1238
10602W        W28806   6.911  15.475  13.987  0.0950  0.1092 -0.2542
10603W        W28807  12.789   1.671  12.628  0.2497 -0.1798 -0.2549
10604W        W28808   2.382   7.438   4.799 -0.1956 -0.1584 -0.3007
10605W        W28809   3.069  13.768  10.871 -0.1382 -0.1401  0.1122
10606W        W28810  14.017  17.949   1.079 -0.2481 -0.0961  0.1402
10607W        W28811   4.997   2.395   1.784 -0.5269  0.0244 -0.0474
10608W        W28812   5.110  18.409  11.042  0.1742 -0.1679  0.2214
10609W        W28813  18.553   5.235   4.769  0.0728  0.0256  0.0390
10610W        W28814  13.075   8.247   1.649  0.1656  0.2396  0.4190
10611W        W28815   1.029  13.448  15.037 -0.1761 -0.0941  0.2959
10612W        W28816   0.878  15.433   0.467 -0.1679 -0.3118  0.0696
10613W        W28817   9.220   7.803  14.264  0.2514  0.1510  0.0640
10614W        W28818  16.462   2.432   0.168  0.1731  0.0319  0.2314
10615W        W28819  18.686   3.941   3.376  0.2400 -0.2419  0.1841
10616W        W28820  11.484  13.699  14.725 -0.0471 -0.2071 -0.1782
10617W        W28821   1.026  18.163   4.057  0.0994  0.3062 -0.2172
10618W        W28822  12.316   2.033   0.511 -0.1629 -0.1264  0.0913
10619W        W28823   2.125  12.736   2.321 -0.5022 -0.1236 -0.1581
10620W        W28824  15.202  11.814   3.883 -0.0852 -0.0462 -0.0885
10621W        W28825  12.229   7.903  14.570 -0.1079  0.3304  0.0188
10622W        W28826  14.609  16.312   0.902 -0.0777 -0.2129 -0.2481
10623W        W28827  13.493   8.105  13.553  0.1275 -0.4750  0.0064
10624W        W28828   5.453   6.296  14.511  0.0695  0.1252  0.4646
10625W        W28829   3.626  14.706   3.659  0.0715  0.2594 -0.1926
10626W        W28830  17.211  11.730  13.073  0.3041  0.0007  0.2720
10627W        W28831  13.424   6.966   0.777  0.1520  0.3347  0.3304
10628W        W28832   9.500   8.314   2.568  0.0379 -0.2535 -0.0751
10629W        W28833  16.974   4.380  14.166  0.1350  0.0990 -0.3180
10630W        W28834  13.319  16.667   2.044  0.4213  0.0513 -0.0019
10631W        W28835   2.819   4.365   3.875  0.2638  0.0807 -0.1668
10632W        W28836   4.121  10.279  10.621  0.0448  0.1846 -0.2744
10633W        W28837   6.364  10.965   1.781  0.0539  0.1649 -0.2423
10634W        W28838  10.558   8.924   3.125 -0.1901 -0.2578 -0.0516
10635W        W28839   5.116  14.222  12.175 -0.2562 -0.1177 -0.3135
10636W        W28840  15.066   5.964   0.456  0.0361  0.1425  0.2468
10637W        W28841  10.755   3.360  14.108  0.0210  0.2686  0.2028
10638W        W28842  13.158   4.892   0.554  0.0180  0.1250  0.0625
10639W        W28843  14.135  14.293   2.885  0.0390 -0.1796  0.2608
10640W        W28844  10.623  12.266  10.572  0.1277 -0.0958  0.1549
10641W        W28845  10.680   8.814   2.449  0.0981  0.1391 -0.0908
10642W        W28846   1.650  11.272  14.613 -0.0060  0.2772  0.1083
10643W        W28847   8.468  17.802  11.295 -0.1621  0.1537  0.2435
10644W        W28848   3.396  10.019  13.510 -0.1639 -0.1599 -0.0498
10645W        W28849  13.430   0.789  14.327 -0.0949  0.3354  0.0872
10646W        W28850   9.898  12.525   0.166  0.0899 -0.0130 -0.3869
10647W        W28851  11.717   7.405   2.806 -0.0372 -0.0021 -0.1146
10648W        W28852   1.406   3.779  13.562  0.2173 -0.0740  0.2898
10649W        W28853   8.984   8.078   1.788  0.1816 -0.0309 -0.1236
10650W        W28854   7.402  18.566  11.713  0.0459 -0.1900 -0.1589
10651W        W28855  11.456  12.469   3.939 -0.2272 -0.0396 -0.1307
10652W        W28856   5.636  14.679  11.486 -0.1633 -0.0942 -0.2144
10653W        W28857   7.237  11.127  12.254  0.0989  0.1432 -0.2298
10654W        W28858   2.897  14.662  12.245 -0.1995 -0.3159 -0.0261
10655W        W28859   3.231  12.712   0.601 -0.3204 -0.1067 -0.1545
10656W        W28860   4.033  16.427   5.615 -0.0351  0.3662 -0.0933
10657W        W28861   5.801  11.226  12.443  0.0866  0.0403  0.1749
10658W        W28862   0.695  16.541  11.203  0.0601 -0.1652  0.2633
10659W        W28863  13.337  18.611  14.841  0.3050  0.1691 -0.0039
10660W        W28864   0.226  10.574  14.497 -0.1519 -0.5001  0.1315
10661W        W28865   4.746  15.931   0.269 -0.0417  0.0066  0.0842
10662W        W28866  13.269  11.408   5.124 -0.0087  0.0577  0.1530
10663W        W28867   0.279  11.660   1.861  0.0520 -0.2398  0.1402
10664W        W28868  15.693  14.336   3.628 -0.0810  0.1975 -0.1061
10665W        W28869  17.988  12.941  12.036  0.0012 -0.0379 -0.3673
10666W        W28870   4.221  13.028  11.246 -0.1823 -0.0212 -0.2071
10667W        W28871  18.567  15.099   5.073 -0.2141 -0.1430  0.1349
10668W        W28872   9.737  16.623   0.963  0.0037 -0.0292  0.4622
10669W        W28873  18.001   7.165   3.820 -0.1068 -0.0272 -0.1129
10670W        W28874  11.362   1.227  14.779 -0.0877 -0.2355  0.1843
10671W        W28875  17.777   1.755   2.760 -0.0885  0.1438  0.0300
10672W        W28876   1.470  18.381   5.183  0.0875 -0.0588  0.0497
10673W        W28877   1.472   8.520   2.403  0.0899  0.2049 -0.4923
10674W        W28878   9.965   4.546  12.814 -0.2011 -0.1527  0.0146
10675W        W28879  18.560   6.687   2.838  0.1326  0.2389  0.0867
10676W        W28880  13.570   1.619   0.610 -0.0505  0.1206  0.1048
10677W        W28881  13.632   0.997  14.757 -0.3132  0.1800 -0.1505
10678W        W28882   0.470   2.043  12.518 -0.2251 -0.1717 -0.2241
10679W        W28883  18.000   9.320  12.691 -0.2172  0.1687  0.2224
10680W        W28884   8.118  10.304   0.221  0.0890  0.1290  0.1022
10681W        W28885   8.682   1.427   9.679  0.0494  0.3422  0.0175
10682W        W28886  12.991   4.344   3.341 -0.0404  0.5448  0.0701
10683W        W28887   6.498   6.344   1.330 -0.4554  0.1918 -0.2714
10684W        W28888   7.819  11.902  12.600  0.0429 -0.1817  0.0848
10685W        W28889   9.129  13.913  14.034  0.1171 -0.1057 -0.0885
10686W        W28890   0.331   2.360  13.839  0.0423  0.0857  0.1552
10687W        W28891   4.641  18.188  11.054  0.1644 -0.1317  0.0084
10688W        W28892  15.732  16.798  12.739  0.3738  0.2722 -0.2726
10689W        W28893   4.885  17.074   4.063 -0.0609 -0.0192 -0.1542
10690W        W28894  10.727  17.768  13.215 -0.1837  0.4507 -0.2376
10691W        W28895   8.567   5.382   4.092 -0.3450  0.1254  0.0111
10692W        W28896   1.306  10.629  14.757 -0.0394  0.3273  0.1807
10693W        W28897   3.280  11.957  12.347 -0.1987  0.1191  0.3290
10694W        W28898  18.394  16.772   3.992  0.1840 -0.0363 -0.0224
10695W        W28899  10.974   8.291   5.679  0.0063 -0.0262 -0.0077
10696W        W28900  12.757  14.665  12.903 -0.0077 -0.0589  0.0105
10697W        W28901   0.349   9.211   2.360  0.1511  0.1794  0.2431
10698W        W28902  13.242  16.157   2.892 -0.3226  0.0777  0.0336
10699W        W28903   5.802   2.037  12.586  0.6060  0.0882  0.1794
10700W        W28904  16.616   1.196  10.665 -0.0693 -0.0849 -0.1455
10701W        W28905   5.571   7.018  13.974  0.2862  0.3998 -0.2959
10702W        W28906  14.032  11.255  13.395  0.0118  0.1228  0.2180
10703W        W28907   4.174  14.871  12.703 -0.1567 -0.1809 -0.0630
10704W        W28908   1.190   9.056  12.091  0.0307 -0.0847  0.3371
10705W        W28909   2.558   6.251  13.713  0.1120  0.0728  0.0603
10706W        W28910   7.524  16.313   1.561  0.3807  0.0482 -0.0166
10707W        W28911  13.659   3.376  13.386  0.2358 -0.2098 -0.6083
10708W        W28912  18.300  13.982   1.301 -0.3853  0.1160  0.1943
10709W        W28913  17.420   3.813   0.449 -0.1316 -0.1164  0.0091
10710W        W28914   5.013  16.438  14.482 -0.3020 -0.2776  0.2430
10711W        W28915  14.591   1.858   3.639 -0.0523 -0.2283  0.1513
10712W        W28916  14.201   2.590   3.278 -0.1636  0.0479  0.1498
10713W        W28917   7.162  10.507   1.512 -0.1267 -0.0077 -0.0773
10714W        W28918  10.536   2.696   0.277  0.2919 -0.1036 -0.0733
10715W        W28919  16.640   8.586  15.358 -0.2111  0.0558 -0.0971
10716W        W28920   8.396  14.228   3.426 -0.2249  0.2252 -0.0705
10717W        W28921   5.526  14.482  12.029 -0.1673 -0.0883 -0.1200
10718W        W28922  18.422   6.374  14.534  0.0129 -0.0552 -0.0037
10719W        W28923  12.775  15.437   0.605  0.0314 -0.0145  0.0414
10720W        W28924  13.649   9.947   2.127  0.0348  0.1541  0.2105
10721W        W28925   9.797   4.842  11.606 -0.2526  0.1017  0.3502
10722W        W28926  11.283  13.265   4.360 -0.0537 -0.1101  0.3324
10723W        W28927  17.685  12.115  15.406 -0.0615  0.2344 -0.0399
10724W        W28928   9.264   1.564   1.511  0.2674  0.1685  0.0577
10725W        W28929   7.591  17.655   3.363  0.0257  0.2305 -0.0299
10726W        W28930   8.433  11.506   1.201  0.3050 -0.0398  0.3208
10727W        W28931   0.068   5.295   0.824 -0.1307  0.2143 -0.3492
10728W        W28932  14.140   3.447  13.416 -0.0735 -0.1722  0.0409
10729W        W28933   9.693  15.535   1.854 -0.3170 -0.0570 -0.2684
10730W        W28934  12.799   4.319   1.445 -0.0824 -0.0069  0.0842
10731W        W28935  18.169   3.012   3.881  0.0049  0.0709 -0.0302
10732W        W28936  17.427   0.859   3.465  0.1247 -0.2011 -0.1458
10733W        W28937   5.205   3.350   9.760  0.1948  0.0791 -0.0197
10734W        W28938  12.905   0.841  11.733 -0.1383  0.0391 -0.1236
10735W        W28939  16.871  18.468   3.127 -0.1709  0.2833  0.5094
10736W        W28940   5.790   7.035  14.769  0.1385  0.1314  0.2391
10737W        W28941  13.077   3.689   2.546  0.1589  0.1307  0.1534
10738W        W28942   6.018  12.228  12.382 -0.2681  0.1127 -0.0930
10739W        W28943  11.859  12.866  15.227  0.3780 -0.0396  0.0738
10740W        W28944   6.600   3.718   4.401  0.1655 -0.2279 -0.4110
10741W        W28945   9.527  10.206   5.913  0.1457 -0.1353  0.0013
10742W        W28946  13.683  17.593   1.219  0.0640 -0.2763  0.3409
10743W        W28947  13.292  13.927   1.563  0.2196 -0.0214  0.2542
10744W        W28948   7.885   2.197   1.310  0.0354 -0.0023 -0.0362
10745W        W28949   5.767   7.509  12.599  0.2036 -0.1564  0.0446
10746W        W28950  14.066  17.768   0.303 -0.3499  0.1771  0.3657
10747W        W28951  17.019   7.990   2.345 -0.0118 -0.0598  0.1370
10748W        W28952  12.543   0.574   1.182  0.2090 -0.0274  0.0137
10749W        W28953  16.363   6.238  11.014 -0.2241 -0.0152  0.1247
10750W        W28954   9.441  14.254  12.810 -0.1351  0.2413  0.2305
10751W        W28955   3.544   7.169  12.376  0.0253 -0.2024  0.0250
10752W        W28956   7.214   6.321  14.248 -0.0173  0.2092 -0.0143
10753W        W28957  10.829   1.965  13.830 -0.3444  0.3918 -0.0647
10754W        W28958  16.006  17.144  12.553 -0.0673 -0.2001  0.0057
10755W        W28959  14.189   2.676   3.767  0.1893  0.1592  0.0683
10756W        W28960  15.222   3.644   3.056  0.0767  0.4022 -0.1554
10757W        W28961   0.475  15.481  13.558 -0.1026 -0.0952  0.0902
10758W        W28962  16.134   1.528   2.201  0.0117 -0.1427  0.0872
10759W        W28963  14.261  17.177   5.568 -0.0726 -0.1090 -0.2209
10760W        W28964   5.267   7.655  13.288  0.0305 -0.1061 -0.0310
10761W        W28965  18.579  15.275   0.825 -0.1750 -0.3645 -0.1031
10762W        W28966  18.204   4.362   2.821 -0.0302 -0.0486 -0.1030
10763W        W28967   2.880  16.985   1.218 -0.1138  0.0780 -0.1556
10764W        W28968  18.010  17.295   0.281  0.1001  0.1492  0.2945
10765W        W28969  15.554   9.521   3.631  0.3159 -0.0195 -0.1104
10766W        W28970   3.716   7.564  14.474 -0.3264  0.1581  0.3437
10767W        W28971   1.839   7.491   3.968 -0.2096  0.2023  0.3494
10768W        W28972  17.396   5.912   0.100 -0.2111  0.2780 -0.1246
10769W        W28973  11.184   9.906  13.820 -0.0718  0.0810  0.3839
10770W        W28974   6.936  10.745   2.642  0.2268  0.2967 -0.1828
10771W        W28975   7.178   8.132   2.287  0.1414  0.1666 -0.0911
10772W        W28976   2.236   9.570  14.965  0.0517  0.1535 -0.0356
10773W        W28977  11.552   1.874  12.515 -0.0985 -0.1428 -0.3739
10774W        W28978   9.119  13.508   1.179  0.2130  0.1969 -0.1108
10775W        W28979   8.128  16.887  11.987 -0.0809  0.2597 -0.0501
10776W        W28980   2.465  13.075   1.539 -0.1219  0.1731 -0.1227
10777W        W28981   2.517   9.761   4.611  0.0167  0.1169 -0.3425
10778W        W28982   1.809   1.875   0.080 -0.1443 -0.2574  0.0993
10779W        W28983   6.171  10.934  11.348  0.0835  0.1539  0.0658
10780W        W28984  15.897   1.907  12.867  0.1338  0.0353  0.0888
10781W        W28985   0.443  15.446   3.470 -0.2654 -0.0776  0.0538
10782W        W28986  12.517  10.746   3.525  0.1970 -0.1782  0.0058
10783W        W28987  15.908  13.400   2.665  0.3421  0.3728 -0.2706
10784W        W28988  12.415  13.807   2.188  0.2835 -0.4738 -0.3277
10785W        W28989  17.046   3.538  12.940 -0.0843 -0.0648 -0.0462
10786W        W28990   1.918   6.835   1.014  0.2358 -0.0700 -0.0057
10787W        W28991   9.011   3.292  12.677 -0.0531  0.0397  0.0089
10788W        W28992   1.806   4.075   0.713  0.2066  0.2040 -0.2196
10789W        W28993  11.164  12.624  11.279 -0.1395  0.1980 -0.2050
10790W        W28994  10.974   7.999   1.253  0.0253 -0.3355 -0.1644
10791W        W28995   7.497   4.817   0.835 -0.0038  0.1969 -0.0164
10792W        W28996  18.083  10.142   1.239 -0.6616  0.2314  0.0058
10793W        W28997   7.316  11.387  13.499  0.1155 -0.0786 -0.0745
10794W        W28998   8.457   9.996   4.187 -0.0247 -0.3786  0.3322
10795W        W28999  11.678  13.584   4.302  0.0009 -0.1644 -0.1082
10796W        W29000   5.252   9.329  13.486 -0.1871  0.1059  0.2575
10797W        W29001  17.925  17.041   4.288 -0.0958  0.0145  0.1303
10798W        W29002   9.525   3.802   0.927  0.0798 -0.1373  0.0075
10799W        W29003  10.570  15.698  13.221 -0.1093 -0.3371 -0.1199
10800W        W29004  17.502  17.786  14.570  0.0177 -0.0395  0.1077
10801W        W29005   7.289   1.237  15.180  0.1181  0.1088  0.0693
10802W        W29006  16.089   6.337  13.191  0.3562  0.2210  0.0976
10803W        W29007   2.888   1.507   3.355  0.0412  0.1597  0.0257
10804W        W29008   5.786   2.605  15.203 -0.1034 -0.2447 -0.1636
10805W        W29009   5.244   3.068   3.653 -0.0498  0.0333 -0.0046
10806W        W29010  15.686   3.607  13.855 -0.0323 -0.1483  0.0562
10807W        W29011  15.262   3.739  12.519 -0.1017 -0.3974 -0.5037
10808W        W29012  16.075   8.237  13.458  0.0965 -0.0619  0.3273
10809W        W29013   4.681   0.166  12.970  0.0760  0.2937  0.1499
10810W        W29014   5.702  15.198   1.691  0.1054  0.0947  0.2612
10811W        W29015  16.521   1.649  12.667 -0.0667 -0.3772  0.1460
10812W        W29016   6.228   6.499   2.906 -0.1219  0.4788  0.5131
10813W        W29017  15.561   5.191  12.381 -0.2533 -0.2048 -0.2223
10814W        W29018  13.330   9.542  13.786 -0.0726 -0.0116 -0.0298
10815W        W29019  17.326  13.514   2.250 -0.0317  0.1707  0.2304
10816W        W29020  10.354  14.361   2.374  0.0198  0.3277 -0.4701
10817W        W29021  16.770  13.293   4.410 -0.3208  0.1991 -0.2073
10818W        W29022   8.215  13.118   0.847 -0.0812  0.2304  0.0580
10819W        W29023   5.326   7.556   2.934  0.0392  0.1283  0.0504
10820W        W29024   2.048   2.850  11.109  0.0875  0.2875  0.0798
10821W        W29025   7.376   3.150   0.754 -0.0745  0.0328 -0.2254
10822W        W29026   9.025   9.146   1.503 -0.0983  0.0866  0.2872
10823W        W29027   7.761   6.588   0.006  0.0577 -0.3662  0.1620
10824W        W29028   0.308   0.234   0.024 -0.0364 -0.1131  0.0842
10825W        W29029  12.861   4.337   2.872  0.2603  0.0915 -0.0257
10826W        W29030  15.615   8.599  12.687  0.0175 -0.0742 -0.3102
10827W        W29031   2.887  13.121   1.962  0.1364  0.0420  0.2426
10828W        W29032   3.289  15.116   0.995  0.0701  0.1830  0.1121
10829W        W29033   7.572  10.016   4.623  0.0295 -0.2799 -0.1515
10830W        W29034   2.386  11.274  11.017 -0.0814 -0.3286  0.0363
10831W        W29035  13.778   5.164  13.808 -0.1816 -0.2706 -0.0701
10832W        W29036  15.372  16.376   2.310  0.0235 -0.0143  0.4689
10833W        W29037  17.809  17.285   1.335  0.0018  0.1526  0.4039
10834W        W29038  18.266  14.165   2.087 -0.1511 -0.1183  0.0472
10835W        W29039   6.959  12.041  11.533  0.2545 -0.0231  0.1547
10836W        W29040   0.406   7.945  15.404 -0.4542  0.0302 -0.1157
10837W        W29041   7.468   0.365  12.793 -0.1572 -0.1526 -0.0878
10838W        W29042  17.262   6.465   2.291 -0.2140 -0.3043 -0.3042
10839W        W29043   5.033   1.576  13.915  0.1839 -0.0618 -0.4282
10840W        W29044  18.488   8.162   0.356 -0.1949  0.0124 -0.0136
10841W        W29045  13.646  11.921  11.794  0.0861 -0.1306 -0.1257
10842W        W29046   8.164  13.296   1.576 -0.0402 -0.1392 -0.0317
10843W        W29047  14.344   5.648  15.320  0.0238 -0.0379  0.1630
10844W        W29048   9.705  12.734   4.316 -0.0584 -0.1063  0.1921
10845W        W29049  17.212  13.544   1.747  0.3319 -0.2973 -0.0932
10846W        W29050   8.243  12.027  14.645 -0.0690  0.1948 -0.0987
10847W        W29051  16.143   0.718   3.265 -0.0166 -0.0895 -0.0495
10848W        W29052   8.169  15.096  12.365  0.0458  0.2176 -0.0961
10849W        W29053   0.981  12.594   0.243  0.0699 -0.0673 -0.1004
10850W        W29054   4.833  12.215  12.472 -0.1039 -0.2147 -0.1283
10851W        W29055   7.173  13.902  14.413  0.0859 -0.1139 -0.2028
10852W        W29056  17.250  14.884  13.177  0.2589 -0.1392  0.0162
10853W        W29057  10.715  18.365  11.110  0.0365  0.1806  0.0600
10854W        W29058   2.956   3.178   4.204  0.0784 -0.1401  0.1751
10855W        W29059   1.747   4.504   5.197  0.0447 -0.1919 -0.1455
10856W        W29060  15.833   9.210  11.625 -0.0208 -0.0993  0.2511
10857W        W29061  10.082  16.547   4.219 -0.0316  0.0015 -0.1195
10858W        W29062  11.823   8.164   5.237 -0.0453  0.2641 -0.2624
10859W        W29063  10.550  18.049  15.024 -0.2901  0.1694 -0.2730
10860W        W29064  11.166  18.039  11.209  0.0178  0.1652  0.5283
10861W        W29065   8.766   5.181   3.091  0.3691 -0.1684  0.3072
10862W        W29066   6.905   0.911  15.052 -0.2508  0.0695 -0.1922
10863W        W29067   9.142   7.635   0.832 -0.0008  0.0067 -0.3930
10864W        W29068   2.378   6.810  13.612 -0.0098  0.4475  0.1168
10865W        W29069  11.366   0.876  12.257  0.0326  0.4051 -0.1068
10866W        W29070   9.324  15.075   2.033  0.1736  0.2107 -0.0229
10867W        W29071   4.027  11.290  10.940 -0.0794 -0.0510  0.1174
10868W        W29072  17.659   1.362   5.080 -0.0696  0.0867  0.3554
10869W        W29073  11.517  15.475   0.953 -0.0904  0.1852 -0.1489
10870W        W29074  15.800   0.927  15.213 -0.0703  0.2001  0.0056
10871W        W29075   6.138  16.650  12.832 -0.0376 -0.0175  0.0328
10872W        W29076  11.090   7.689  13.895  0.1266  0.1218 -0.2867
10873W        W29077   9.696  10.498   2.880 -0.2571 -0.2098  0.0618
10874W        W29078   8.084   5.185  15.409 -0.2752 -0.0907 -0.1074
10875W        W29079   7.683   5.915  12.670  0.0190  0.0500  0.0247
10876W        W29080  16.309  14.149  11.288  0.3393  0.1448 -0.0571
10877W        W29081  13.671   2.569  11.257 -0.0565 -0.4994  0.0661
10878W        W29082  10.631  15.014   1.838 -0.3325 -0.0153  0.3407
10879W        W29083  15.166   2.877  11.285 -0.1269 -0.1516  0.0324
10880W        W29084   7.832   6.126  14.070 -0.2731  0.3061 -0.2302
10881W        W29085  17.354   5.347  15.054 -0.0118 -0.1744 -0.0310
10882W        W29086   5.161   9.565  10.486 -0.1328  0.4020  0.0350
10883W        W29087   7.132  12.890   1.009 -0.0195 -0.0015 -0.0690
10884W        W29088   7.568   7.422   1.386 -0.0213 -0.1856 -0.0736
10885W        W29089  18.214  13.289  13.143 -0.2910 -0.1135  0.0240
10886W        W29090   7.954   2.411   2.784 -0.3048  0.0677  0.2921
10887W        W29091  18.434  18.220  13.934 -0.1400  0.1182  0.0059
10888W        W29092   7.612  10.272   0.298 -0.1088  0.1713  0.0148
10889W        W29093   1.349  13.651  13.172  0.1610  0.2266 -0.0999
10890W        W29094  16.327   7.281  13.503  0.0451  0.0471  0.2721
10891W        W29095  10.302   9.697   2.773 -0.0413 -0.0338 -0.0195
10892W        W29096   7.657  18.176  14.912 -0.0278 -0.1526 -0.0473
10893W        W29097  12.911  17.907  12.204 -0.2087  0.3755 -0.0411
10894W        W29098   4.809   6.841   0.508  0.0505  0.1448  0.0589
10895W        W29099  10.286   0.130   5.438 -0.0374  0.1422 -0.1272
10896W        W29100   5.181  11.335  14.799  0.1428  0.2252  0.0325
10897W        W29101   3.666   0.575  14.263  0.1071 -0.2755  0.0888
10898W        W29102   4.171  14.948  14.852  0.0980 -0.3760  0.2508
10899W        W29103   1.188   1.675  15.048 -0.2505 -0.1145 -0.1396
10900W        W29104  14.467   8.463   0.807  0.0326  0.4373  0.1744
10901W        W29105  12.918  17.116  13.859  0.0300 -0.0233  0.1764
10902W        W29106   4.220  12.822  15.305 -0.3133 -0.0376  0.0020
10903W        W29107   7.343  11.060  11.675  0.3399 -0.2635  0.2265
10904W        W29108   0.919  13.722  14.628  0.0700 -0.0834  0.1156
10905W        W29109  15.479  12.351  13.709  0.2454  0.0771  0.0202
10906W        W29110  15.772   8.043   2.740 -0.0930 -0.1318 -0.1476
10907W        W29111  10.713   2.460  10.700  0.4747  0.0932  0.1111
10908W        W29112   8.494  16.918  13.864  0.2267  0.1500 -0.2625
10909W        W29113  10.683   3.458  12.733 -0.4554  0.0266  0.2006
10910W        W29114   9.219   2.225  14.136 -0.0358  0.0018  0.0126
10911W        W29115  17.782  17.939  10.030 -0.0858  0.0663 -0.1697
10912W        W29116   6.806   0.126  13.961 -0.0849  0.1448 -0.1779
10913W        W29117  10.362  15.465   0.891  0.0517  0.1139 -0.0906
10914W        W29118  10.815  14.917   1.410  0.2015  0.0450 -0.2764
10915W        W29119   6.974   6.073   2.163 -0.2791 -0.0049  0.1576
10916W        W29120   9.002   0.435   1.208 -0.0475 -0.1183 -0.0194
10917W        W29121   1.043  10.902   0.322  0.1948 -0.2533 -0.1508
10918W        W29122  14.379  10.764  15.368 -0.0049  0.0483  0.1571
10919W        W29123   5.636  11.057   2.060  0.0421  0.1368  0.3459
10920W        W29124   1.513  17.080   4.802 -0.1561  0.2891 -0.2184
10921W        W29125  10.907   8.750  12.114 -0.0788  0.1366  0.1595
10922W        W29126   3.732   6.613   0.000 -0.4917  0.0406 -0.0733
10923W        W29127   0.176   6.589   4.455  0.0067  0.1486  0.0434
10924W        W29128  12.655  11.356   2.320 -0.0566  0.1293  0.1578
10925W        W29129   7.224  17.370   4.242  0.0152  0.0358 -0.2620
10926W        W29130   6.839  14.093  12.626  0.2842 -0.0633 -0.1389
10927W        W29131   2.904   6.784   4.715 -0.3704  0.2157  0.1657
10928W        W29132   1.008  11.150  15.343 -0.0306 -0.2667  0.1557
10929W        W29133   3.591   5.851   0.607 -0.0417 -0.2255  0.1029
10930W        W29134  11.092  15.027   5.411  0.1542 -0.2492  0.0218
10931W        W29135  13.478   0.196  12.080  0.0992  0.2386 -0.3931
10932W        W29136   8.501   9.815  14.668 -0.0139 -0.1227  0.0001
10933W        W29137  10.155  17.887   4.400 -0.0088 -0.1790  0.0237
10934W        W29138   7.997  18.617  12.113  0.4127  0.1632 -0.3265
10935W        W29139  13.567   5.567   0.200  0.3194  0.1396 -0.0685
10936W        W29140   6.811   4.782   3.457 -0.0535  0.0056 -0.3007
10937W        W29141   6.357   9.329   0.208  0.0272 -0.0463 -0.1943
10938W        W29142   8.165  17.590   3.427 -0.0794  0.0285 -0.0773
10939W        W29143   9.387   6.944   4.595  0.1164 -0.1735  0.1759
10940W        W29144   6.266  14.429  13.447  0.0516  0.0705  0.1520
10941W        W29145   8.769  10.998  14.955 -0.0947  0.0605 -0.0646
10942W        W29146  10.176  15.322   3.670  0.1890  0.2309  0.1504
10943W        W29147   9.087  12.406   1.983 -0.0655 -0.3510  0.3555
10944W        W29148   9.667   6.914  12.884  0.1636 -0.0420  0.2129
10945W        W29149  17.831  12.607  11.740  0.4520  0.4032  0.4795
10946W        W29150   0.458  12.322   2.440  0.0416 -0.0780 -0.0899
10947W        W29151   9.534   2.355   2.510 -0.1888  0.1473 -0.0267
10948W        W29152   3.428  16.420  12.709  0.0923 -0.0785  0.0668
10949W        W29153   0.456  13.711   3.095  0.0460  0.0399  0.1398
10950W        W29154   9.752  11.646   1.279 -0.1552 -0.1274  0.1220
10951W        W29155   3.554   1.153   2.781  0.0801 -0.1217 -0.1707
10952W        W29156   2.090  16.339  15.091 -0.3859 -0.0694 -0.2742
10953W        W29157   4.880  15.456  12.722  0.2108  0.2747 -0.1018
10954W        W29158   7.109  16.012   4.073  0.2403 -0.1192 -0.0316
10955W        W29159  15.589  10.560  13.942 -0.0269  0.0596  0.1236
10956W        W29160   3.692  12.199  11.426 -0.0963 -0.1589 -0.3505
10957W        W29161  17.975   5.768   0.324 -0.2342 -0.0484 -0.1708
10958W        W29162  13.541   1.110  12.420 -0.0682  0.0567 -0.0401
10959W        W29163  14.032   9.842   2.749 -0.2955 -0.0707 -0.1135
10960W        W29164  11.196  16.207  13.620  0.3802 -0.3096  0.2607
10961W        W29165  10.803   1.967  11.475 -0.1151 -0.1532 -0.2708
10962W        W29166   9.577  12.135   2.210  0.1346  0.0764  0.3529
10963W        W29167  12.230   6.146  13.481 -0.5295  0.2838  0.2419
10964W        W29168  17.591   5.632   2.680 -0.1456 -0.0134 -0.2794
10965W        W29169   7.494   1.821  14.765 -0.2831 -0.0053 -0.2336
10966W        W29170  15.578   5.049   0.283 -0.3303 -0.1592  0.1266
10967W        W29171  16.069   0.335   2.984  0.0439  0.1330  0.1594
10968W        W29172   4.450   5.572  14.910  0.1622  0.0206 -0.1010
10969W        W29173   6.454   4.383  15.437 -0.3966  0.2737  0.2080
10970W        W29174   6.690   6.000   3.464  0.1661 -0.2315 -0.2211
10971W        W29175   4.091   7.162   0.186  0.1323  0.1231  0.1136
10972W        W29176   8.189  15.232  14.133  0.1020  0.0526 -0.3276
10973W        W29177  12.181   6.589  13.284  0.2114 -0.1569 -0.0132
10974W        W29178  16.995  10.437  11.904  0.1757 -0.1016 -0.2914
10975W        W29179   1.380   0.966   0.883 -0.1748 -0.2516  0.1582
10976W        W29180   8.320   0.617   0.299 -0.1391  0.0498 -0.2183
10977W        W29181  16.096  11.949   3.740 -0.1722  0.0017 -0.3187
10978W        W29182  18.251   0.257   4.566  0.1418  0.0388  0.0411
10979W        W29183  14.176   3.481  15.012  0.2410 -0.0337  0.2607
10980W        W29184   0.600   4.966   5.831 -0.2148 -0.1070  0.1859
10981W        W29185   2.949  13.611  13.888  0.1241 -0.0120 -0.0669
10982W        W29186   0.840   0.243   5.538  0.0302  0.0479  0.4222
10983W        W29187  10.168  17.035   2.078  0.3274 -0.3329  0.0750
10984W        W29188   2.707  11.576  10.747  0.0624  0.0706  0.1505
10985W        W29189   8.493   5.801  14.547 -0.0798 -0.1338  0.2239
10986W        W29190  17.222   0.998   1.134  0.1263 -0.1573  0.0625
10987W        W29191   1.514   2.391  13.555 -0.0230 -0.2131  0.0889
10988W        W29192   8.762   1.301  10.578  0.0957 -0.1364 -0.2712
10989W        W29193   1.328  14.469   1.064  0.0289 -0.2766  0.0873
10990W        W29194  10.948   0.812   0.427  0.1391 -0.0187 -0.0095
10991W        W29195  14.835  14.429  12.833  0.1643  0.0239 -0.0919
10992W        W29196   3.432  13.625   0.669 -0.1736 -0.0441 -0.2094
10993W        W29197  16.735  13.541   1.617 -0.0536  0.1417  0.0986
10994W        W29198   1.097  11.446   0.318 -0.1815 -0.0389  0.0708
10995W        W29199   2.377   3.147   0.938 -0.1343 -0.2127  0.0940
10996W        W29200   5.321  17.177  13.899  0.0959 -0.0394 -0.1769
10997W        W29201  17.132  14.089   2.881 -0.1549 -0.0349  0.0681
10998W        W29202  13.356   7.822  10.240  0.2650  0.1435 -0.1943
10999W        W29203   7.993  17.561   2.989  0.4653 -0.2763 -0.0792
11000W        W29204  18.219  13.411   4.079  0.2418 -0.1110 -0.0949
11001W        W29205   6.406   7.187  13.796  0.0226  0.0151  0.4482
11002W        W29206   6.027   1.320   0.466 -0.0868  0.1084  0.3950
11003W        W29207   3.429  10.514   2.345 -0.0742  0.0445 -0.1811
11004W        W29208  14.352   3.915  13.446  0.2354 -0.1248  0.2052
11005W        W29209   0.727   1.585   1.127  0.0435  0.0128  0.0405
11006W        W29210   6.834  10.720   1.157  0.1365  0.1414 -0.0792
11007W        W29211   2.692  12.181  14.007  0.0910 -0.0339  0.1764
11008W        W29212   0.994   9.577   3.776  0.1340  0.2658 -0.0584
11009W        W29213  14.323  16.036   0.628  0.0786 -0.3946 -0.3066
11010W        W29214  18.194  16.943   1.066 -0.1915 -0.0440 -0.0924
11011W        W29215  16.123   6.982  15.035 -0.1859  0.1133 -0.4594
11012W        W29216   0.165   8.012   4.707  0.0022  0.3216  0.3180
11013W        W29217  18.281   7.500   3.501 -0.0851 -0.2628 -0.0465
11014W        W29218  12.994  15.572   2.285  0.5241  0.4048 -0.0714
11015W        W29219   8.594   3.716  13.695 -0.2446  0.2323 -0.0884
11016W        W29220  16.323  14.799  11.900  0.2659  0.1995  0.2535
11017W        W29221  18.256  16.138  11.885  0.0754 -0.2197 -0.1902
11018W        W29222   5.186   9.643   3.803 -0.1670  0.0127 -0.0918
11019W        W29223  14.256   0.282   1.025  0.3970  0.0969 -0.0880
11020W        W29224   6.004   7.569   1.010 -0.1377 -0.0748 -0.0573
11021W        W29225  13.210   1.944   4.399 -0.0788 -0.0187 -0.0895
11022W        W29226   2.058  12.951   3.320 -0.0013 -0.3366  0.4703
11023W        W29227  11.717  17.082  12.486 -0.1511 -0.0906  0.1064
11024W        W29228   8.468  12.931   1.300  0.3036 -0.0703 -0.2800
11025W        W29229   5.997  13.452   1.399  0.0674  0.0373 -0.0944
11026W        W29230  15.987  13.411  14.057 -0.1484  0.0815 -0.0707
11027W        W29231  18.181   9.786   1.608 -0.1314 -0.2461 -0.0253
11028W        W29232   9.726  13.564   1.894  0.1412  0.0843  0.0969
11029W        W29233   1.840   2.907  14.310  0.3223 -0.1535 -0.2044
11030W        W29234  17.599  16.511   4.109 -0.4443  0.3210 -0.5543
11031W        W29235   9.371  14.586   2.084  0.2580 -0.0965  0.1765
11032W        W29236  15.476   4.453   4.041 -0.1627 -0.1331 -0.0588
11033W        W29237   3.492   7.409   3.725 -0.0211 -0.0507 -0.1503
11034W        W29238  12.828  10.966   0.675 -0.0869 -0.0905  0.0062
11035W        W29239  12.416  12.826   1.405 -0.0370 -0.1111  0.0715
11036W        W29240  14.213  12.333   1.019 -0.0414  0.1430  0.0005
11037W        W29241  14.603   6.638  11.218  0.6081  0.3232 -0.2187
11038W        W29242  16.124   5.646  11.662 -0.1345  0.0444 -0.0494
11039W        W29243  13.438   6.805   2.885  0.0606  0.0997 -0.0453
11040W        W29244  15.901   5.581  13.186  0.3360  0.0286 -0.2904
11041W        W29245  12.679   6.405  13.272 -0.1016 -0.2496  0.2801
11042W        W29246   9.358  18.078  11.466 -0.4641  0.0172 -0.4777
11043W        W29247  18.334   0.002  13.177  0.1795  0.0778 -0.2187
11044W        W29248  14.539  13.511  13.526 -0.1380  0.1305  0.1089
11045W        W29249   1.691  16.930  12.985 -0.0981 -0.0484  0.1221
11046W        W29250   0.008   9.836   3.073 -0.1956 -0.0064  0.6219
11047W        W29251   7.286  13.449   0.199 -0.2193  0.1059  0.0042
11048W        W29252  17.160  13.707  11.119 -0.3524  0.1600  0.0121
11049W        W29253   7.875   4.044   2.252  0.0608  0.0518 -0.1388
11050W        W29254   6.817   1.399  14.238  0.1110  0.0551  0.0461
11051W        W29255  13.004   8.110  12.213  0.1317 -0.0310  0.1696
11052W        W29256  12.252   8.268   1.884  0.0123  0.0600 -0.1446
11053W        W29257  17.394  10.759  11.808  0.1751 -0.0658 -0.0864
11054W        W29258   2.461  14.343   3.226 -0.1524  0.2585  0.0165
11055W        W29259   7.024   1.696  13.317 -0.0954 -0.2070 -0.4253
11056W        W29260   8.828   8.504  14.459  0.1415 -0.0300  0.0998
11057W        W29261  10.786  17.422   4.660  0.3388 -0.1359  0.1178
11058W        W29262   4.901  12.564  11.883 -0.4283 -0.3649  0.0493
11059W        W29263   5.181   6.070  13.149 -0.0650 -0.1587  0.1163
11060W        W29264  13.984   0.546  12.992  0.0121 -0.0735 -0.1019
11061W        W29265   7.210   0.774  15.402  0.1301  0.0163  0.2766
11062W        W29266   3.089  10.773  10.418 -0.2539 -0.2010  0.0961
11063W        W29267   4.991  17.253  15.396 -0.2842 -0.2837 -0.0967
11064W        W29268   5.011  12.667   4.246  0.0270 -0.2598  0.1939
11065W        W29269   7.256  17.741   1.819  0.0561 -0.1510 -0.0076
11066W        W29270  16.610  13.167   2.877 -0.1178  0.1050  0.1235
11067W        W29271  15.222  13.817  12.472 -0.0570  0.2767  0.3208
11068W        W29272  10.082   4.172   4.045  0.2853 -0.2337 -0.1088
11069W        W29273  11.699  11.492   3.469 -0.0093  0.1094 -0.2410
11070W        W29274   3.176  16.172  11.672  0.1576 -0.0704  0.0549
11071W        W29275   0.738   4.086   1.820  0.1419  0.1015  0.0831
11072W        W29276  13.790   0.194   0.887  0.3464  0.2451 -0.1162
11073W        W29277   2.576  16.057  13.091 -0.0569 -0.0153  0.0240
11074W        W29278   0.186  17.282  13.634 -0.0436  0.0473  0.0329
11075W        W29279   6.531   2.228   0.138  0.3479  0.0741 -0.2739
11076W        W29280   0.981   8.174   5.267  0.0001 -0.0645  0.1351
11077W        W29281   6.467   2.835   0.783  0.0235  0.1861 -0.2734
11078W        W29282   5.367  14.067  13.277  0.3573  0.0718  0.2592
11079W        W29283  11.614  13.364   4.758 -0.0918  0.0540  0.1740
11080W        W29284   1.784   6.112  13.259  0.2480 -0.0005 -0.0671
11081W        W29285   7.969   9.021  12.906  0.0212 -0.0656 -0.1452
11082W        W29286  18.135  17.763   0.060 -0.1427 -0.3128  0.2444
11083W        W29287   5.642   7.451  14.958  0.1943 -0.0141 -0.0168
11084W        W29288   2.783   3.184  12.450 -0.1623 -0.0717 -0.0684
11085W        W29289  16.814   4.948  14.051  0.2321  0.2477 -0.2818
11086W        W29290  17.965  14.645  13.305  0.0458 -0.2107 -0.2732
11087W        W29291  15.515  10.835   2.013 -0.2636  0.0985  0.3414
11088W        W29292  11.185  15.958  11.768  0.1579  0.1843 -0.1709
11089W        W29293  17.672  14.025  13.900 -0.2047 -0.0630 -0.1324
11090W        W29294   9.852   9.290  15.058 -0.3713 -0.0384 -0.1500
11091W        W29295  15.711   0.054  15.409 -0.2045  0.3885 -0.0233
11092W        W29296  10.660  17.842   4.369 -0.2302 -0.2311  0.1374
11093W        W29297   7.359  12.347   1.614 -0.1201 -0.0327  0.0457
11094W        W29298  10.196   3.303   3.981  0.2865 -0.0460 -0.0419
11095W        W29299   7.763   5.265  11.945  0.3206  0.1802  0.1683
11096W        W29300  16.171   9.319   2.892 -0.1857  0.0598  0.3309
11097W        W29301   6.655   8.643   3.174 -0.2110 -0.3128  0.1267
11098W        W29302   3.818   4.620   1.159 -0.0506  0.3067  0.0443
11099W        W29303  10.299  12.373  13.518 -0.0549 -0.0919 -0.0253
11100W        W29304   7.288   8.797   4.914  0.2183 -0.1306 -0.1130
11101W        W29305  11.685  13.173  14.769  0.0972 -0.3578 -0.1624
11102W        W29306  18.603   0.143  11.021  0.1064 -0.1508 -0.5482
11103W        W29307   3.611  18.383  11.945 -0.4302  0.0807 -0.0968
11104W        W29308  11.788   1.215   0.181 -0.0057  0.0240 -0.1938
11105W        W29309   9.708   3.371   0.673  0.0403 -0.0926 -0.3450
11106W        W29310   1.569  16.386   0.097 -0.4236 -0.1424 -0.1330
11107W        W29311   9.359  11.959   1.112 -0.0217  0.1609  0.2912
11108W        W29312  11.735  17.627  13.746 -0.0855 -0.1495  0.0571
11109W        W29313   0.412  10.135  14.402  0.2235 -0.2974  0.2994
11110W        W29314   0.249  13.856   3.981  0.2005 -0.2287  0.2527
11111W        W29315  15.606   6.698   4.267 -0.0653 -0.0008 -0.2938
11112W        W29316  11.171   4.032   1.688 -0.0807 -0.3723  0.1297
11113W        W29317  17.982   1.619  12.671 -0.1224 -0.0509 -0.3045
11114W        W29318  10.845   0.868  11.859 -0.2416 -0.0969 -0.2226
11115W        W29319  16.045   9.222   4.839 -0.0563 -0.1348 -0.5266
11116W        W29320  13.344  15.727   2.000  0.0819  0.2845  0.2003
11117W        W29321   0.846  13.066  13.905  0.2926  0.2481  0.0584
11118W        W29322  17.622  10.748  14.158  0.0819 -0.3510 -0.1951
11119W        W29323  14.106   6.540  11.196 -0.1463  0.4048 -0.2499
11120W        W29324   5.078   7.053  14.121 -0.0972  0.2305 -0.0625
11121W        W29325   8.547   0.937  14.948  0.0026  0.0699 -0.2178
11122W        W29326   3.875   0.945  12.052  0.2234  0.1987  0.0109
11123W        W29327  17.262   8.295  14.307 -0.3818 -0.2440 -0.2851
11124W        W29328   2.722   8.158  12.415  0.1094  0.2807  0.0197
11125W        W29329   5.062   6.600  15.238 -0.3014 -0.2429 -0.2664
11126W        W29330  18.343   6.728   0.441  0.2162 -0.3489  0.0090
11127W        W29331  10.450  13.040  13.296 -0.2656 -0.1942  0.1026
11128W        W29332   6.793   2.221   4.570  0.1482 -0.3610  0.0028
11129W        W29333  17.178   6.186  10.498  0.0642  0.3773  0.1254
11130W        W29334  12.524  13.282   1.621 -0.4101 -0.1937  0.3318
11131W        W29335   8.411  10.086  15.182  0.1869  0.2075  0.1349
11132W        W29336  14.970  17.893  14.185 -0.0630  0.2199 -0.0027
11133W        W29337  13.598  16.913   3.461  0.0009 -0.3637  0.0127
11134W        W29338  18.471  10.873   3.619 -0.1285  0.1036 -0.0283
11135W        W29339   9.549  13.520  13.470  0.3566  0.1872 -0.1415
11136W        W29340   5.759   3.089  12.907 -0.2003 -0.0385 -0.1553
11137W        W29341  12.447   1.581   0.361  0.2103 -0.1067 -0.3068
11138W        W29342   1.974  12.772   4.288  0.0946  0.0633  0.0413
11139W        W29343  15.175  12.829   0.651  0.2051  0.3584 -0.1859
11140W        W29344  14.227   9.099   0.722  0.0396 -0.2486 -0.1028
11141W        W29345  13.132   4.040  11.800 -0.0558 -0.0057 -0.2085
11142W        W29346   7.677  10.995   5.088 -0.0407 -0.0980 -0.1198
11143W        W29347   5.839   5.453   4.726  0.1427 -0.1306 -0.0188
11144W        W29348   3.109   9.195  14.516  0.0601 -0.0550 -0.1550
11145W        W29349   9.715  17.629  14.905 -0.0169  0.0442  0.1162
11146W        W29350  11.994   4.549   4.235  0.1442  0.2695 -0.1522
11147W        W29351   4.950   2.247  10.538 -0.0131 -0.0858  0.6230
11148W        W29352  10.815   5.049  10.810  0.1470 -0.4122 -0.2651
11149W        W29353  11.921  11.599   3.934  0.2019  0.2127 -0.0333
11150W        W29354   8.464   3.474  13.214 -0.0283 -0.4054  0.2416
11151W        W29355  16.795  10.849   2.365 -0.2208  0.2097  0.3206
11152W        W29356  15.425   3.127  10.675  0.0986  0.0997 -0.1395
11153W        W29357  18.499   5.595   4.414 -0.0097  0.1953  0.1670
11154W        W29358   3.520  17.866  13.813  0.3387 -0.0574 -0.1778
11155W        W29359  13.541   3.091  11.366  0.0634  0.1006 -0.3478
11156W        W29360  15.504   0.120   4.242  0.0225  0.0194  0.1610
11157W        W29361  10.565   9.953  12.955  0.1086 -0.2003 -0.1308
11158W        W29362   3.088   0.380  13.571  0.0211  0.1969  0.3085
11159W        W29363   9.132   1.081  14.357  0.1223  0.0971 -0.1054
11160W        W29364   9.225   6.730   1.792  0.0895  0.0179  0.1667
11161W        W29365   6.991  14.554   1.713 -0.4753  0.6294 -0.0127
11162W        W29366   0.571  11.274   2.577  0.2348  0.2406  0.3067
11163W        W29367   7.426  13.405  12.193  0.1475 -0.2908  0.0022
11164W        W29368  14.657  11.864  13.791  0.0500 -0.1942 -0.2209
11165W        W29369   1.599  10.544  15.194 -0.1171 -0.2322  0.4402
11166W        W29370   8.773  15.328  11.617 -0.1422 -0.2175 -0.1535
11167W        W29371   9.690   7.147   2.334 -0.1229 -0.1737 -0.1451
11168W        W29372   9.567   3.949  13.752  0.2109 -0.0883  0.1210
11169W        W29373  13.453  11.073   3.176 -0.0030 -0.2177  0.3465
11170W        W29374  16.914   3.303   4.437  0.3942 -0.2072  0.0973
11171W        W29375   8.728   5.600  14.131  0.4844 -0.1928  0.1481
11172W        W29376   3.730   3.684  13.535  0.0865  0.0350  0.0717
11173W        W29377   8.699  15.425  10.701  0.1675 -0.3913  0.0619
11174W        W29378   5.385   1.795  14.682  0.0157 -0.0098 -0.3163
11175W        W29379   8.871   3.182   1.792  0.1065  0.1151 -0.0017
11176W        W29380   1.497   5.427  15.385 -0.0556 -0.0378  0.0031
11177W        W29381  11.415  14.217  14.687 -0.2006  0.2656  0.0041
11178W        W29382  13.298  17.000  13.042  0.0762 -0.1992 -0.1519
11179W        W29383   5.417   5.941   0.907 -0.3120  0.0806  0.3064
11180W        W29384   6.830   9.249   3.046  0.2474  0.2498  0.1169
11181W        W29385   3.209  15.815   4.747 -0.0946 -0.2392 -0.3765
11182W        W29386  17.659   9.686  14.172  0.0169 -0.1367  0.1349
11183W        W29387  11.093  17.494   0.750  0.1533  0.1836 -0.0235
11184W        W29388  13.025  18.033   1.641  0.0582  0.1171 -0.2273
11185W        W29389  10.316  13.451  15.385 -0.3095 -0.2964 -0.1323
11186W        W29390   4.676  16.186  11.856 -0.2313 -0.0942  0.4428
11187W        W29391   8.317   9.468  13.812  0.0288  0.1634 -0.1222
11188W        W29392  11.279   7.653   2.541 -0.2097  0.1455 -0.1850
11189W        W29393   9.409   1.026  11.870 -0.0761  0.0425 -0.0015
11190W        W29394  17.222   4.454  13.289 -0.1097  0.1359  0.0485
11191W        W29395   4.962  16.802   1.618 -0.2944 -0.2804 -0.1106
11192W        W29396   5.968  18.064   0.434 -0.2486 -0.1423  0.0075
11193W        W29397  17.948   1.767  11.398  0.2020 -0.2009 -0.3552
11194W        W29398   7.758  15.018   0.336 -0.1363 -0.1002 -0.1744
11195W        W29399   0.100  10.592   0.707 -0.1137  0.1348  0.0825
11196W        W29400  10.524  12.019   0.064  0.0652 -0.0137 -0.3381
11197W        W29401  18.642   0.833   0.753  0.0225 -0.1292 -0.0343
11198W        W29402  13.900   1.820   0.940 -0.0605 -0.1409 -0.0657
11199W        W29403  12.225   5.922  12.153  0.0562  0.1002  0.3630
11200W        W29404   7.298   8.495   3.142 -0.1650  0.0158  0.3958
11201W        W29405   5.286   3.349   2.733 -0.0979  0.2790  0.1492
11202W        W29406   2.202  15.195   2.049  0.3383  0.1576  0.0630
11203W        W29407  14.731  11.070  15.183  0.2448  0.0032  0.0654
11204W        W29408  13.621   1.970   2.800 -0.0686  0.2566  0.0974
11205W        W29409  16.691   8.921   4.777 -0.0575  0.0115 -0.0260
11206W        W29410  13.086  13.119   1.596  0.1569 -0.1115  0.1325
11207W        W29411  16.942   3.512  14.627  0.2671 -0.2343 -0.1289
11208W        W29412   1.556   8.615   1.773 -0.0589  0.0578 -0.0807
11209W        W29413  10.080   0.170  13.764 -0.2362  0.4381 -0.4488
11210W        W29414   8.653   8.135  11.304 -0.0045 -0.4353 -0.0247
11211W        W29415  13.147   0.887  14.791  0.1955 -0.0481  0.1104
11212W        W29416  15.263   2.119  14.613 -0.1225  0.1603  0.0995
11213W        W29417   9.758   5.566  14.322  0.0136  0.5777 -0.1417
11214W        W29418  10.698   8.379   3.230  0.0843  0.2586 -0.0021
11215W        W29419  14.679  16.032   3.037 -0.0672 -0.0441  0.0305
11216W        W29420   7.700  15.827   1.583  0.2021  0.1876 -0.1539
11217W        W29421  12.451  12.429   2.402  0.3647  0.0444  0.2469
11218W        W29422  17.900  13.791   2.168 -0.2436 -0.1345  0.0459
11219W        W29423   6.699   1.336  14.792 -0.0955  0.2332 -0.1360
11220W        W29424   0.810   7.615   4.833 -0.0329 -0.0745 -0.0041
11221W        W29425  12.810  15.356  12.236  0.1204 -0.1173  0.2634
11222W        W29426   2.088  18.308  10.995  0.3370  0.2081  0.1447
11223W        W29427   5.210  18.555   0.167  0.1133  0.2632  0.3434
11224W        W29428  18.205   2.719  14.040 -0.0953  0.0505 -0.0082
11225W        W29429   8.303  16.839  11.485  0.0108  0.0528 -0.1168
11226W        W29430  11.927   1.349  15.120 -0.2667 -0.0565 -0.2843
11227W        W29431   7.668  13.008  15.437  0.0342  0.0965 -0.0371
11228W        W29432  12.192   2.529  11.826  0.1755 -0.0922  0.3247
11229W        W29433   4.538   2.933   2.217  0.1706 -0.0775  0.0147
11230W        W29434   4.089   9.905  12.465 -0.0887  0.0983 -0.0088
11231W        W29435  16.939  13.768  12.955 -0.0187 -0.2209  0.2742
11232W        W29436  16.694  13.749   3.624 -0.0635 -0.0107 -0.4464
11233W        W29437   6.122   5.334   3.081  0.0768 -0.0603 -0.0201
11234W        W29438   5.159  13.034  13.567 -0.0267  0.0523 -0.0270
11235W        W29439   5.971   0.087  13.415  0.0867 -0.2158 -0.1822
11236W        W29440   8.453   6.851   4.490  0.0553  0.0790 -0.2865
11237W        W29441  12.002   3.658   2.290  0.0916 -0.4256  0.3341
11238W        W29442  17.844  17.042  12.778  0.2227 -0.0728 -0.1944
11239W        W29443  15.821  13.034  10.889 -0.1900 -0.0561  0.1515
11240W        W29444  11.209  11.579  11.038 -0.1829  0.2324 -0.0766
11241W        W29445   2.814   1.294  13.619  0.0367  0.2928  0.0027
11242W        W29446  14.325   2.304  14.918  0.2433 -0.2396  0.0926
11243W        W29447  14.319  13.271   4.331 -0.0084 -0.5339 -0.1046
11244W        W29448   1.826   3.690  13.818  0.0408 -0.0161  0.0362
11245W        W29449  16.482   5.132  14.963  0.1025 -0.0669  0.0609
11246W        W29450   2.072   5.848  13.623 -0.1112  0.2007  0.0792
11247W        W29451  18.448  16.634   2.975 -0.1076 -0.0080 -0.1077
11248W        W29452   8.579   0.768  11.585 -0.0342  0.4314  0.0539
11249W        W29453   4.540  14.178   3.856 -0.1357 -0.2166 -0.1992
11250W        W29454  15.182  18.337   3.448 -0.3310 -0.1529 -0.1085
11251W        W29455  17.552   4.743  13.532 -0.0494 -0.1943  0.1535
11252W        W29456  15.367   3.087  14.084  0.1300 -0.4173  0.0645
11253W        W29457   5.399   0.266  13.578 -0.0655 -0.0032 -0.4599
11254W        W29458   3.625  18.495   0.900  0.0585  0.1290  0.3210
11255W        W29459   0.955   3.598  13.861  0.1186  0.0436 -0.3743
11256W        W29460  16.314  14.298  11.753 -0.1331 -0.0871  0.1707
11257W        W29461  10.375   8.806  12.597  0.1096  0.1001  0.0099
11258W        W29462   5.445   3.422  10.558 -0.2973 -0.0807  0.1085
11259W        W29463   4.476  17.536   1.760 -0.1439  0.1942 -0.1778
11260W        W29464   1.816   9.263   3.018  0.0364  0.1062  0.0154
11261W        W29465   0.447  18.529  14.548  0.0172  0.0564 -0.0085
11262W        W29466  14.596  17.161   4.013 -0.1105 -0.0674 -0.0023
11263W        W29467  12.155   9.045   4.056 -0.0486  0.0978  0.1110
11264W        W29468  12.773   0.190  15.387 -0.1457  0.1631  0.1928
11265W        W29469  12.741  12.090   4.750  0.2127 -0.0929  0.0669
11266W        W29470  15.822  18.097   1.356 -0.0866 -0.0746  0.0083
11267W        W29471  16.808   6.265  11.367  0.1020 -0.0924 -0.1241
11268W        W29472  10.586   6.429  12.166  0.0260  0.3156  0.1697
11269W        W29473  15.904   2.277   0.762 -0.1660  0.0924  0.3096
11270W        W29474   4.691   1.551   1.194 -0.2983  0.3407 -0.2670
11271W        W29475   7.524   1.815   0.592  0.1864 -0.3261 -0.0364
11272W        W29476  10.563   1.009  13.598  0.0933 -0.1502 -0.0864
11273W        W29477   4.000   4.589  12.706  0.0842  0.0225 -0.0921
11274W        W29478  18.590   8.080  12.228 -0.0628 -0.1053 -0.4248
11275W        W29479   7.738   8.783   2.155 -0.1514 -0.0045  0.1550
11276W        W29480   5.901   4.892   3.050 -0.0701  0.1463  0.2603
11277W        W29481   1.868  17.744   2.422 -0.1160 -0.1930 -0.2216
11278W        W29482  14.276  18.649   2.430  0.3955 -0.0809  0.1807
11279W        W29483   9.250   1.282  12.266 -0.2114 -0.1161  0.1349
11280W        W29484  15.920   6.841   4.633  0.0460 -0.1985  0.2052
11281W        W29485  14.827   3.968  10.753  0.0209  0.4308  0.0874
11282W        W29486  15.681   0.656   3.879  0.1954  0.1501 -0.0743
11283W        W29487   3.627  14.565   1.050  0.1748  0.0559  0.0209
11284W        W29488  12.398  17.765  12.155 -0.2833  0.1939 -0.0607
11285W        W29489   0.949  14.289   1.309 -0.2118 -0.0287  0.0079
11286W        W29490   5.611   4.379  13.501  0.0205  0.0037 -0.0741
11287W        W29491  13.361   7.424  14.061 -0.3700 -0.2578 -0.0436
11288W        W29492   6.329  16.411  14.784 -0.2017 -0.2579 -0.0738
11289W        W29493   5.271   3.720   4.449 -0.0439 -0.1583  0.2488
11290W        W29494   6.236  17.162   0.114  0.0675 -0.1420 -0.0144
11291W        W29495   0.942   0.256  15.288  0.0417  0.3174 -0.1444
11292W        W29496  12.361   9.215   0.150  0.0214 -0.2484 -0.2174
11293W        W29497  17.648   8.795  13.773  0.2936 -0.0713 -0.1858
11294W        W29498   3.612  11.193   1.740 -0.2150 -0.1203 -0.0897
11295W        W29499  11.292   8.084   0.006  0.0337  0.0767  0.1968
11296W        W29500   7.417  15.989   1.980 -0.2595 -0.4755  0.2824
11297W        W29501   9.019   7.708   2.108 -0.1585 -0.0565 -0.3296
11298W        W29502   3.906  10.947  13.966 -0.2387 -0.1545 -0.2955
11299W        W29503  17.112  16.213  11.087  0.1013 -0.1271 -0.2926
11300W        W29504   7.175   3.355   9.760  0.0432 -0.0395  0.0025
11301W        W29505  13.016  16.278   0.218  0.1746 -0.0491  0.0272
11302W        W29506  14.650   7.713   1.963 -0.0873  0.1776  0.0669
11303W        W29507   0.531  13.859  11.431  0.0393  0.0775  0.3457
11304W        W29508   1.627   0.774  11.805  0.1136 -0.2243  0.2398
11305W        W29509   6.502  14.765   1.003  0.2685 -0.1321 -0.0517
11306W        W29510   2.858   6.248   3.369 -0.0267 -0.2635 -0.0274
11307W        W29511  11.419   5.462  11.132 -0.1053  0.1053 -0.1035
11308W        W29512   5.595  13.415   2.377  0.1112  0.0471  0.0925
11309W        W29513   0.279  11.161   5.596 -0.4805 -0.0895  0.1066
11310W        W29514  17.762   8.674  12.555 -0.0954 -0.5762 -0.1241
11311W        W29515   4.613  10.482   3.770 -0.0778 -0.2990  0.0382
11312W        W29516   8.747  18.321   3.223 -0.1783  0.0103 -0.1174
11313W        W29517   4.046  14.195   2.572 -0.1619  0.1574 -0.0439
11314W        W29518   5.773   7.495  13.982 -0.2381 -0.2785  0.1682
11315W        W29519  11.129   5.945   2.919  0.0958 -0.2976 -0.1829
11316W        W29520  14.709   9.888   0.534  0.0228 -0.0375  0.1620
11317W        W29521   4.288   2.090   0.319  0.1042  0.0682 -0.0785
11318W        W29522   7.071  15.633  10.533 -0.2767 -0.3060  0.1788
11319W        W29523  18.635   3.804   5.507 -0.2357 -0.0343  0.0018
11320W        W29524   1.806  16.239   1.314  0.0708  0.1552 -0.2161
11321W        W29525  14.663  10.047   2.641  0.1727  0.1625  0.2022
11322W        W29526  15.019   0.333  13.656  0.1684 -0.0853 -0.0239
11323W        W29527   2.556   6.332   2.792  0.5271 -0.0650  0.0630
11324W        W29528  18.547   6.714  14.961  0.0017 -0.3044  0.3568
11325W        W29529   4.801  17.690   2.752  0.6826  0.2005 -0.2293
11326W        W29530  16.492   7.859  11.304 -0.0869  0.1465 -0.2332
11327W        W29531  16.390   9.548  15.408  0.0638  0.3322  0.0423
11328W        W29532   7.503   2.330   3.706  0.1193 -0.0123 -0.3012
11329W        W29533  17.172   8.954   4.760  0.1815  0.1451  0.4026
11330W        W29534  15.888  16.783   3.723 -0.2442 -0.0727 -0.0142
11331W        W29535   9.108  10.986   1.362  0.0197 -0.0746  0.1399
11332W        W29536  12.803  17.233   1.925  0.1667 -0.2313 -0.0223
11333W        W29537   5.659  17.037  11.347 -0.2434  0.0026 -0.0948
11334W        W29538  10.783  12.684   0.509  0.1311  0.1287 -0.0949
11335W        W29539   8.848  12.579   1.389  0.0900 -0.2986  0.1060
11336W        W29540  16.727  17.945   2.374  0.0849  0.2763 -0.0337
11337W        W29541   8.671   6.131  13.654  0.0583 -0.1538 -0.0321
11338W        W29542  14.515   5.486  13.313 -0.0066  0.2718 -0.0777
11339W        W29543   3.068  14.957  11.108  0.1895 -0.2561 -0.2482
11340W        W29544  16.067  10.841  14.745  0.0454  0.2827  0.1342
11341W        W29545  12.974  12.116   3.265  0.2757 -0.1183 -0.0916
11342W        W29546   9.761   1.095   2.082  0.0723 -0.0718 -0.0700
11343W        W29547   1.443  18.041   3.648 -0.2163 -0.1642  0.3293
11344W        W29548  13.144  15.984  11.933 -0.2489  0.2482  0.1693
11345W        W29549   4.889   5.690   4.278 -0.1498 -0.0079  0.1422
11346W        W29550  10.014   3.077  15.119 -0.0619 -0.0453  0.0151
11347W        W29551   9.264  12.917  12.053  0.1627  0.0049  0.0663
11348W        W29552  11.533  12.418   0.952  0.2803 -0.0098 -0.0585
11349W        W29553  10.945   3.378  14.882 -0.1131  0.0262  0.2545
11350W        W29554   9.823  15.803   2.678  0.1018 -0.0687  0.0049
11351W        W29555   2.094  16.414  14.601 -0.1885 -0.0240  0.0012
11352W        W29556   5.189   4.082  11.348  0.0535 -0.2202 -0.0178
11353W        W29557  16.744   3.753   4.252  0.1847 -0.1554 -0.0492
11354W        W29558   2.782   6.980  13.960  0.0653 -0.0985 -0.1604
11355W        W29559   9.596   4.006   3.374 -0.0872  0.2069 -0.0563
11356W        W29560   3.074   7.450   0.334  0.0035  0.1628  0.1269
11357W        W29561  10.952   6.688  12.350  0.0836  0.0883  0.1581
11358W        W29562   5.291  18.415  14.053  0.3985  0.1740  0.1976
11359W        W29563   2.356  12.579   1.559 -0.2718  0.1193  0.3292
11360W        W29564   2.205   1.764  12.283 -0.1470 -0.0174 -0.0083
11361W        W29565  14.367   6.483   1.509  0.0412 -0.1480  0.0075
11362W        W29566   9.436  13.993  13.660  0.1571 -0.0810 -0.1059
11363W        W29567  14.212  13.613   2.087  0.3514 -0.0944 -0.1767
11364W        W29568  18.449  17.506  13.875 -0.2092 -0.0834  0.1244
11365W        W29569   9.565   7.765   4.949  0.0446 -0.2424 -0.1019
11366W        W29570  14.151   2.374  12.108 -0.0038 -0.3398  0.0670
11367W        W29571   0.289  12.780  11.921  0.0145  0.2622 -0.1998
11368W        W29572   8.419   0.344  10.385 -0.4687  0.2336  0.2031
11369W        W29573  15.508  16.995   1.728  0.2417 -0.0024  0.1110
11370W        W29574   3.536   7.812   3.432 -0.0278  0.0964 -0.0554
11371W        W29575   3.856   2.283   0.512 -0.0593 -0.0761 -0.1107
11372W        W29576   1.901  15.504  12.007  0.1206 -0.1316 -0.2229
11373W        W29577   3.736   5.540  12.651  0.2356 -0.1098  0.1301
11374W        W29578   9.361   0.457  10.915  0.1630 -0.0666  0.1444
11375W        W29579  11.836  12.942  14.248 -0.1318  0.1581  0.2291
11376W        W29580   4.602   4.524  10.768  0.0218  0.2023 -0.4940
11377W        W29581  10.213   4.845   4.733  0.1508 -0.1741  0.1760
11378W        W29582   0.063   5.418  14.727 -0.1760 -0.0014 -0.0087
11379W        W29583   0.983   1.183   3.229  0.2739  0.1240 -0.3046
11380W        W29584  12.935  13.576   1.426  0.2534 -0.0131 -0.3388
11381W        W29585  18.672   4.863   2.760 -0.0070 -0.0701  0.0790
11382W        W29586   6.505  16.656  10.815  0.1569 -0.5043  0.2611
11383W        W29587  10.364   1.408  15.304  0.2058 -0.2157 -0.1071
11384W        W29588  15.576   7.831   4.546 -0.2135  0.1012 -0.2698
11385W        W29589   7.665   4.329   0.826 -0.2210 -0.0420 -0.0255
11386W        W29590  18.547  16.491   4.727 -0.0246 -0.1437 -0.0990
11387W        W29591   0.570  15.280  12.432  0.2788 -0.1283 -0.1470
11388W        W29592  17.175   8.514   0.917 -0.0609 -0.0990  0.1847
11389W        W29593  10.594  17.625  13.685  0.1307 -0.1430 -0.3259
11390W        W29594  12.500   7.575   3.288 -0.1228  0.0376  0.0301
11391W        W29595   4.584  13.944  12.798 -0.0299  0.2959 -0.3584
11392W        W29596  13.086  10.562  12.942 -0.3709  0.1687 -0.3641
11393W        W29597   3.423   9.069   3.279  0.2548  0.1684 -0.2202
11394W        W29598   3.616   7.087  14.274 -0.0756 -0.0555  0.1026
11395W        W29599  17.123   1.225   4.424  0.1670 -0.2294 -0.1832
11396W        W29600   0.377  10.252   1.590 -0.0232 -0.1085 -0.1701
11397W        W29601  13.077  14.584   4.081  0.1048  0.3106  0.1651
11398W        W29602  17.595  14.746   5.118 -0.0077  0.1649  0.0722
11399W        W29603   2.087  12.556  13.392  0.2733  0.0857  0.2276
11400W        W29604   4.072  11.947  14.528  0.1976  0.0166  0.0123
11401W        W29605  11.813  10.971  12.991 -0.0436 -0.1916 -0.0146
11402W        W29606  13.989  13.923  11.302  0.0633 -0.0003  0.2274
11403W        W29607   1.791   0.313  11.628 -0.0692 -0.0452 -0.0733
11404W        W29608   2.330   3.962   1.559  0.1147  0.0585  0.4489
11405W        W29609  15.309   3.373  11.280  0.0342  0.2729 -0.3722
11406W        W29610   9.489  10.271  13.774  0.1602  0.0460  0.1325
11407W        W29611   6.665   0.055   0.531  0.2418  0.5038  0.0339
11408W        W29612   1.966   9.617  12.080  0.1066  0.1726  0.2244
11409W        W29613   2.029   1.079  12.027  0.2712 -0.0751  0.1005
11410W        W29614   9.132  11.459  15.349  0.1062 -0.1369  0.0643
11411W        W29615   4.717  13.384   1.221  0.0023 -0.0540 -0.0975
11412W        W29616   3.516  11.487  12.010 -0.1422  0.1189 -0.0689
11413W        W29617  12.364  16.287  12.263 -0.1229 -0.2460  0.0566
11414W        W29618  17.618  16.179  15.148 -0.2069  0.1562 -0.4533
11415W        W29619  17.413   4.785  14.838  0.2558 -0.4107  0.0726
11416W        W29620   6.807  13.947   1.400 -0.0601 -0.1992  0.1095
11417W        W29621   3.649  13.915   3.489 -0.1648  0.2353 -0.3278
11418W        W29622   3.816  12.558  11.040  0.0875  0.0678 -0.2860
11419W        W29623   9.327   0.097   0.979 -0.1210  0.1947  0.2954
11420W        W29624  10.473   4.542   0.912  0.2350  0.1090 -0.0151
11421W        W29625  14.077   2.883  13.323 -0.3868 -0.0014 -0.0568
11422W        W29626   8.554   7.720  13.220 -0.0213  0.0492  0.3050
11423W        W29627  13.013  16.070   1.985 -0.1102  0.0254 -0.0914
11424W        W29628  11.879   7.217  14.517  0.1583 -0.2427 -0.2423
11425W        W29629   8.884   6.656   2.578  0.1135  0.3312 -0.2990
11426W        W29630  14.177   2.817   4.250  0.3032 -0.0981  0.0534
11427W        W29631   9.116   9.831  15.020 -0.2208 -0.2662 -0.0258
11428W        W29632   7.097  13.228  15.251  0.1475  0.1818  0.1543
11429W        W29633   1.950   1.312   3.146 -0.0684  0.1380  0.0179
11430W        W29634  16.606   0.034  14.266  0.0696  0.2160 -0.0363
11431W        W29635   2.072  13.613   0.548 -0.2485 -0.0635  0.0954
11432W        W29636  18.172  14.810  12.864 -0.4419  0.2963 -0.0219
11433W        W29637   9.969   0.027   3.234  0.2727 -0.0920  0.1203
11434W        W29638  10.306   8.125   0.465  0.2947  0.0925  0.0958
11435W        W29639  17.380   7.543   9.946  0.0856  0.1421 -0.0688
11436W        W29640   8.634  12.171   1.917  0.1193 -0.1672  0.0384
11437W        W29641   5.858   8.711   0.954  0.2778  0.2116  0.2735
11438W        W29642   6.775  12.597   2.063 -0.0708 -0.4109  0.0729
11439W        W29643  14.329   5.749   4.473 -0.2976 -0.2083 -0.2644
11440W        W29644  15.757  10.270  10.784  0.0537  0.2431 -0.4192
11441W        W29645   8.468  14.824  13.502 -0.0710 -0.1188  0.3768
11442W        W29646  15.870  16.850   1.394 -0.1438 -0.1055 -0.1802
11443W        W29647  10.159  18.413  14.185 -0.1042 -0.0724 -0.1534
11444W        W29648   7.133   4.113   0.340  0.0087  0.5314  0.2487
11445W        W29649   7.886  16.729  11.125 -0.2710  0.0071 -0.0681
11446W        W29650  14.823   7.840  12.552  0.3869 -0.1793 -0.0639
11447W        W29651   0.626   0.774  11.759  0.0032  0.0913  0.0628
11448W        W29652   6.270   1.947   1.455  0.0576  0.1723  0.2658
11449W        W29653   4.406   4.109  14.717  0.0083  0.0221 -0.3598
11450W        W29654  16.992  14.693   2.319 -0.2760 -0.0957 -0.0966
11451W        W29655  10.582  16.733  12.058 -0.3088  0.0154 -0.0434
11452W        W29656  13.813  17.904  15.144 -0.0476 -0.0377  0.0001
11453W        W29657   0.762  14.984  14.710  0.2289  0.1695  0.1972
11454W        W29658  14.197   0.454  13.875 -0.0082  0.2099  0.3621
11455W        W29659   9.082  15.016   9.975  0.0914  0.1079 -0.0555
11456W        W29660  14.837   5.735  13.639  0.3342  0.0712 -0.2997
11457W        W29661   4.624   7.864   1.455  0.3733  0.1977 -0.3042
11458W        W29662  16.815  18.638  11.815 -0.1341 -0.0463  0.1179
11459W        W29663   2.429  11.586   0.770 -0.0785 -0.0664  0.0491
11460W        W29664  10.775   6.887   1.985  0.0388 -0.1042  0.0741
11461W        W29665   0.714   4.231   5.294 -0.1649 -0.0397 -0.2463
11462W        W29666  14.049   4.100   1.643  0.0186 -0.2182  0.0171
11463W        W29667   4.088  12.426   5.444 -0.1201 -0.1750 -0.1189
11464W        W29668  17.934  14.197  10.764 -0.0418  0.5264 -0.1456
11465W        W29669  12.593   3.687   4.680  0.1203  0.0934 -0.0743
11466W        W29670  11.612  17.924  10.917  0.2898 -0.2186  0.3318
11467W        W29671   4.200  16.476  13.567  0.1227  0.0207  0.3016
11468W        W29672  17.063  17.193   4.446  0.2269  0.1501 -0.2127
11469W        W29673  12.121  16.793   3.501  0.1547 -0.0478  0.0885
11470W        W29674  10.852   5.008  14.858  0.2034 -0.2691  0.0427
11471W        W29675  10.470   8.831   4.932  0.2565  0.0125  0.0814
11472W        W29676   7.832  10.317   0.740 -0.0576  0.1231  0.0922
11473W        W29677  11.076   5.477   1.122  0.3430  0.1261  0.0713
11474W        W29678   9.607   7.335  12.594  0.0569 -0.3134 -0.3103
11475W        W29679   6.068   3.750   2.457  0.0429 -0.0071  0.3082
11476W        W29680  12.692  18.454   0.662  0.1514 -0.0724  0.2014
11477W        W29681   0.570   9.184   3.710  0.1411  0.0545  0.1041
11478W        W29682  15.130   6.947   4.157 -0.2953  0.1419  0.1018
11479W        W29683   2.495  17.075   3.798  0.0136 -0.0959 -0.0947
11480W        W29684  10.257  18.412   1.516  0.0733 -0.1987  0.1830
11481W        W29685  10.023  13.370   1.322 -0.2109  0.2083 -0.0908
11482W        W29686  17.997  18.189   0.280 -0.0245 -0.1106  0.4377
11483W        W29687  14.461  10.460   1.222 -0.2865  0.0627 -0.3425
11484W        W29688  18.233   0.114  12.207  0.0098 -0.1572 -0.5245
11485W        W29689  11.522  10.201  14.175  0.0233 -0.0622  0.1856
11486W        W29690  18.679   9.082   1.641 -0.3098  0.2739  0.1737
11487W        W29691   4.409   3.126  12.888  0.1645  0.0496  0.0907
11488W        W29692   1.363  17.864   0.071  0.0621  0.0499 -0.0368
11489W        W29693   0.692  11.598  12.393  0.3967  0.1239 -0.1092
11490W        W29694   7.984  11.679   4.064 -0.2829 -0.0811 -0.0128
11491W        W29695  16.288  10.898   4.181 -0.2594 -0.1366 -0.0415
11492W        W29696   9.115   7.377  13.941 -0.2009  0.1945  0.0577
11493W        W29697  12.418   0.115  11.437  0.2598 -0.2242  0.0904
11494W        W29698  14.675   7.272  14.064 -0.1274  0.1240  0.0044
11495W        W29699   7.388   1.744  15.455  0.1276 -0.2687  0.1832
11496W        W29700   1.075   7.094   1.687 -0.0468 -0.3436 -0.1323
11497W        W29701   2.755   7.386  11.888 -0.1867  0.0120  0.1177
11498W        W29702   0.878   9.241  11.344 -0.2029  0.0551  0.1342
11499W        W29703  18.673  10.095   2.650  0.0875  0.2562  0.4001
11500W        W29704   3.583  12.353  12.934 -0.0554 -0.4006 -0.2219
11501W        W29705   1.740  10.322   1.153 -0.1814  0.1414 -0.0132
11502W        W29706  11.008   2.106  14.442  0.0693  0.1465  0.3172
11503W        W29707   9.227  17.526  12.374  0.0179  0.1340 -0.2787
11504W        W29708   1.558  18.441  10.966  0.0464  0.1193  0.2122
11505W        W29709  14.778  10.024  14.232 -0.1316 -0.1560 -0.2755
11506W        W29710  11.325   7.467   1.937 -0.0724  0.1240  0.2001
11507W        W29711   0.884   8.752   1.682 -0.0971 -0.2532 -0.1894
11508W        W29712   6.159   8.795  12.433 -0.3386  0.1470  0.3605
11509W        W29713   4.483  13.872   2.170 -0.1107  0.3235 -0.1429
11510W        W29714   9.016   8.854  13.781 -0.2721 -0.2832  0.2198
11511W        W29715  15.040  14.598  14.989 -0.2711  0.1576 -0.1433
11512W        W29716  17.078   6.651  15.203  0.0405 -0.3687  0.0911
11513W        W29717   3.506   2.883  13.063 -0.1503  0.1160  0.0715
11514W        W29718   4.154  10.239  15.273  0.2740  0.0559  0.2392
11515W        W29719   9.262   3.605   1.875  0.1222  0.0119 -0.4807
11516W        W29720   3.397  11.095  14.543 -0.0897 -0.1325 -0.0544
11517W        W29721   4.425   2.211  10.497 -0.0541 -0.3300  0.2564
11518W        W29722   7.135   2.322  10.445 -0.0966 -0.0988 -0.2055
11519W        W29723  12.990  17.512   3.128  0.0219 -0.0427 -0.0259
11520W        W29724   4.633   9.178  11.713 -0.2699 -0.0464  0.0991
11521W        W29725  18.612   9.702   4.657 -0.2694  0.1239  0.1448
11522W        W29726   0.099   9.026   1.007  0.3580 -0.0823  0.1143
11523W        W29727   5.304   4.964  11.669  0.1806  0.0911  0.0354
11524W        W29728   9.139   5.816  13.725  0.0566 -0.1169 -0.1230
11525W        W29729  10.909   7.549   3.542 -0.0510  0.0049  0.0868
11526W        W29730  13.311   7.811   4.735 -0.2122 -0.0568  0.3538
11527W        W29731  13.695  18.152  11.478 -0.4662 -0.1427  0.1530
11528W        W29732   7.313  12.254  11.793  0.1820 -0.2374 -0.4263
11529W        W29733   3.873  16.001   0.395  0.3057  0.1513 -0.0125
11530W        W29734  13.140   6.079  14.981 -0.1884 -0.2056 -0.0133
11531W        W29735  17.988   6.319  14.247 -0.0020 -0.1928 -0.2063
11532W        W29736   8.229  14.719   3.558  0.1001  0.1181  0.1730
11533W        W29737  18.294  15.958   2.454  0.2348  0.1833  0.4740
11534W        W29738  17.388  11.907   1.150 -0.2628 -0.2118 -0.0887
11535W        W29739   7.789   4.568  12.512  0.2810 -0.0313 -0.4566
11536W        W29740   6.052  10.483  12.100 -0.0148 -0.0910  0.1380
11537W        W29741   5.544   7.897  14.216  0.0666  0.1121  0.1074
11538W        W29742   8.010   2.449  12.944  0.3044  0.1311 -0.0804
11539W        W29743  15.251  12.077  13.125  0.1556 -0.1066  0.0495
11540W        W29744  16.951  11.864  13.591 -0.1083 -0.0805 -0.1264
11541W        W29745   7.980   8.514  11.515 -0.1844  0.0271  0.2869
11542W        W29746   8.758  12.944  14.967 -0.0377  0.2359 -0.0422
11543W        W29747  16.757   7.288  12.600  0.2279  0.0736  0.1471
11544W        W29748  17.048  12.385  11.905  0.2294  0.1447 -0.3609
11545W        W29749   5.305   5.773  15.388 -0.4518  0.1446  0.0339
11546W        W29750   3.185   1.721  11.546 -0.0754 -0.0967  0.3345
11547W        W29751   0.497   6.033  12.884  0.0252 -0.0920  0.0726
11548W        W29752  13.172   5.498  13.157 -0.1621 -0.1818  0.2414
11549W        W29753   4.489   7.635  12.676 -0.2284 -0.3123  0.3516
11550W        W29754  14.197   6.352   2.519  0.1385  0.0706 -0.4441
11551W        W29755   9.186  18.318   0.867  0.1850  0.0786  0.0468
11552W        W29756   4.338  11.485   4.654 -0.0523 -0.2192  0.2832
11553W        W29757  16.237   9.405   1.004 -0.2531 -0.0636 -0.0362
11554W        W29758  14.534   5.230   3.078 -0.0154 -0.0493  0.1824
11555W        W29759  13.070   8.421  12.978 -0.1775  0.1532  0.0968
11556W        W29760  10.171  12.885   2.227 -0.1228  0.2237  0.0409
11557W        W29761  15.232  13.151   5.410 -0.1690  0.2568  0.0656
11558W        W29762  16.543   1.141   0.634  0.0774  0.0714 -0.3148
11559W        W29763  16.433   2.139   0.755 -0.1246 -0.0040 -0.2545
11560W        W29764  10.638  12.287   2.919  0.0358 -0.0609  0.0463
11561W        W29765  10.948   2.945  14.024 -0.0096  0.0165 -0.0706
11562W        W29766  16.401  11.193  14.526 -0.2265  0.0566  0.0866
11563W        W29767  16.060  17.317  10.383 -0.1356 -0.1143 -0.0710
11564W        W29768   1.721   6.347  14.263  0.3263 -0.3267 -0.0008
11565W        W29769   9.913   1.948   0.452 -0.5124  0.0702 -0.0551
11566W        W29770   0.365  18.300   1.836 -0.0165  0.2389 -0.0218
11567W        W29771   3.067   1.720  13.526 -0.2209 -0.2553 -0.0194
11568W        W29772  10.364  10.142   5.261 -0.1686  0.0057  0.3252
11569W        W29773   2.914   7.069   0.677  0.1266  0.1102  0.1064
11570W        W29774   5.989  13.151  13.535 -0.1587  0.1180  0.1568
11571W        W29775  12.822   9.317  15.135 -0.2140  0.1682 -0.0669
11572W        W29776   1.261  10.836  12.861 -0.3797 -0.3192  0.0893
11573W        W29777   1.075   0.993  14.408 -0.1226  0.3553 -0.0836
11574W        W29778   4.563   6.210   3.749 -0.1656  0.0577 -0.1233
11575W        W29779   0.423  18.498   3.491 -0.1429 -0.4684  0.2687
11576W        W29780   7.623   1.380   3.766  0.0061  0.1467 -0.1049
11577W        W29781  17.526  17.954   2.909 -0.0633 -0.1794 -0.0247
11578W        W29782  12.786   8.376  11.785  0.2088  0.0171 -0.1300
11579W        W29783   0.156   9.714  14.773 -0.4222  0.1113 -0.0506
11580W        W29784  17.485  15.193  15.049  0.0107 -0.3288  0.2420
11581W        W29785  11.901  17.709   1.346  0.0283 -0.0701 -0.1522
11582W        W29786  14.700  18.469  11.942 -0.1874  0.2415  0.0297
11583W        W29787  17.281   4.027   1.879 -0.3188 -0.2116  0.2726
11584W        W29788   6.421  17.566  11.360 -0.1641  0.0924 -0.0250
11585W        W29789   4.012   4.420   2.120  0.2683 -0.0719  0.1361
11586W        W29790   3.208   5.663  13.615 -0.0720  0.1579 -0.1817
11587W        W29791  11.225  17.587  14.020  0.0420 -0.1715  0.0057
11588W        W29792  16.517   0.113   2.507  0.3381 -0.5257  0.0962
11589W        W29793   5.609   8.629   0.362  0.0146 -0.0757 -0.2175
11590W        W29794   8.092  12.063   4.418  0.3796 -0.1961  0.0752
11591W        W29795   6.166  11.301   2.584 -0.0742 -0.1869 -0.3758
11592W        W29796   9.195   1.338  10.867 -0.3401 -0.1787 -0.3865
11593W        W29797   1.969   3.899  12.110 -0.0137  0.0463  0.2262
11594W        W29798   3.609   8.944  15.231 -0.0998 -0.0441 -0.0798
11595W        W29799   8.450  16.496  11.806  0.2067  0.0071  0.1253
11596W        W29800   8.803  15.606  11.138  0.1541  0.0786 -0.0117
11597W        W29801   4.140  14.175  15.266  0.1248 -0.1708  0.2242
11598W        W29802  15.720  12.954  13.421 -0.0226  0.1527 -0.2848
11599W        W29803   3.597  17.977   3.409  0.1532 -0.0818 -0.0438
11600W        W29804  12.377   3.680  15.168 -0.1762  0.1352 -0.2095
11601W        W29805   2.037  13.640  12.268 -0.1641  0.0605 -0.0092
11602W        W29806  10.637   1.831   4.219  0.0641  0.0304  0.1971
11603W        W29807   7.358  17.930  14.095 -0.0809 -0.0500  0.2726
11604W        W29808  13.407   0.484   9.555  0.0125  0.3850 -0.0858
11605W        W29809   9.613   0.807   4.231  0.4086  0.3261  0.1881
11606W        W29810  17.932  11.385   0.697 -0.0570  0.1021 -0.1544
11607W        W29811   5.381  17.610  10.644 -0.0799  0.1123  0.1501
11608W        W29812  13.631  17.935   1.676  0.1165 -0.1744 -0.1346
11609W        W29813   5.565   1.748  12.882 -0.4437 -0.0072 -0.1931
11610W        W29814   5.619  12.347  13.740  0.0837  0.4114  0.1095
11611W        W29815  17.329   3.618   0.018  0.3155  0.0337 -0.1473
11612W        W29816   5.905  11.255   3.175  0.0993 -0.1846  0.2732
11613W        W29817  16.655   9.361   2.703  0.1762  0.3586  0.1717
11614W        W29818  15.739   6.811   3.129  0.1235 -0.0283 -0.1957
11615W        W29819   6.744   8.000  14.493  0.2629  0.1415 -0.0005
11616W        W29820   1.131   1.699   0.772  0.0547  0.1635 -0.1604
11617W        W29821   5.433  16.290  10.784 -0.0025 -0.0891  0.2208
11618W        W29822   4.134   5.878  11.924 -0.1633 -0.0609 -0.3254
11619W        W29823   9.494  13.086  14.426 -0.2409 -0.3488  0.0876
11620W        W29824   0.748  14.890  11.503 -0.0891 -0.0760 -0.3855
11621W        W29825   7.413  12.189  11.290  0.2990  0.1320  0.0793
11622W        W29826   1.292   9.722  14.105  0.2547 -0.0920  0.0521
11623W        W29827  18.622   3.727  11.267 -0.0375 -0.2666 -0.4036
11624W        W29828  14.288  12.101  13.067  0.0112 -0.0652  0.2216
11625W        W29829   5.730   0.249  10.677 -0.1998  0.1074 -0.1042
11626W        W29830  13.178  13.856  14.035 -0.1806  0.1463  0.1756
11627W        W29831   9.303  10.503   0.750  0.0534 -0.0644 -0.1690
11628W        W29832  13.455  11.343   1.676 -0.2635 -0.1877  0.0464
11629W        W29833  13.947   9.606   4.867  0.0366 -0.1135 -0.2414
11630W        W29834   3.398  16.243   4.503  0.1971 -0.3040 -0.1162
11631W        W29835  12.056  13.703   1.753 -0.1198  0.1242  0.2157
11632W        W29836  10.384   5.953  12.323  0.0751  0.2082  0.1408
11633W        W29837   3.359   3.507  13.166 -0.0461  0.1552 -0.2441
11634W        W29838   1.810  10.660  13.836 -0.0557 -0.2086  0.2689
11635W        W29839   2.437   4.041   2.637  0.2254  0.0503  0.3789
11636W        W29840   5.915   5.107  11.843  0.1184 -0.4146 -0.0748
11637W        W29841  10.361   6.887   1.683 -0.0892 -0.0721 -0.2778
11638W        W29842   3.151  12.419   3.533 -0.1616  0.1580  0.1458
11639W        W29843   9.742  13.803   4.216 -0.2676 -0.1992  0.0668
11640W        W29844  18.243   0.616  12.465  0.1047 -0.0814 -0.1380
11641W        W29845   8.570   1.466  15.160  0.0548  0.0622  0.2357
11642W        W29846  10.137   5.200  13.284  0.2061  0.2825 -0.1233
11643W        W29847  18.674   0.600   4.542  0.1660  0.1416 -0.1538
11644W        W29848   4.450  18.366   0.752  0.2791 -0.1607  0.0268
11645W        W29849  15.932   3.027  12.550  0.2675  0.3587 -0.0793
11646W        W29850   8.796   7.024  14.128 -0.2202  0.0392 -0.0049
11647W        W29851  13.925  14.192  14.784  0.3979  0.0987  0.1619
11648W        W29852  16.271  11.450  12.636  0.1069 -0.0185 -0.1537
11649W        W29853  13.555   9.455  13.300 -0.2258  0.0587 -0.1259
11650W        W29854   7.496  18.503  10.757 -0.2484  0.1458 -0.1562
11651W        W29855   1.216  14.265  13.779  0.1317  0.0428  0.0507
11652W        W29856  11.015   9.668   0.524 -0.2149 -0.1879  0.3874
11653W        W29857  17.183  13.033   2.327  0.0359 -0.0745 -0.1520
11654W        W29858   5.479   1.685   1.749  0.0562  0.1437 -0.0693
11655W        W29859   5.217   6.921   0.925 -0.2072 -0.0767  0.2378
11656W        W29860  14.904   6.315   2.833  0.3241 -0.0235 -0.2543
11657W        W29861  17.614   7.993   3.891 -0.0413 -0.1351  0.4587
11658W        W29862   7.884  17.128   2.170  0.1767  0.0580  0.0146
11659W        W29863   5.103   0.639  13.420 -0.3382  0.2489  0.3174
11660W        W29864   1.130  11.859   3.429  0.1187  0.2155  0.1710
11661W        W29865   6.585   5.924  12.946 -0.0166  0.0921 -0.0545
11662W        W29866  14.200   9.641   4.035 -0.1872 -0.1679 -0.1045
11663W        W29867   2.368   5.180  14.607 -0.2954 -0.0641  0.1672
11664W        W29868   2.416  13.773  14.797 -0.3957 -0.1639  0.1566
11665W        W29869   7.861   6.757  12.723 -0.0251 -0.1982  0.0828
11666W        W29870  18.043   4.324  13.593 -0.2906  0.2347 -0.1336
11667W        W29871   4.528   8.795   1.642  0.0491  0.0158 -0.1723
11668W        W29872   8.246  12.934   4.506  0.0541  0.2301 -0.1310
11669W        W29873  12.469  17.179  12.081 -0.0020  0.0781  0.0574
11670W        W29874   9.599  10.880  12.974  0.0590 -0.1690 -0.1528
11671W        W29875  13.004  15.645  15.308 -0.2524  0.0798 -0.0769
11672W        W29876  16.422   4.584   0.168  0.1336 -0.0767  0.0263
11673W        W29877   0.452  12.815   4.018 -0.1438 -0.0466 -0.3314
11674W        W29878  12.948   9.902   1.262  0.0265 -0.0046  0.0105
11675W        W29879  13.338  15.147   2.223 -0.1323 -0.0834  0.1669
11676W        W29880   5.246   9.578   2.805  0.0519 -0.1017  0.0521
11677W        W29881   9.212  10.006   0.894  0.0997  0.0138 -0.0965
11678W        W29882  16.219   3.167   2.389  0.0030  0.0157 -0.0812
11679W        W29883  14.016  14.413  14.278  0.0820 -0.1763  0.0297
11680W        W29884  11.449   3.239   2.764  0.0789 -0.4666  0.0256
11681W        W29885  17.765   6.257   0.268  0.0810 -0.1102 -0.0111
11682W        W29886  13.952  11.087  11.452 -0.1362 -0.1957 -0.0161
11683W        W29887   0.511   4.853  14.583  0.0624 -0.1063  0.0326
11684W        W29888   3.847  12.125   4.657 -0.0698 -0.3650 -0.2015
11685W        W29889   9.517   9.972  10.962  0.1220 -0.1418 -0.0295
11686W        W29890  10.652   0.024   3.267 -0.1041  0.0070 -0.2119
11687W        W29891  16.913   7.827  10.433  0.2206  0.0635 -0.0996
11688W        W29892  16.099  10.741  12.258 -0.1632  0.0729  0.4138
11689W        W29893   4.033  16.557   2.600 -0.0087  0.0178 -0.0237
11690W        W29894   2.470  17.372   3.297 -0.2525 -0.0378  0.0129
11691W        W29895  10.140   2.096  12.329 -0.2302  0.3529  0.2445
11692W        W29896  13.658   2.450  11.822  0.0893 -0.2224  0.1930
11693W        W29897   8.530   8.546  12.059  0.2687  0.2353  0.2239
11694W        W29898   6.280  17.314   5.396  0.0185  0.0783  0.1235
11695W        W29899   7.089  11.726  14.408 -0.0034 -0.0981 -0.2620
11696W        W29900   3.955  14.470   2.032 -0.0143 -0.1560  0.0731
11697W        W29901   3.760  16.703  13.390  0.0349 -0.2000  0.1402
11698W        W29902  18.377  15.015   2.112 -0.1163 -0.0919  0.2092
11699W        W29903   1.771   3.518  11.357 -0.2516 -0.1242 -0.2231
11700W        W29904   2.989  14.124   2.331 -0.0323 -0.0293 -0.5282
11701W        W29905  13.977   3.593   3.113 -0.0297  0.0028 -0.2977
11702W        W29906  15.646   2.958  11.085 -0.0097 -0.3943  0.3002
11703W        W29907   4.887   6.025   3.391 -0.0464 -0.0246  0.0958
11704W        W29908  11.766  12.310  15.400 -0.1070  0.1347 -0.0983
11705W        W29909  11.025   8.666   1.117 -0.1644 -0.1585 -0.1131
11706W        W29910   3.543  15.309   1.667 -0.1347  0.1825  0.0530
11707W        W29911  13.041   6.874   0.002  0.1536  0.0013  0.2205
11708W        W29912   7.942  14.049   0.365  0.2332  0.0607 -0.1456
11709W        W29913  13.253   3.589   0.249  0.1033  0.0831  0.0272
11710W        W29914  16.889   2.019   2.388 -0.2611 -0.1841 -0.2461
11711W        W29915  12.384   5.397   0.787  0.0181 -0.1289 -0.2753
11712W        W29916  10.838  10.907   4.556 -0.1671 -0.2612 -0.2164
11713W        W29917   7.973  16.371  12.083  0.0565 -0.0224  0.0787
11714W        W29918   3.983  18.196  13.869 -0.1553  0.3014 -0.0963
11715W        W29919   7.153  14.060  14.944 -0.0118  0.3125  0.2403
11716W        W29920  15.752  16.409   0.480 -0.0479 -0.2356 -0.2178
11717W        W29921   0.410   0.329  11.482  0.2427 -0.1965 -0.0786
11718W        W29922  13.381  10.516   5.064 -0.4096  0.2345 -0.0341
11719W        W29923   7.168  12.777   3.748 -0.1493  0.1736 -0.2166
11720W        W29924   9.995   6.165  14.025 -0.3888  0.0303  0.1951
11721W        W29925  17.155  11.436   1.243 -0.5706  0.1984  0.4237
11722W        W29926   4.401   0.183  13.627 -0.0439  0.0117  0.0298
11723W        W29927  12.736  17.955  11.741 -0.0197  0.1737  0.2737
11724W        W29928   0.268  16.257   0.564  0.0573  0.1412  0.0139
11725W        W29929   5.669   6.782  11.226  0.2360 -0.2980  0.1426
11726W        W29930   3.183  11.490   3.785 -0.1297 -0.2138  0.1176
11727W        W29931  18.089   3.540  13.868 -0.1102  0.1262  0.2285
11728W        W29932  13.066   3.257   5.147 -0.1634  0.1879  0.2919
11729W        W29933   2.761  14.138  10.754 -0.1975 -0.0976 -0.0595
11730W        W29934   3.860  18.230   0.087  0.2301 -0.1669 -0.4673
11731W        W29935  15.834   1.410   2.698 -0.1093 -0.0570  0.0637
11732W        W29936  17.102   0.034   1.321  0.0611  0.2019 -0.0770
11733W        W29937   4.602  14.563   0.347  0.0037 -0.0419 -0.1121
11734W        W29938   5.990   5.086   3.512 -0.0113 -0.2792 -0.0334
11735W        W29939   2.614  18.338   1.497  0.3324 -0.3365  0.0968
11736W        W29940   4.905  10.823   4.256  0.0388  0.0357  0.2103
11737W        W29941   3.007   4.746   4.191  0.0165  0.4381 -0.1131
11738W        W29942   1.209   7.680   3.935 -0.0629  0.1428 -0.1209
11739W        W29943   4.986  16.316  12.376 -0.0198 -0.1442 -0.1876
11740W        W29944  10.240  11.879  13.588  0.2197 -0.0457  0.0999
11741W        W29945   7.661  17.655   2.452  0.0571 -0.0615 -0.3864
11742W        W29946  18.473  17.778   0.402  0.1562  0.0093 -0.2285
11743W        W29947  16.772  15.207   2.084 -0.1283  0.1821 -0.0403
11744W        W29948   6.534  15.462   3.493 -0.1454  0.1626 -0.0209
11745W        W29949  11.303   2.656   4.113 -0.3161  0.0283  0.2245
11746W        W29950   8.930   1.495   0.751 -0.1180 -0.0121 -0.0287
11747W        W29951   9.541  16.996   2.982 -0.3769 -0.0977 -0.1059
11748W        W29952  16.618  14.791   1.273  0.1488  0.0845  0.0870
11749W        W29953  12.889  14.670  12.431 -0.2834 -0.0099  0.1917
11750W        W29954  16.076   4.874  13.729  0.2790 -0.0496 -0.3220
11751W        W29955   7.719   7.852   3.257  0.0071 -0.0424 -0.1351
11752W        W29956  10.490   0.608   1.937 -0.1485 -0.1010  0.0295
11753W        W29957  15.252  15.053   3.957  0.1216 -0.0232  0.2746
11754W        W29958   1.094   3.486   0.976  0.1132  0.0142 -0.1422
11755W        W29959   4.416   7.942  13.859 -0.1711  0.0886  0.5049
11756W        W29960   0.534  12.845   0.216  0.3132  0.1198 -0.0506
11757W        W29961   2.386   1.923   1.751  0.0145 -0.0186 -0.0396
11758W        W29962   4.743  15.657   3.492 -0.2278  0.1957  0.1430
11759W        W29963  17.278   2.663   0.337  0.2390  0.1120 -0.1392
11760W        W29964  18.089  11.115   4.500 -0.0809 -0.0398 -0.0950
11761W        W29965   8.515  15.536   1.578 -0.1115 -0.0429  0.0917
11762W        W29966   2.235   2.936   4.280 -0.1440  0.1925  0.1282
11763W        W29967   2.813   3.860   1.769 -0.1134 -0.2294  0.1245
11764W        W29968   4.016   8.821   0.501  0.0799 -0.0783 -0.4250
11765W        W29969  15.330  15.648  14.937  0.1013 -0.1799 -0.0608
11766W        W29970  17.775  12.657  11.181 -0.0162  0.2701  0.1460
11767W        W29971   8.513   1.576   0.947  0.1893 -0.0007 -0.1662
11768W        W29972  16.683   0.276  15.197  0.0711 -0.0352  0.1664
11769W        W29973  17.663  16.820   4.615  0.2687  0.3288 -0.4957
11770W        W29974   9.954   8.037  15.129  0.0568 -0.1340 -0.0727
11771W        W29975   0.503   0.655   4.228  0.2453 -0.2497  0.1001
11772W        W29976  13.345   3.094  12.249  0.3686 -0.1427  0.2081
11773W        W29977   4.812  12.382   0.430 -0.1060 -0.2072  0.0033
11774W        W29978  16.352  18.106   0.933  0.0632 -0.1968  0.0545
11775W        W29979  17.743  18.603   3.040  0.1092 -0.0070 -0.1081
11776W        W29980   6.544   7.849   3.451 -0.0023 -0.1027  0.2107
11777W        W29981  17.285  13.120  13.567  0.2045  0.1179  0.0915
11778W        W29982  15.168  17.437  12.721 -0.3705  0.1080  0.0113
11779W        W29983   8.636   9.698   1.621  0.1585 -0.1047 -0.0043
11780W        W29984   7.696   7.729  12.745 -0.0886 -0.3738  0.0693
11781W        W29985  18.097   3.001  12.290  0.1003  0.2584  0.3895
11782W        W29986   4.063   4.872  14.716 -0.1751  0.2593 -0.1487
11783W        W29987   3.446  16.427   0.502 -0.3347  0.2864 -0.1580
11784W        W29988   5.936  15.709   0.494  0.0357 -0.2979  0.2152
11785W        W29989   5.869  16.333  15.267  0.0209  0.0837  0.0915
11786W        W29990   8.872   6.418  13.194 -0.2439  0.1485 -0.2019
11787W        W29991  16.727  18.104  13.681  0.0068 -0.1210 -0.1336
11788W        W29992   4.400  11.601  15.282  0.1554 -0.0874 -0.0506
11789W        W29993  16.232   8.833  11.089 -0.0521  0.1896 -0.0540
11790W        W29994   2.631   2.715   3.120 -0.1697 -0.1519  0.1729
11791W        W29995  14.904  15.981   4.003 -0.1280 -0.0562  0.0441
11792W        W29996  11.216   7.785  15.061  0.2155  0.0234  0.1427
11793W        W29997   6.539  17.885   4.495 -0.1687 -0.0044 -0.1459
11794W        W29998  14.947  16.893   4.273  0.1581  0.2064  0.1176
11795W        W29999   1.442  17.516   3.576  0.0299  0.1743 -0.0603
11796W        W30000  12.166  10.367   3.361 -0.1215  0.0773 -0.0962
11797W        W30001  13.367  18.058  14.239 -0.1768 -0.2076 -0.1942
11798W        W30002   7.451  12.693  13.595 -0.1508  0.3914 -0.1632
11799W        W30003   3.814   1.543  13.235  0.1659 -0.2828 -0.2066
11800W        W30004  17.203  17.800  13.592  0.1119 -0.2826 -0.1665
11801W        W30005   4.495  17.751  10.200  0.2197  0.0225 -0.3659
11802W        W30006   8.822   4.949   0.282 -0.1245  0.0087 -0.1144
11803W        W30007  14.935  17.401   0.727  0.2098  0.0358 -0.0459
11804W        W30008  10.616  17.170   2.315 -0.1477 -0.0119  0.0704
11805W        W30009   3.987  14.783   2.420  0.0462  0.2589  0.1249
11806W        W30010  11.141   5.471  14.717 -0.1110  0.0163  0.0654
11807W        W30011   8.203   2.589  14.787 -0.3228  0.0620 -0.0353
11808W        W30012   7.833  12.309  14.385  0.1307 -0.2177  0.2303
11809W        W30013   9.633   5.801  13.843  0.0639  0.0978  0.0042
11810W        W30014   2.838   2.171   3.482 -0.0808  0.0713  0.3025
11811W        W30015   1.485  15.392  15.102 -0.0325 -0.1464  0.1428
11812W        W30016  10.322  13.531  10.037  0.1679  0.0112  0.1295
11813W        W30017   4.074   9.660   3.994  0.0181 -0.0269  0.1198
11814W        W30018  15.494   2.664  15.451 -0.1362  0.1375  0.0534
11815W        W30019  10.463   4.640  12.616 -0.1138  0.1663 -0.2357
11816W        W30020  10.250   6.996   4.658 -0.3420  0.0829 -0.0810
11817W        W30021  14.785  12.867   4.691  0.0235 -0.2315  0.0533
11818W        W30022   6.595   4.478  14.989 -0.0848 -0.1697  0.1138
11819W        W30023   8.714   1.917  15.444 -0.3051  0.2374 -0.0129
11820W        W30024  16.844   8.115  15.440  0.1258 -0.0557 -0.1507
11821W        W30025  10.549   5.011  13.573 -0.1828 -0.2593  0.2350
11822W        W30026   8.830   1.853  14.367 -0.3885 -0.2384  0.0290
11823W        W30027  14.646   7.835   4.248  0.2263  0.1393  0.1553
11824W        W30028   7.614  16.157   2.845  0.0234  0.4010 -0.3956
11825W        W30029   6.821  10.927   0.040  0.3657  0.0598 -0.1504
11826W        W30030  14.369   9.725   0.034  0.0120 -0.2153  0.0174
11827W        W30031   4.047   2.839  13.350 -0.0026 -0.0728  0.0931
11828W        W30032  16.119   2.391  14.252  0.3406 -0.3434  0.0165
11829W        W30033   8.492  15.947  11.227  0.0046  0.0815 -0.0674
11830W        W30034   2.978   9.167  10.904  0.3673 -0.0820 -0.1602
11831W        W30035  16.231  13.575   3.634 -0.2594  0.0853 -0.0578
11832W        W30036  15.728  17.493   0.287 -0.1608  0.2179  0.1125
11833W        W30037   6.262   4.601  12.667 -0.2077  0.3598 -0.0798
11834W        W30038   2.976  11.795  11.530 -0.1085 -0.1721 -0.2387
11835W        W30039  16.434  11.685  14.321 -0.0836  0.1669  0.1250
11836W        W30040   2.098   8.915  13.473 -0.3338  0.0567  0.0237
11837W        W30041   1.216  11.548   4.742 -0.3467  0.0924 -0.3444
11838W        W30042   3.823  15.486   2.042 -0.0914 -0.2097  0.0743
11839W        W30043   6.405  10.406  14.103 -0.3835  0.0184  0.1473
11840W        W30044  13.975   5.358   0.036 -0.2641  0.0678 -0.1650
11841W        W30045  17.586   1.391  12.356 -0.0284  0.2776  0.2026
11842W        W30046   0.312   2.425   4.715  0.2058  0.1731  0.1817
11843W        W30047   7.117   5.306  14.804  0.3290 -0.1046 -0.1959
11844W        W30048  14.639   6.233   2.311 -0.2606 -0.2876 -0.0785
11845W        W30049   4.953   3.415  13.521  0.3044  0.2855 -0.0310
11846W        W30050   7.745   5.534  12.325 -0.2035 -0.0638  0.2570
11847W        W30051   1.237   1.391   4.896  0.2062 -0.1128 -0.0835
11848W        W30052   8.300   2.984   2.681 -0.1909  0.1121  0.0089
11849W        W30053   9.316   0.422   4.365 -0.3188  0.3448 -0.1103
11850W        W30054  10.447  11.038  12.601 -0.1188  0.0385 -0.2092
11851W        W30055   4.631  17.361  12.409 -0.0110  0.3675 -0.0537
11852W        W30056   1.283  11.721  11.126 -0.0839 -0.4004 -0.0371
11853W        W30057   0.953   3.489   3.346  0.0113 -0.1540  0.1524
11854W        W30058   8.792  12.934  11.946  0.3565  0.0658  0.1208
11855W        W30059   4.559  18.024   1.129 -0.3135  0.1539  0.0746
11856W        W30060  12.992  16.508  14.764 -0.0946 -0.0346  0.3689
11857W        W30061   8.666  18.090   2.790  0.1226 -0.1954 -0.0322
11858W        W30062   9.611  15.947   2.184  0.0325 -0.2527 -0.1472
11859W        W30063  14.343  10.444   2.241 -0.0943 -0.1110 -0.0929
11860W        W30064   1.871   8.380  15.191 -0.0946  0.1444  0.2375
11861W        W30065  15.628   4.986   3.026  0.1766 -0.0356  0.0966
11862W        W30066   2.880  16.226  12.615  0.0686 -0.0376 -0.0174
11863W        W30067  11.348  13.543  13.672 -0.0526  0.0088  0.1170
11864W        W30068  15.373  12.096  14.245 -0.1082  0.1182 -0.0282
11865W        W30069   1.712  18.187   3.233 -0.2648  0.2367 -0.1720
11866W        W30070  10.549  10.797  12.104  0.0073  0.3758  0.2025
11867W        W30071  15.154  16.753  11.612 -0.0842 -0.1664  0.2564
11868W        W30072  10.636  13.905   1.496 -0.0207  0.2005  0.1862
11869W        W30073   1.007   6.291  14.386  0.0034 -0.1495  0.1731
11870W        W30074  14.957  11.733   4.517  0.1264 -0.0513 -0.4997
11871W        W30075   1.736  15.349   2.516 -0.1848  0.1075 -0.0329
11872W        W30076   6.499   4.148  13.010 -0.2247 -0.0055  0.1060
11873W        W30077   7.147   3.434  12.816  0.2158 -0.2413  0.2933
11874W        W30078  10.292   1.085   0.991  0.2490 -0.2494  0.1083
11875W        W30079  13.672   7.163   3.304 -0.2293 -0.2959  0.4073
11876W        W30080   4.758   0.252  14.566 -0.2988 -0.1509  0.1289
11877W        W30081   5.211  13.927   1.842 -0.1004  0.2191  0.0518
11878W        W30082  14.706  17.542  11.983 -0.1883  0.2270  0.2800
11879W        W30083  11.142   1.882  10.165 -0.2302  0.1758  0.2159
11880W        W30084   0.979  15.578   4.363  0.0383  0.0002 -0.0053
11881W        W30085  13.123   9.471   1.480  0.3676 -0.1318  0.1273
11882W        W30086   7.064  18.502   1.409  0.0439 -0.1440 -0.0056
11883W        W30087   0.820  17.554  11.857 -0.1674 -0.0859  0.2198
11884W        W30088   9.350   0.465  13.585  0.4590 -0.1269 -0.1045
11885W        W30089  16.724   6.361  14.516  0.2877 -0.0578 -0.1727
11886W        W30090   6.755  11.944  15.362  0.2359 -0.1405  0.1732
11887W        W30091   9.201  12.239  13.808  0.2164 -0.1354 -0.1108
11888W        W30092  15.693   5.587   4.498  0.0262 -0.2355  0.1894
11889W        W30093  17.419  16.690   0.658 -0.2520  0.1357  0.3523
11890W        W30094  12.249   0.945  11.766 -0.1891 -0.1248  0.1359
11891W        W30095   2.356  14.845   3.249 -0.1426  0.0267 -0.0443
11892W        W30096   2.850  14.426  11.625  0.2183 -0.0896 -0.0046
11893W        W30097  16.746   9.682   4.148  0.0778 -0.1208  0.0930
11894W        W30098   2.956  12.267  14.955  0.0315 -0.1260 -0.1437
11895W        W30099  11.392   1.954  11.881  0.1053  0.0444 -0.0143
11896W        W30100  14.434   7.859   3.545  0.0665  0.1301  0.0578
11897W        W30101   2.889   3.779   3.202  0.1578  0.0425 -0.0930
11898W        W30102  16.463  17.483  12.992 -0.1174  0.0484 -0.0522
11899W        W30103   5.680   9.462   4.641 -0.0873  0.0346  0.1241
11900W        W30104   9.888   8.042   3.298  0.0983 -0.0746 -0.0416
11901W        W30105   1.836   3.249   4.002 -0.0176 -0.1275 -0.0880
11902W        W30106   6.561   6.198   1.852 -0.2691 -0.0876 -0.1171
11903W        W30107   3.238  10.896  14.048  0.2112  0.1485 -0.3145
11904W        W30108  10.996   4.094   3.336 -0.0025 -0.1703 -0.2936
11905W        W30109  10.630  10.888  15.306 -0.0761 -0.1023 -0.0048
11906W        W30110  12.237   3.047   3.261  0.1151 -0.0570 -0.0099
11907W        W30111  13.301  11.998  13.906  0.2761 -0.2605 -0.0016
11908W        W30112  15.279   7.437  15.016  0.2051  0.1186 -0.2031
11909W        W30113   6.166  18.564   0.463  0.0799 -0.2059 -0.1531
11910W        W30114   1.540  10.576   1.685 -0.0590  0.1214  0.0702
11911W        W30115  16.289   2.663   2.305 -0.0674  0.0798 -0.2402
11912W        W30116  18.270   6.829   4.147  0.0024  0.1329 -0.1721
11913W        W30117  10.007   6.980   3.636  0.1658  0.1835 -0.0502
11914W        W30118  11.414  15.045  10.800 -0.0958 -0.0338  0.1563
11915W        W30119   0.582  16.557   0.848  0.1994  0.1860 -0.0707
11916W        W30120  13.137   8.553  13.963  0.0670 -0.0368 -0.1733
11917W        W30121  12.370   4.356   4.527 -0.1869  0.0302  0.1084
11918W        W30122   4.970  15.533   0.047 -0.0177 -0.1839 -0.1248
11919W        W30123   6.053   1.591  10.713 -0.3264 -0.0498 -0.0297
11920W        W30124   1.060  17.749   2.551  0.0170 -0.1345 -0.0363
11921W        W30125  11.097   9.294   4.169 -0.3617  0.0112  0.2391
11922W        W30126  11.398  12.116   0.202 -0.2327  0.2585  0.3436
11923W        W30127  15.669  10.652   3.263  0.0330  0.0189 -0.0319
11924W        W30128   7.881   2.242  10.888  0.0336 -0.1242 -0.0083
11925W        W30129   9.232   1.157  12.783 -0.0138 -0.0599 -0.0484
11926W        W30130   0.516   7.018   0.926 -0.1860 -0.3238  0.0419
11927W        W30131  18.432   2.503   2.121  0.4777 -0.0040  0.0834
11928W        W30132   6.811   9.199   0.478 -0.2494  0.1316 -0.1407
11929W        W30133  16.471  14.353  12.278 -0.2197  0.0860  0.0809
11930W        W30134  11.799  18.360  12.625 -0.1422  0.2197  0.2172
11931W        W30135  13.041  10.649  14.782 -0.1492 -0.0885 -0.0389
11932W        W30136  13.175  12.023   3.833 -0.2305 -0.0413 -0.0889
11933W        W30137   7.292  14.803   0.555 -0.1519  0.0003  0.0919
11934W        W30138   2.835   3.698   4.152  0.1350  0.3857  0.2980
11935W        W30139  11.663  17.324  15.239  0.1467 -0.2171 -0.0793
11936W        W30140   5.136  12.809   0.105  0.1243 -0.3443  0.0092
11937W        W30141  14.071   8.190  12.817  0.0490 -0.3566 -0.1173
11938W        W30142   3.641  17.506  10.755  0.1598 -0.0410 -0.0883
11939W        W30143  16.052  13.185   0.482  0.0183 -0.1366  0.0834
11940W        W30144  12.399  16.376   2.158 -0.0989 -0.0243  0.1187
11941W        W30145  15.570   7.825  13.157  0.2893  0.4147  0.1818
11942W        W30146  16.240   2.708   1.285  0.0954 -0.2956 -0.1435
11943W        W30147  11.497   7.640  10.732  0.1985  0.0022 -0.0109
11944W        W30148  13.799  17.040   1.954 -0.0991 -0.2467  0.0368
11945W        W30149   3.158   6.900   3.845 -0.3957 -0.0325  0.1831
11946W        W30150   7.488  18.586   1.880  0.0005  0.2982  0.1912
11947W        W30151   6.681  14.850   4.104 -0.3788  0.0470 -0.2246
11948W        W30152  15.653   5.281   0.770  0.3654 -0.5607  0.1976
11949W        W30153   3.689  15.013  14.822 -0.0837 -0.1537 -0.2681
11950W        W30154   1.800  11.724  12.428  0.0157 -0.0787  0.5232
11951W        W30155   4.523   3.145   4.442 -0.1085  0.1539 -0.0836
11952W        W30156  15.642   1.540   4.852  0.0982 -0.1524  0.1246
11953W        W30157   3.261   1.325  10.142  0.2915  0.0198 -0.3864
11954W        W30158  16.552  18.392   2.058 -0.2515  0.2119 -0.0183
11955W        W30159  12.721   8.049   0.527 -0.0012 -0.1854  0.4253
11956W        W30160  11.185   2.057  15.237 -0.2703 -0.3107  0.0720
11957W        W30161  14.174  12.882  14.815 -0.2009  0.1671 -0.3052
11958W        W30162   9.400   5.307  12.117  0.0075 -0.2974 -0.3748
11959W        W30163   0.698   3.601   1.761  0.2036  0.0102 -0.3110
11960W        W30164  13.437  15.836  15.194 -0.2119  0.3039  0.4570
11961W        W30165  11.468   2.916  10.905 -0.1298  0.1855  0.1871
11962W        W30166   0.661  17.866  10.496  0.0167  0.3170 -0.0618
11963W        W30167  17.866   3.479  14.319  0.1958  0.2555  0.0196
11964W        W30168  17.137   7.632  15.316 -0.3372 -0.0465 -0.1005
11965W        W30169  10.771   8.997   5.345 -0.0073  0.1401 -0.3123
11966W        W30170   4.440   0.979  14.130 -0.0655 -0.0804  0.1438
11967W        W30171  16.741   6.811   1.237 -0.2409  0.3592 -0.1347
11968W        W30172  13.507   0.555   0.633 -0.2055 -0.3467 -0.2245
11969W        W30173  15.622   5.652  13.931 -0.0477  0.1797 -0.2244
11970W        W30174   5.354  13.038   4.151  0.2476 -0.0365 -0.0999
11971W        W30175  18.213   5.924  14.611 -0.4705  0.1629  0.0942
11972W        W30176   8.333  14.709   2.100  0.1863  0.5382  0.2217
11973W        W30177   0.573   7.005   0.407 -0.2051  0.1432 -0.1900
11974W        W30178   1.659   5.944  10.781 -0.1823  0.0077 -0.2374
11975W        W30179   0.722  16.034   4.393  0.1709 -0.0205  0.2690
11976W        W30180  16.798   7.337   4.992 -0.1089 -0.3030  0.1562
11977W        W30181  11.938  14.961  13.893  0.0575 -0.2164 -0.0820
11978W        W30182  13.504   3.117   4.778  0.0437 -0.1686  0.0176
11979W        W30183   0.323   2.391  11.533  0.1169 -0.0544  0.0767
11980W        W30184  10.807  16.187  14.613 -0.0617 -0.0581 -0.1870
11981W        W30185   6.835  17.654  14.831 -0.1434  0.4089 -0.0420
11982W        W30186   1.265  14.748   4.130  0.1554  0.4933  0.1470
11983W        W30187   6.887   5.272   3.621 -0.1082  0.2242  0.0930
11984W        W30188  14.746   2.185  11.722 -0.3222  0.1350  0.0384
11985W        W30189  10.997  17.441  11.962 -0.1062  0.0041  0.2978
11986W        W30190   5.109  10.439   1.634 -0.1181 -0.0517 -0.1617
11987W        W30191  12.179   0.993   4.375 -0.7022 -0.1623 -0.0137
11988W        W30192   1.952   0.055   2.206 -0.2047 -0.0618 -0.0009
11989W        W30193  10.815  10.942   0.792 -0.1408 -0.0703 -0.0060
11990W        W30194   8.619   9.183  11.369 -0.0371 -0.0988  0.4012
11991W        W30195   8.181  13.083   4.995  0.0114  0.0297  0.2952
11992W        W30196  13.348  10.229   4.652  0.1546  0.1796 -0.3299
11993W        W30197   0.540  13.285   2.168 -0.2365  0.1354  0.1120
11994W        W30198   1.427   5.206   1.294 -0.1279 -0.4167 -0.1691
11995W        W30199  13.683  10.334   0.867 -0.0667  0.2881 -0.4292
11996W        W30200  18.383   1.940   2.106  0.1403 -0.1216 -0.0178
11997W        W30201   1.970  11.776  14.961  0.3384 -0.0752 -0.2121
11998W        W30202  11.359   7.209   3.880 -0.1900  0.2645  0.1719
11999W        W30203  15.808  13.858  14.385 -0.1296 -0.2404  0.0318
12000W        W30204   2.661  18.555   3.397  0.0699  0.2728  0.0855
12001W        W30205   0.358  10.995   0.649 -0.3422  0.1780  0.1161
12002W        W30206  17.561   9.642  12.840  0.2395 -0.0594 -0.0043
12003W        W30207  14.409  18.416  10.975  0.0842  0.1122 -0.2496
12004W        W30208   4.215   1.724  10.533 -0.4684 -0.3280  0.1245
12005W        W30209  14.157   7.587  13.979 -0.0302 -0.0084 -0.1204
12006W        W30210   8.476  12.551  10.956  0.0607  0.1088 -0.1740
12007W        W30211   0.799  13.840   4.083 -0.3298  0.2338 -0.0658
12008W        W30212  13.800  15.908  14.328 -0.1019 -0.3265  0.2845
12009W        W30213  16.373   6.294   2.572  0.1655  0.1353 -0.0212
12010W        W30214   4.459   9.880   2.446 -0.0184 -0.4631  0.1067
12011W        W30215  13.531   9.873  14.136 -0.2418 -0.0173  0.1137
12012W        W30216   0.351   9.181  15.193 -0.1360 -0.0363 -0.2105
12013W        W30217  14.056  10.827  12.086  0.0062  0.1416  0.0263
12014W        W30218  18.686  12.659   3.898 -0.2631 -0.1993  0.1623
12015W        W30219  18.590  13.270  12.532 -0.1220 -0.0810  0.2933
12016W        W30220   9.166   6.504   3.953 -0.2264  0.3107  0.3736
12017W        W30221   1.067   4.749  14.642  0.1084  0.0859 -0.0420
12018W        W30222  10.179  16.733  13.368 -0.2314  0.1569 -0.1003
12019W        W30223   5.580   8.311   2.174  0.3440 -0.0101  0.0696
12020W        W30224   8.321  12.020  11.249  0.2462  0.2060  0.1557
12021W        W30225  14.320   0.701   3.147  0.0005  0.0732 -0.0677
12022W        W30226   5.171  14.353   1.636  0.2231 -0.2423 -0.0101
12023W        W30227  12.600   3.502  11.159  0.0702 -0.0499 -0.1940
12024W        W30228   7.683   0.918   4.045  0.2301 -0.0183 -0.1029
12025W        W30229   2.781  17.577  14.424  0.2091  0.1110 -0.3258
12026W        W30230  14.521   7.972  12.977  0.0936  0.1273  0.0570
12027W        W30231   0.788   1.444  13.851 -0.0545 -0.0732 -0.2624
12028W        W30232  18.278   5.865  13.634  0.1048  0.0768 -0.0239
12029W        W30233   0.025  18.229  13.007  0.0189 -0.1078 -0.1743
12030W        W30234   2.666   3.999   4.529 -0.2927  0.0242  0.2849
12031W        W30235  16.617   6.763  12.567 -0.1186 -0.1686 -0.2282
12032W        W30236   8.146   0.979   4.328  0.1952  0.1033  0.1510
12033W        W30237  13.041  14.940  13.191 -0.0239 -0.1727  0.0461
12034W        W30238  10.153   6.512   1.435 -0.0123  0.1854 -0.2277
12035W        W30239  12.047  11.879  15.273 -0.1237 -0.0791 -0.3974
12036W        W30240   6.003   4.243   2.514 -0.0589 -0.5980 -0.0147
12037W        W30241  10.688   5.846   4.910 -0.0312  0.2756  0.1928
12038W        W30242   5.646  15.761  12.808 -0.0681  0.1776 -0.0795
12039W        W30243  16.033  12.787   3.964 -0.3522  0.1283 -0.0758
12040W        W30244   2.410  14.368  14.242 -0.1420  0.1257  0.0703
12041W        W30245  13.064  12.763  12.518 -0.3683 -0.0573 -0.0058
12042W        W30246   7.557   4.869  15.395 -0.2717 -0.0470  0.2277
12043W        W30247  12.871  11.050  13.849 -0.0107 -0.0425  0.2533
12044W        W30248   2.234  13.452   3.101  0.2891  0.1204  0.1852
12045W        W30249   1.232  12.929  15.026  0.0253 -0.1732 -0.0453
12046W        W30250   3.470   5.004  13.349 -0.1073 -0.1377  0.1194
12047W        W30251  15.508  12.742   3.798  0.1867  0.0465 -0.0241
12048W        W30252  15.437  16.803   3.197 -0.3487 -0.4764  0.2577
12049W        W30253  11.259   4.506  14.041 -0.0266  0.0525  0.1620
12050W        W30254  14.262  11.943   0.651 -0.0931  0.1190 -0.1041
12051W        W30255  13.540   6.208   3.697 -0.1028  0.2141 -0.1988
12052W        W30256  10.143   1.233   1.428 -0.0458  0.0809 -0.1488
12053W        W30257   0.479   1.474   2.851 -0.1525 -0.3191  0.0395
12054W        W30258   2.924  11.421  11.142 -0.0086  0.2664 -0.0435
12055W        W30259   6.140  16.124   2.408 -0.5256 -0.1942 -0.1134
12056W        W30260   4.966   7.116  13.288 -0.1741  0.0509 -0.1698
12057W        W30261   6.218   6.913   1.319 -0.3033  0.1811  0.1737
12058W        W30262  14.528   3.413  12.577  0.3030 -0.0732  0.1162
12059W        W30263  16.921  15.525   3.656 -0.2410  0.0639  0.4628
12060W        W30264   8.361  11.222  13.368 -0.0788 -0.2324  0.1450
12061W        W30265   8.712   7.411   2.371 -0.2102 -0.1874 -0.2028
12062W        W30266   4.075   7.713  11.819  0.0864 -0.0441  0.1140
12063W        W30267   6.768  10.990   3.550  0.0278  0.0052 -0.0720
12064W        W30268   3.334   7.660  11.914  0.1800  0.2965  0.4708
12065W        W30269  13.412  17.451  13.116  0.1535 -0.3211 -0.1344
12066W        W30270  15.855   5.177  14.136  0.1940  0.1422  0.2002
12067W        W30271  14.567   5.143  11.303 -0.0382 -0.4265  0.1054
12068W        W30272  10.206  17.476   2.536 -0.0451 -0.2399 -0.1766
12069W        W30273   2.045   9.197   0.226  0.0251  0.0429 -0.2388
12070W        W30274   7.919   0.340   4.009  0.2561 -0.1520 -0.1672
12071W        W30275   7.688   4.401  14.647  0.1353 -0.3536 -0.0617
12072W        W30276   1.516   2.767  11.400  0.3109 -0.0297  0.2143
12073W        W30277   9.199  17.842  14.876  0.3013  0.0183 -0.0226
12074W        W30278  18.571   9.340  12.431 -0.3033  0.0362 -0.2256
12075W        W30279   9.617   3.142  14.799 -0.0534 -0.2420 -0.0011
12076W        W30280   3.626  15.050   2.143  0.1970 -0.2125 -0.2982
12077W        W30281   5.932  11.871   3.930 -0.0360 -0.0379 -0.3478
12078W        W30282  15.204   7.034   1.727  0.2187  0.0710 -0.0938
12079W        W30283  13.901   9.113  12.452 -0.2867  0.0990  0.2669
12080W        W30284  13.298   1.479   3.625  0.1285 -0.0938  0.0138
12081W        W30285  10.506  16.123   2.039  0.5478 -0.3533 -0.1773
12082W        W30286  11.409  13.878  11.052 -0.1953 -0.4837 -0.1276
12083W        W30287   2.118  12.728  12.865 -0.0211  0.0484 -0.5272
12084W        W30288   7.285   2.839   1.103 -0.0135 -0.0276 -0.4665
12085W        W30289   4.437  13.112   0.960 -0.2485  0.2681 -0.1187
12086W        W30290  13.536   5.470   2.582  0.2021  0.2416  0.0104
12087W        W30291  12.524   4.097  11.895  0.0446  0.2106 -0.1836
12088W        W30292   0.543   6.402   0.216  0.0584  0.1817  0.2175
12089W        W30293  17.024  15.676   5.669  0.0627  0.0260  0.0432
12090W        W30294   7.477  11.566  12.303 -0.0444  0.4037 -0.0820
12091W        W30295   1.186  16.411   1.923 -0.3027  0.0566  0.2184
12092W        W30296  10.784  14.875   0.829  0.0572 -0.0365 -0.0168
12093W        W30297  16.372  16.202   1.968  0.1188  0.0116 -0.1585
12094W        W30298   7.439  10.427   2.697  0.1953  0.1368 -0.0428
12095W        W30299   3.043  17.372   3.941 -0.0875  0.1550 -0.0682
12096W        W30300   9.593  16.780  11.997 -0.1435  0.3072 -0.0878
12097W        W30301  16.980  11.548  12.240  0.4793 -0.0587 -0.1593
12098W        W30302   4.749   4.723   3.268 -0.3254 -0.1799 -0.0868
12099W        W30303  10.002  16.764  15.101  0.0569 -0.1435  0.0605
12100W        W30304   6.676   5.891   0.650  0.1012 -0.0056 -0.0650
12101W        W30305   3.646   7.199   2.822 -0.2891 -0.1904 -0.3900
12102W        W30306  12.832  13.382  11.647 -0.2665  0.1892 -0.1630
12103W        W30307   9.180   3.525   3.417 -0.0440 -0.0625 -0.1132
12104W        W30308  10.764   9.582   3.016  0.1445  0.0728  0.1940
12105W        W30309   7.266  15.877   4.521  0.0987  0.2205  0.2148
12106W        W30310  14.926   6.169  14.487 -0.0368 -0.1080 -0.1885
12107W        W30311   9.750   3.433   1.188 -0.0051 -0.3348 -0.0859
12108W        W30312  13.373   7.986   3.826 -0.1582 -0.1263 -0.0862
12109W        W30313  12.682   6.261   1.661  0.3125 -0.1633 -0.1412
12110W        W30314   0.195  15.724  12.763 -0.1652  0.2486 -0.1990
12111W        W30315  13.458   4.226   4.295  0.2389 -0.3130  0.1394
12112W        W30316  12.583  12.805  11.177  0.0543  0.1445 -0.1499
12113W        W30317  17.317   9.629   5.178 -0.0798  0.2269 -0.1754
12114W        W30318  14.087   3.424  14.295 -0.1489 -0.6148 -0.0123
12115W        W30319  14.792   9.082  15.435  0.0349 -0.0022  0.2071
12116W        W30320  11.601   3.395  10.866  0.1768  0.1655  0.0498
12117W        W30321  15.058  12.181   3.128  0.0820 -0.2176  0.4221
12118W        W30322   6.219   8.978   1.130 -0.1458  0.2568  0.2167
12119W        W30323  15.983   1.796   5.626  0.1576  0.1402 -0.0843
12120W        W30324   3.697  17.539  14.093 -0.0481  0.3638 -0.0406
12121W        W30325   1.251   9.291  10.694 -0.1138 -0.0619  0.1012
12122W        W30326   5.657  12.093   1.744 -0.1186  0.2782 -0.0877
12123W        W30327   7.792   3.688  12.262 -0.1991  0.2887  0.3313
12124W        W30328   9.997  16.203   0.647 -0.2455 -0.1738  0.3328
12125W        W30329  17.340  11.835  12.593 -0.0548 -0.1469 -0.2478
12126W        W30330  12.318   2.284  12.242 -0.2828  0.2183 -0.1561
12127W        W30331  18.625  18.501   0.761 -0.1225 -0.1257  0.1994
12128W        W30332  15.248   9.836   2.046  0.1547 -0.2495  0.1483
12129W        W30333   7.960   4.706  15.010 -0.1585  0.1304  0.0057
12130W        W30334  15.456  17.013   3.640  0.1174 -0.0143  0.0210
12131W        W30335   3.747  16.299  11.911  0.0375  0.1642  0.1150
12132W        W30336   0.281   8.972  10.897 -0.0888  0.0021  0.2031
12133W        W30337  11.844   1.039   1.268 -0.1376  0.2309  0.0031
12134W        W30338  14.837  12.946   1.525  0.0474 -0.0001 -0.3813
12135W        W30339  15.208   2.221   1.387  0.0481  0.0397 -0.1578
12136W        W30340  10.614   6.108  10.150 -0.0753  0.1249 -0.3414
12137W        W30341   9.794   8.990   0.633  0.0920  0.0351  0.0782
12138W        W30342  18.305  15.772   3.020  0.1827  0.0036 -0.1285
12139W        W30343   5.150   0.188   1.253 -0.1683  0.1062 -0.0437
12140W        W30344   2.015  11.138  12.352 -0.1965 -0.2467 -0.1311
12141W        W30345  15.513  17.875  13.646  0.1600 -0.0102 -0.0497
12142W        W30346   6.846  17.415   1.922  0.4414 -0.2584 -0.5485
12143W        W30347  17.578   7.742   0.632 -0.0769 -0.1606  0.0203
12144W        W30348  13.685   0.459   3.774  0.0652  0.4616 -0.0317
12145W        W30349  18.354   7.265  12.150 -0.1012 -0.1683  0.0964
12146W        W30350   6.556  17.029   4.953  0.2132 -0.0666 -0.3948
12147W        W30351   8.129  11.159   0.811  0.1147 -0.1116 -0.0489
12148W        W30352  14.629  12.515   3.364 -0.0297 -0.1122 -0.0126
12149W        W30353  11.224   1.379   2.384 -0.0489  0.2563  0.1080
12150W        W30354  13.289  15.951   2.422  0.0035  0.3268 -0.1604
12151W        W30355   8.220  14.709  14.931  0.2629 -0.1679  0.2449
12152W        W30356   7.687  16.341   3.547 -0.3895 -0.1162  0.3168
12153W        W30357  18.658  14.990  13.093 -0.0653  0.1762  0.1171
12154W        W30358   9.826   5.725  14.851 -0.2575  0.0759 -0.2191
12155W        W30359  18.054  12.477  14.507 -0.1099  0.0548  0.0566
12156W        W30360   3.539  11.894  13.131 -0.4239 -0.0583 -0.0947
12157W        W30361   5.664  11.145   5.500 -0.4023 -0.2385  0.1824
12158W        W30362   3.223   1.754   2.146  0.0860 -0.0325  0.0984
12159W        W30363   9.643  15.270  11.755  0.0307  0.1201 -0.0959
12160W        W30364  16.055   0.420  12.645 -0.0893 -0.2035 -0.0355
12161W        W30365  16.065   3.341   3.290 -0.0973 -0.3580 -0.1036
12162W        W30366  16.793  16.334  15.410  0.2956  0.3007  0.1311
12163W        W30367   6.269  14.517   4.203 -0.1691  0.0867 -0.0722
12164W        W30368   9.994   5.776  11.148 -0.3282 -0.0520  0.2430
12165W        W30369   5.534  10.794   1.517  0.1987 -0.3239 -0.2534
12166W        W30370   7.030  16.885  12.814 -0.1056 -0.2490 -0.1499
12167W        W30371  13.026  14.662   3.267 -0.1238 -0.1206 -0.0217
12168W        W30372  14.235  17.045   2.817  0.2142  0.1353  0.0534
12169W        W30373  11.213   0.772  10.752  0.0281  0.0076 -0.3586
12170W        W30374   0.906  15.598   1.856 -0.0114  0.0823  0.1950
12171W        W30375  10.789   4.985  14.005  0.0444 -0.0734  0.0187
12172W        W30376  12.831  15.978  14.558 -0.1853  0.0432  0.1370
12173W        W30377   4.987  10.055  14.631  0.0521 -0.0052 -0.1785
12174W        W30378  12.229   6.567  14.167  0.2345 -0.0203 -0.1461
12175W        W30379   7.968   8.428  10.856  0.1669  0.2455  0.0958
12176W        W30380   6.730   2.945   0.314  0.0432  0.0215 -0.0155
12177W        W30381   8.780  10.858   3.693  0.2393  0.2941  0.0161
12178W        W30382  17.740  17.398  14.307 -0.1079  0.0600 -0.3642
12179W        W30383  10.313   5.737  15.150 -0.2615 -0.2834  0.2749
12180W        W30384   2.920  18.048  15.159  0.1425  0.0166  0.1037
12181W        W30385   7.137   2.951  11.543 -0.0071 -0.0743 -0.1155
12182W        W30386   0.263   8.037  13.558  0.1207  0.1921 -0.1357
12183W        W30387   7.300   0.265  10.847  0.1352  0.3449  0.2120
12184W        W30388  12.456  17.859   3.464  0.0191  0.2083  0.0528
12185W        W30389  12.009   5.502  11.224 -0.1218 -0.0956 -0.2124
12186W        W30390   9.999  17.510   4.044 -0.2390  0.0895 -0.3410
12187W        W30391  10.126   0.597   5.611 -0.1601  0.2050  0.3344
12188W        W30392  11.460   6.404   2.806 -0.0143  0.3483  0.1064
12189W        W30393   0.478  13.472   2.602 -0.2858 -0.0494 -0.0364
12190W        W30394   7.349  12.606   2.094  0.1142  0.0088 -0.0249
12191W        W30395  10.378   7.183  11.147  0.0290 -0.0827  0.0969
12192W        W30396   8.546   6.539  11.307  0.0375 -0.0980  0.0826
12193W        W30397   1.937   9.396   1.335  0.0951 -0.3651 -0.3784
12194W        W30398  15.283  15.569   1.836  0.1152  0.0490  0.1099
12195W        W30399  14.436  11.203   4.125 -0.1315 -0.0784 -0.4067
12196W        W30400  11.459   5.665   3.908 -0.1579 -0.1721 -0.0693
12197W        W30401  13.925   9.341   2.585  0.2793  0.5186  0.0232
12198W        W30402  16.523  11.666  12.058  0.3276  0.0902  0.0855
12199W        W30403  13.287   2.087   0.369  0.2332  0.1103  0.0231
12200W        W30404  11.622  11.818   1.582  0.0335  0.2128 -0.0378
12201W        W30405  17.937   0.259   0.215  0.1485 -0.0877  0.0417
12202W        W30406  12.429  14.494  12.338  0.1594 -0.1334  0.0941
12203W        W30407  11.097  18.297   2.675  0.2056  0.3708  0.3209
12204W        W30408   3.687   7.733  12.278  0.1617 -0.1270  0.1095
12205W        W30409   6.289  14.562   1.955  0.2085  0.2378  0.1455
12206W        W30410   5.870   5.567   2.102  0.0512  0.2318  0.4361
12207W        W30411  11.688   9.617   3.470  0.2702 -0.2296 -0.1199
12208W        W30412  11.537   1.789   3.847  0.4250  0.1370  0.0341
12209W        W30413   9.305  10.477   5.562  0.0438  0.1662  0.0959
12210W        W30414  12.157  14.196   0.679 -0.2397  0.0403  0.0289
12211W        W30415   1.636  18.228  13.974 -0.1881 -0.2014 -0.0909
12212W        W30416   6.119  10.686   4.044 -0.3017  0.0654 -0.0320
12213W        W30417   3.013  13.603  13.391 -0.3058  0.1432  0.4261
12214W        W30418  17.280   0.143   3.196 -0.0539  0.2139  0.2769
12215W        W30419   8.607   1.025  14.465 -0.1852  0.0495  0.0206
12216W        W30420   1.139  15.819  15.142 -0.1140 -0.2000 -0.2524
12217W        W30421   6.799   0.104   3.581 -0.1598 -0.2156  0.0505
12218W        W30422  15.924   1.411  15.028  0.0210 -0.0633  0.1130
12219W        W30423  16.736   2.818   4.564  0.0405 -0.0828  0.0244
12220W        W30424   4.098  10.336   1.421 -0.0528  0.2362 -0.0075
12221W        W30425   6.996   4.007  14.785  0.0343  0.0505  0.0628
12222W        W30426  14.976   4.871   1.256 -0.0355  0.0356  0.1948
12223W        W30427   2.725  11.257   0.494 -0.0630 -0.1258  0.1467
12224W        W30428  12.690   6.989   4.035 -0.1254 -0.1785  0.1502
12225W        W30429   9.546   8.904  13.720 -0.0019 -0.2383  0.1620
12226W        W30430   7.852  14.454   4.406 -0.1982 -0.0607  0.0340
12227W        W30431  16.592  10.188   2.189  0.0512  0.3130  0.0771
12228W        W30432   0.375  11.113   4.541 -0.3393  0.0295  0.1603
12229W        W30433  17.436  13.981   0.918 -0.0629 -0.1308  0.2950
12230W        W30434   5.061  15.215  15.167  0.2550  0.0185 -0.1506
12231W        W30435   0.551  11.130  12.240  0.0231  0.0939  0.1545
12232W        W30436  16.960   9.756   4.672  0.0892 -0.0857  0.2224
12233W        W30437   8.244  17.841   1.744  0.0546  0.3631 -0.2436
12234W        W30438  14.120   1.555   0.570  0.1419 -0.1972 -0.0213
12235W        W30439   2.556  15.253  12.716 -0.1354 -0.2331 -0.0222
12236W        W30440   3.112   3.289   2.747  0.0378 -0.3300 -0.1538
12237W        W30441   4.014   5.598  15.261  0.1412  0.0973 -0.1483
12238W        W30442   7.537   6.993  11.813  0.3199  0.1752 -0.1336
12239W        W30443  15.439  11.242  13.811  0.3241 -0.2453  0.1928
12240W        W30444   6.531  10.374   2.297  0.2719 -0.1318  0.0331
12241W        W30445   0.570  10.602   3.333 -0.0740 -0.3180  0.1115
12242W        W30446  12.214   8.283  15.002 -0.0410  0.1920 -0.0635
12243W        W30447   6.797  11.658   9.690 -0.2476 -0.0257 -0.0732
12244W        W30448  13.821  13.514   3.458 -0.3422 -0.1072  0.0310
12245W        W30449   5.782   7.756   3.333 -0.2924  0.1014 -0.4470
12246W        W30450   3.438   1.171  13.964 -0.1495  0.0017  0.1990
12247W        W30451   1.602   0.272  14.566 -0.3771 -0.2271 -0.1215
12248W        W30452   2.518  11.079   3.299 -0.0798  0.1483  0.4287
12249W        W30453  17.624  12.848   0.542  0.1319  0.2801 -0.2519
12250W        W30454  10.857   8.995   4.677 -0.0233  0.0142  0.1538
12251W        W30455   1.293   8.032  12.739  0.0737 -0.0391  0.1584
12252W        W30456   9.015   8.465   0.874  0.1383  0.0730 -0.0676
12253W        W30457  10.125  18.495  12.406  0.0066  0.1306  0.1912
12254W        W30458   1.999   7.105   4.519  0.0043  0.1403  0.0586
12255W        W30459  15.642  11.532  12.630 -0.3579 -0.0484  0.2927
12256W        W30460   3.728   4.401  11.226  0.2382 -0.1999 -0.0144
12257W        W30461  15.456   5.721  13.345 -0.1219 -0.3692  0.3061
12258W        W30462   9.671  17.336  15.299  0.3597  0.1068 -0.0610
12259W        W30463  10.045   5.659  12.548 -0.0652  0.1944 -0.1706
12260W        W30464  10.274  17.025  11.512 -0.2195 -0.1261  0.3310
12261W        W30465  18.046  15.314  13.688 -0.1392  0.0541  0.1433
12262W        W30466   8.306   4.735  11.325  0.1430  0.1293  0.0577
12263W        W30467   9.638   6.122   3.652  0.2397 -0.6232  0.0970
12264W        W30468   9.403   7.675  12.891 -0.0310  0.1520  0.1969
12265W        W30469   3.573  17.949  15.027 -0.1433 -0.1052  0.2815
12266W        W30470   9.600   4.470   4.256 -0.1484  0.0359 -0.1965
12267W        W30471  15.186  16.964  12.873 -0.0157  0.1429 -0.2361
12268W        W30472  13.909  14.838   3.053  0.0502  0.4522 -0.0718
12269W        W30473   8.299   7.463  11.132 -0.1037  0.2971 -0.0655
12270W        W30474  13.898  12.535   4.454  0.0785  0.2606 -0.2749
12271W        W30475   6.703   2.765  15.325 -0.0508 -0.1959 -0.2535
12272W        W30476   6.215  13.904   3.873  0.1523  0.0458  0.3713
12273W        W30477  16.045   5.635   2.296 -0.0431  0.1692 -0.0155
12274W        W30478  13.631   0.191   0.310  0.1301 -0.3517 -0.2781
12275W        W30479   5.695  13.977   1.827  0.0087  0.0965 -0.1200
12276W        W30480   2.594  10.142   3.393  0.0297  0.1868  0.0315
12277W        W30481  16.577  15.817   0.138 -0.3250 -0.1912 -0.2664
12278W        W30482   5.325  14.331  14.546 -0.0133 -0.1554  0.1651
12279W        W30483  16.595  13.847  13.707  0.2225  0.1438  0.0162
12280W        W30484   2.347   7.654  11.200  0.1367  0.4432  0.0585
12281W        W30485  15.713   1.248  11.480  0.0651 -0.3678  0.2011
12282W        W30486  14.812  10.593  13.559 -0.0729  0.1773 -0.4825
12283W        W30487   1.759  15.546   4.415 -0.1841  0.0558 -0.0696
12284W        W30488  13.304  12.783   2.604 -0.1099 -0.0034 -0.1614
12285W        W30489   1.551  13.137   1.829 -0.2316 -0.1595  0.1189
12286W        W30490   5.275   4.530   3.275 -0.1347  0.0629  0.2208
12287W        W30491  13.251   2.913   2.934 -0.1589  0.2331 -0.0331
12288W        W30492   4.127   7.474  15.263 -0.1473  0.2435  0.0955
12289W        W30493   4.448   8.495   9.840  0.0032 -0.2697 -0.1783
12290W        W30494  11.657  17.250   0.824 -0.2361 -0.1279 -0.1601
12291W        W30495   4.444   6.865  11.500 -0.1240  0.0437  0.0506
12292W        W30496   8.024   2.159  13.831 -0.1337 -0.0362  0.4974
12293W        W30497  15.516   8.784  12.218  0.0217  0.1661 -0.0582
12294W        W30498  15.602   3.102  12.114  0.2756  0.1203  0.0397
12295W        W30499  15.505   0.473  13.582  0.0429  0.1394 -0.0923
12296W        W30500   8.057   6.121   0.760  0.0029  0.0193 -0.4322
12297W        W30501  13.609  11.169   2.693 -0.1422  0.0356  0.0258
12298W        W30502   9.977  18.290  13.678  0.2578 -0.0609 -0.1461
12299W        W30503   7.109  14.870  14.455 -0.0087 -0.1590  0.2167
12300W        W30504  12.783   7.943   4.646 -0.1102 -0.0676 -0.1534
12301W        W30505   8.553   0.856  13.504 -0.1294 -0.2614  0.1772
12302W        W30506   0.944   2.424  13.677 -0.1117 -0.0537  0.1746
12303W        W30507  12.038  15.736  10.182 -0.1376  0.0134 -0.1170
12304W        W30508   2.340  16.730   2.435 -0.3640  0.1727 -0.1899
12305W        W30509   4.809  18.498  13.955 -0.3256  0.2955  0.4886
12306W        W30510  11.695  18.527   4.322  0.2515 -0.2389 -0.0222
12307W        W30511   9.121  15.782  13.343  0.0762 -0.1404  0.0386
12308W        W30512  17.357  12.573   2.034 -0.1302  0.2503 -0.0509
12309W        W30513   6.514  11.031  13.566  0.2705 -0.1014 -0.0225
12310W        W30514  17.120   6.358   4.558  0.3064 -0.2115  0.0500
12311W        W30515   6.275   7.952   2.613 -0.3892  0.0084 -0.1310
12312W        W30516  18.160  16.371   2.115 -0.0404 -0.1912 -0.3256
12313W        W30517   4.257   8.821   2.301  0.1555 -0.1844  0.2953
12314W        W30518  14.901   3.991  13.752  0.0976 -0.3134  0.0606
12315W        W30519  10.790  13.814   0.613 -0.0556 -0.0873 -0.1480
12316W        W30520   5.420  16.076  14.950  0.1796 -0.1645  0.0908
12317W        W30521  12.404  14.244  11.183 -0.0568  0.2167 -0.2040
12318W        W30522   4.349   4.977  11.664  0.0431 -0.1531 -0.1730
12319W        W30523   6.731   0.128  13.434  0.0116  0.0213  0.2294
12320W        W30524   0.412   3.408  10.703 -0.0306  0.1297 -0.2746
12321W        W30525   4.990   1.785  12.412  0.2879 -0.0447 -0.0958
12322W        W30526   6.477   5.735   3.819 -0.3190  0.2066  0.2641
12323W        W30527   4.328   1.426  12.257  0.0532  0.1665  0.0473
12324W        W30528   8.768   0.961  14.015  0.1216 -0.0689  0.0518
12325W        W30529   2.211   8.451  12.428 -0.3149  0.0178 -0.1968
12326W        W30530   4.619   2.342  11.031  0.4482 -0.4783 -0.0516
12327W        W30531   4.848  13.691   2.617  0.0637  0.0845  0.1409
12328W        W30532   5.656  15.829  10.909 -0.0902  0.0876  0.1284
12329W        W30533   4.824  15.333   1.606  0.2473  0.2155 -0.2672
12330W        W30534   1.683   0.226  13.491 -0.0014  0.0569 -0.3020
12331W        W30535   5.060  15.909  12.653 -0.0128 -0.3407 -0.3172
12332W        W30536   1.953  12.909   1.190 -0.0140  0.0161  0.0365
12333W        W30537   8.566   1.747  13.260  0.1077 -0.1686  0.2765
12334W        W30538   6.586   8.150   1.421  0.4263 -0.1720  0.1518
12335W        W30539   9.153   2.730  10.837  0.0405 -0.1061  0.0510
12336W        W30540  12.310  16.443  14.070 -0.1505 -0.1431 -0.4851
12337W        W30541  12.324  17.275  12.546  0.0397  0.2458 -0.2949
12338W        W30542  16.877   1.219   2.995 -0.0968 -0.0486  0.0759
12339W        W30543  12.588   9.892  13.157 -0.0611  0.0411  0.2688
12340W        W30544  12.343  14.872  15.401  0.1678 -0.0775 -0.1393
12341W        W30545  10.182   0.451  15.118 -0.1027  0.1079  0.3957
12342W        W30546   0.910   1.477  14.448 -0.0985  0.0015 -0.2682
12343W        W30547   8.783  16.350   3.646  0.0877 -0.2224 -0.1166
12344W        W30548   9.650  16.682   4.581 -0.2811  0.0877 -0.1612
12345W        W30549  15.201   6.149   4.813 -0.0712  0.0436  0.1594
12346W        W30550  16.757   3.130   1.691  0.3812 -0.2354 -0.2094
12347W        W30551   0.091  13.024   1.912  0.1789 -0.1572 -0.0560
12348W        W30552  14.386  15.424   1.210  0.2233  0.0319 -0.3125
12349W        W30553  17.531   9.226   1.747 -0.1492 -0.1141  0.1055
12350W        W30554   6.208  15.673   2.574 -0.1788  0.1195 -0.3189
12351W        W30555  10.859  16.872  15.041  0.0584 -0.1220 -0.1760
12352W        W30556   3.573   4.510  10.634 -0.2415  0.1582  0.1426
12353W        W30557  15.154  10.272  13.780 -0.0509  0.0832 -0.0248
12354W        W30558   0.882  14.220  12.594 -0.0985 -0.0005 -0.0173
12355W        W30559  15.384  11.419   4.145  0.0855 -0.1685  0.2803
12356W        W30560   7.215  10.678   0.231  0.1950 -0.1413 -0.0919
12357W        W30561  13.399   9.227   3.867 -0.1219 -0.1071 -0.0989
12358W        W30562   4.115   2.789  13.831 -0.0588  0.0859 -0.1329
12359W        W30563   4.098  10.160  12.851  0.4658  0.0010 -0.2513
12360W        W30564   2.491   2.634   0.418 -0.0625 -0.1708  0.1175
12361W        W30565   8.237  18.212  11.592 -0.1453 -0.2050 -0.2900
12362W        W30566  12.821   3.143   1.840  0.0547 -0.2967  0.0452
12363W        W30567   8.902  11.551  11.811  0.1821  0.1903 -0.0726
12364W        W30568   0.677   2.891   0.526  0.3306 -0.1165  0.0801
12365W        W30569  12.404   1.956   0.020  0.0629 -0.1371  0.1176
12366W        W30570  10.890  10.239  14.590 -0.1247 -0.0881  0.5751
12367W        W30571  12.173   2.016  12.689  0.1365  0.1120 -0.1006
12368W        W30572   0.288   9.237  12.084 -0.0116 -0.1505 -0.0696
12369W        W30573  15.338   1.176  14.988  0.1660 -0.2728  0.1207
12370W        W30574   9.779   3.708   0.295 -0.1801  0.0210 -0.2749
12371W        W30575   2.635   0.028  13.545 -0.0258  0.0715 -0.0511
12372W        W30576  12.156   4.324  12.147  0.1632  0.0060  0.1433
12373W        W30577  10.623  13.768  11.838 -0.0664 -0.0576 -0.4901
12374W        W30578  15.050   2.642   3.499  0.0239  0.0209  0.0092
12375W        W30579   0.413   0.792   4.693 -0.1207  0.3654 -0.0878
12376W        W30580   1.276  10.457   1.102 -0.0907 -0.0494 -0.2496
12377W        W30581  11.179   5.121   3.203  0.5083  0.0562  0.0144
12378W        W30582   3.276   8.474  15.353  0.2770  0.1183  0.1547
12379W        W30583  12.523   3.514  13.195  0.0491 -0.0046 -0.0707
12380W        W30584  15.488   2.469  11.115 -0.3040  0.0415 -0.2282
12381W        W30585   4.705   3.887  13.490 -0.0951  0.1326  0.0153
12382W        W30586  18.143   2.986   0.438 -0.2944  0.1875  0.0401
12383W        W30587  10.894  11.279  13.305 -0.0321 -0.1409  0.4467
12384W        W30588   4.455  15.692  15.356 -0.0759 -0.4438 -0.0488
12385W        W30589  10.016   8.340   3.764  0.0315  0.1334 -0.1623
12386W        W30590  11.194   8.221   6.181  0.1997  0.2101 -0.0188
12387W        W30591  11.494   1.269   3.737  0.0267 -0.2874  0.0259
12388W        W30592  12.453  14.327  11.696 -0.1075  0.0243  0.0030
12389W        W30593   4.740  15.045  14.178  0.2320  0.0142 -0.0246
12390W        W30594   8.112   4.958  12.054 -0.2682  0.0245  0.3170
12391W        W30595   7.038   1.455   0.204  0.0122 -0.2073 -0.2538
12392W        W30596   8.815   9.733  13.697  0.1035 -0.0794 -0.3456
12393W        W30597  13.546  13.167   2.803 -0.1164 -0.3402  0.0922
12394W        W30598   4.560   5.798  12.326  0.1911  0.0927 -0.2223
12395W        W30599  17.324   8.871   0.540 -0.2170 -0.1168 -0.0677
12396W        W30600   4.005   8.613   1.003  0.0981  0.1016  0.0190
12397W        W30601  16.655  17.732   3.697  0.0064 -0.0220 -0.3121
12398W        W30602  16.581   0.664  11.595  0.0795 -0.0630 -0.0447
12399W        W30603  17.546  14.839   2.248 -0.3772  0.2986  0.0879
12400W        W30604  12.597  11.519   1.388  0.0935 -0.0319  0.0601
12401W        W30605   4.430   8.410   4.198 -0.0032  0.2037  0.0763
12402W        W30606  16.188  10.755  13.744  0.2555  0.2751  0.2508
12403W        W30607   6.608   2.343  12.626  0.0811  0.1025 -0.0634
12404W        W30608   2.447   2.300   0.809 -0.1671 -0.1948 -0.3286
12405W        W30609   8.590   1.506   0.322  0.1040 -0.4799  0.1003
12406W        W30610  11.186  13.309   1.448 -0.0275  0.1835  0.0973
12407W        W30611  18.687   1.315   2.842 -0.1367  0.3108 -0.2157
12408W        W30612   9.364   0.895   1.326 -0.1989  0.0270 -0.1635
12409W        W30613   2.032  10.768  10.452 -0.0680 -0.3648 -0.0746
12410W        W30614  16.691  16.437  14.130  0.2208 -0.2648 -0.1357
12411W        W30615   3.586  16.452  14.974  0.1001 -0.0104  0.4353
12412W        W30616  17.546   4.509   5.211 -0.2521  0.0914 -0.1270
12413W        W30617   9.701  13.178   2.769 -0.1636 -0.0388  0.2222
12414W        W30618  13.035  11.520  14.393  0.0844 -0.0815 -0.1787
12415W        W30619  12.174  11.454  12.695  0.1788  0.3651  0.0635
12416W        W30620  17.841  14.296  12.024  0.0316 -0.1630  0.2293
12417W        W30621  15.948   5.557  14.927 -0.0032  0.2079 -0.0138
12418W        W30622  17.661   3.820   4.286  0.2825 -0.0507  0.0098
12419W        W30623  14.786   8.534  15.256  0.0206  0.0313 -0.0912
12420W        W30624   6.465   6.718   1.738 -0.1556 -0.1586  0.0637
12421W        W30625  11.111  10.337  13.640 -0.1272 -0.0605  0.1976
12422W        W30626   8.616  11.096   1.273 -0.0240 -0.1722  0.0077
12423W        W30627  12.702   8.036   2.011  0.1690  0.0359 -0.1414
12424W        W30628  13.572   0.013   3.455  0.0359  0.1354  0.2139
12425W        W30629   1.068   0.031   3.919 -0.2204  0.1689 -0.1400
12426W        W30630  14.160  14.778  14.665 -0.2332  0.0829  0.1528
12427W        W30631   1.107  10.715   3.198 -0.2746 -0.3074  0.2149
12428W        W30632  16.943   4.638  11.460  0.1538 -0.0347  0.3893
12429W        W30633  16.343   7.831  14.735 -0.1031 -0.1250 -0.1308
12430W        W30634   6.750  13.583  14.394 -0.0965 -0.0713  0.2480
12431W        W30635  15.279   3.553   5.472 -0.1476 -0.1696 -0.1782
12432W        W30636   5.224  10.958  11.183 -0.1619 -0.4011  0.0774
12433W        W30637  15.427  14.999  14.682  0.1346 -0.1272  0.1354
12434W        W30638  18.109   9.941  14.476  0.3982  0.1325 -0.3754
12435W        W30639   2.211  18.331   3.380 -0.0246  0.3706  0.0130
12436W        W30640   7.681  12.966   0.916 -0.0373 -0.1213 -0.3094
12437W        W30641   1.989  11.524   0.392  0.0332  0.1756 -0.2550
12438W        W30642   2.296   0.190  14.048 -0.0089 -0.0166 -0.2360
12439W        W30643   0.515  11.617   0.704  0.0968  0.0115 -0.1295
12440W        W30644   4.849   9.493  12.075  0.3234 -0.1679 -0.1059
12441W        W30645   8.707   5.806   3.817 -0.1714  0.1342 -0.0816
12442W        W30646   7.311  16.677   0.145 -0.2614 -0.0944 -0.3428
12443W        W30647   0.401   4.259  12.044 -0.3828  0.0353 -0.1194
12444W        W30648  16.574   6.812  13.554  0.2334  0.1404 -0.0921
12445W        W30649   3.910   1.274   2.460 -0.0023  0.1558 -0.0232
12446W        W30650  10.185  18.599   1.944  0.0140  0.2491  0.0825
12447W        W30651  11.014   6.183   1.690 -0.0544  0.0999  0.2838
12448W        W30652  12.585   6.874  12.884 -0.1456 -0.0953  0.2410
12449W        W30653   3.468   2.204  14.913 -0.4018 -0.1754  0.1366
12450W        W30654  16.874  12.971   4.063  0.1610  0.2917 -0.0650
12451W        W30655   3.858  12.477   0.782  0.0087  0.1816  0.1009
12452W        W30656  15.545  10.236   1.891  0.1162 -0.1723 -0.1289
12453W        W30657   1.289  16.766  15.378 -0.1289 -0.2865 -0.0384
12454W        W30658   6.388  14.226   1.073 -0.0560 -0.0590  0.3767
12455W        W30659   3.400  16.000  10.986  0.2033 -0.3013  0.4025
12456W        W30660   7.879  10.690   2.783 -0.2240  0.0331  0.1382
12457W        W30661  13.642   1.658  15.117 -0.2817 -0.0390 -0.0471
12458W        W30662   8.589   9.093   1.809  0.1263  0.0062  0.0247
12459W        W30663   9.205   0.841   3.821  0.1547 -0.1289  0.0986
12460W        W30664  16.335  15.081   1.570 -0.1013 -0.2443  0.0369
12461W        W30665   7.025   4.111  15.264  0.0287  0.1171  0.1821
12462W        W30666   8.620  10.610   4.995  0.3285  0.2459  0.0621
12463W        W30667  16.055   2.037   2.092  0.1218  0.2634 -0.0778
12464W        W30668   8.857  17.578   2.336 -0.3710 -0.0836 -0.3470
12465W        W30669  17.896   6.012  15.321 -0.0405 -0.2030 -0.3798
12466W        W30670  11.519   6.803  15.256 -0.1635 -0.2684  0.1301
12467W        W30671   9.528  12.901  11.521 -0.0321 -0.0208 -0.1798
12468W        W30672   8.781  16.571   2.246 -0.2206 -0.1220  0.2597
12469W        W30673  17.533  10.067  14.814 -0.1062  0.1203  0.4699
12470W        W30674  10.976   6.370   2.730  0.2615 -0.3477  0.1212
12471W        W30675  17.433   0.804   0.701 -0.3711  0.1530 -0.2710
12472W        W30676   9.257  18.458   9.795  0.0010  0.0549  0.2445
12473W        W30677   0.929  13.401   2.797 -0.1770  0.0458 -0.0584
12474W        W30678  15.823  10.243   0.851  0.1501 -0.2217  0.4528
12475W        W30679   2.812   3.651  14.725  0.0807 -0.2566 -0.0495
12476W        W30680  15.868   7.585  15.387 -0.0083  0.2073 -0.2494
12477W        W30681  18.171   5.510   3.869 -0.3458 -0.0032  0.0634
12478W        W30682  17.072  11.044   4.715  0.2845  0.0124  0.1470
12479W        W30683   6.528  10.343   0.879  0.0179 -0.2677  0.0745
12480W        W30684   9.425   4.286  10.278 -0.2000 -0.2109 -0.2007
12481W        W30685   6.636   0.574   0.481 -0.0358 -0.2984 -0.0586
12482W        W30686   8.390  12.730  13.392  0.2380  0.0206 -0.0324
12483W        W30687  10.486   4.919  14.495 -0.3002  0.0972  0.1332
12484W        W30688  16.468  12.722   4.252  0.0728  0.2079  0.0797
12485W        W30689  12.667   6.339   4.091 -0.0085  0.1419 -0.2735
12486W        W30690   7.128  15.709  14.923 -0.0399 -0.0027  0.0708
12487W        W30691  14.853  11.111   0.612  0.0861  0.1927  0.2713
12488W        W30692  12.636   9.044   3.918  0.1091 -0.1994 -0.0044
12489W        W30693   2.016  18.068   2.875 -0.1401 -0.1761  0.0261
12490W        W30694   0.724  17.944  12.383 -0.1246  0.1773 -0.2231
12491W        W30695   3.174  16.349   2.995 -0.2917 -0.0161  0.1510
12492W        W30696  12.039  10.431   1.697 -0.3060 -0.1327  0.4418
12493W        W30697   5.143   5.274  10.541 -0.0440 -0.1879  0.0058
12494W        W30698   2.636   9.036   0.222  0.2550 -0.1376 -0.0177
12495W        W30699   3.693  16.778  14.614  0.1773 -0.0204 -0.3408
12496W        W30700   2.161  12.161   0.790 -0.3300  0.0025 -0.0238
12497W        W30701   8.607   8.967  13.439  0.1277  0.2883 -0.1114
12498W        W30702   6.584  10.249   2.801  0.0889  0.0355  0.0204
12499W        W30703  15.359  18.403   2.661  0.0046 -0.0918  0.1467
12500W        W30704  10.430   6.123  10.981  0.2644 -0.0969 -0.0363
12501W        W30705   8.515  18.269   1.813  0.0956 -0.3998 -0.1867
12502W        W30706  17.322   1.369   5.444 -0.2895  0.0160 -0.0771
12503W        W30707  18.672  18.668  13.890 -0.1789  0.2211 -0.2987
12504W        W30708  18.536   6.275  12.120 -0.0307  0.2431  0.0254
12505W        W30709   5.476   6.989   1.792  0.2615  0.2500 -0.0666
12506W        W30710  14.132   6.446   3.881  0.0268 -0.2746 -0.1792
12507W        W30711   7.782   6.258  15.092 -0.0014  0.0956 -0.3036
12508W        W30712   5.620   1.248   2.057  0.0817 -0.0034 -0.0863
12509W        W30713   7.015  14.793   3.029  0.0415 -0.1829  0.0125
12510W        W30714  11.437  11.553   4.384 -0.3011  0.1638  0.0297
12511W        W30715  16.277  16.880   2.875 -0.3744  0.1182 -0.3770
12512W        W30716   9.209   8.090  13.847  0.0533  0.2328 -0.2137
12513W        W30717   2.323   5.431   3.855 -0.1541  0.1026  0.4216
12514W        W30718  15.509   8.935  13.772 -0.0305  0.0359 -0.2566
12515W        W30719  11.626  11.110   0.076  0.1039 -0.1103 -0.0092
12516W        W30720   1.814   9.373   4.217 -0.1142  0.2297  0.2383
12517W        W30721  17.348  16.991  12.161  0.1234 -0.1598  0.0929
12518W        W30722  16.394   1.665  14.971  0.0920  0.0978 -0.3003
12519W        W30723  16.232  15.154   3.207  0.1638 -0.2010  0.3292
12520W        W30724  17.262   2.245  15.158 -0.1980  0.1455  0.1798
12521W        W30725   3.584   5.973   9.658  0.0398 -0.1530  0.1972
12522W        W30726  18.128  15.116  13.230  0.3082 -0.1542 -0.3671
12523W        W30727  14.990  16.817   2.238  0.2027  0.1422  0.2194
12524W        W30728  11.209  16.377  13.143 -0.5135  0.3255  0.2772
12525W        W30729  14.743   9.310   4.170  0.0994  0.0396 -0.0345
12526W        W30730  10.157   8.778  11.038  0.1896 -0.3989  0.0463
12527W        W30731   9.600  10.848   0.991 -0.0401  0.0704 -0.0100
12528W        W30732   0.166   0.233  14.879 -0.2096 -0.1582  0.1628
12529W        W30733   8.873   5.568   0.330 -0.1369 -0.0282 -0.1859
12530W        W30734  10.427  13.583  14.441 -0.0664 -0.0674 -0.0086
12531W        W30735  10.450   6.181  11.666 -0.1968 -0.1993  0.1176
12532W        W30736   5.432  11.143  12.091 -0.2899 -0.1475  0.0216
12533W        W30737   6.416  11.426  11.756 -0.0320  0.0049 -0.1880
12534W        W30738   3.644   0.898   1.518  0.5129  0.0103  0.0623
12535W        W30739  17.532   4.501  12.243  0.0777  0.2376 -0.1749
12536W        W30740  17.305  11.882  14.678  0.0713 -0.2312  0.1091
12537W        W30741  15.742  16.871  11.672  0.1125 -0.1987 -0.2218
12538W        W30742  11.842  16.379  14.372  0.0110 -0.0755 -0.0935
12539W        W30743  10.331   0.880  14.905  0.3315  0.2745 -0.3597
12540W        W30744  10.091  17.269  14.668 -0.0702 -0.1062 -0.3115
12541W        W30745   2.909   2.502  11.405 -0.3136  0.1734 -0.2564
12542W        W30746  18.026  10.473  12.354 -0.1316  0.3270 -0.0242
12543W        W30747  11.818   2.973  14.976  0.0011  0.1204  0.1364
12544W        W30748  14.638   8.633  14.142  0.1674  0.2417 -0.4495
12545W        W30749   4.250  11.794  12.155 -0.1134  0.2005 -0.0141
12546W        W30750   6.915  17.578  11.589 -0.3033  0.0051 -0.2349
12547W        W30751  17.003   0.611  15.429 -0.3594 -0.1157  0.0608
12548W        W30752  10.854  18.013   3.935  0.4239 -0.1040 -0.2462
12549W        W30753  17.365   9.433   4.715 -0.1426  0.0511 -0.0970
12550W        W30754   7.188  15.875   0.843 -0.2199  0.1237 -0.1534
12551W        W30755  18.671   0.251  13.470  0.1333 -0.2402 -0.1640
12552W        W30756   6.719   3.638  14.004 -0.0915  0.2282 -0.0660
12553W        W30757  12.860   6.953  11.973 -0.1685 -0.1331  0.2141
12554W        W30758   0.250  11.870   0.328 -0.3063  0.1318  0.4978
12555W        W30759  14.139  13.446   3.045 -0.0108  0.0831  0.0334
12556W        W30760  16.374   9.267  13.575  0.2694 -0.0528 -0.1034
12557W        W30761   2.184   1.531  13.948 -0.3929  0.0967  0.1255
12558W        W30762  15.109   8.687  12.866 -0.2915  0.0936 -0.0353
12559W        W30763  15.943   3.644   4.229 -0.1731 -0.0659 -0.3098
12560W        W30764  15.798   1.964  15.077 -0.0578  0.0805 -0.2112
12561W        W30765  16.473   6.010  14.725  0.1733 -0.1427  0.1173
12562W        W30766  15.745   2.228  12.486 -0.1506  0.1250  0.3011
12563W        W30767  17.117   9.232   1.507 -0.0378 -0.0076  0.3901
12564W        W30768  11.112   5.232   1.566 -0.2408  0.1400 -0.1887
12565W        W30769   8.774  11.757  11.097  0.2099  0.0491  0.0466
12566W        W30770   6.258   0.237  10.825 -0.4237 -0.1748 -0.1080
12567W        W30771  10.605   6.268  14.628  0.2559  0.0154  0.1722
12568W        W30772  12.692   9.834   2.074 -0.1638  0.0114 -0.2308
12569W        W30773  11.996   8.675   1.992 -0.3104 -0.2365  0.2565
12570W        W30774  11.964  15.328   0.120 -0.2893 -0.1157 -0.1583
12571W        W30775   8.638  13.529   1.528 -0.0692  0.4078  0.0813
12572W        W30776   2.263  17.858   2.004  0.0654  0.0051 -0.1122
12573W        W30777   0.641  16.562   4.224  0.0062 -0.0268  0.0696
12574W        W30778  17.061   5.893   1.384 -0.2170 -0.1112 -0.2039
12575W        W30779   9.297  17.092  14.183 -0.0605 -0.0436  0.3100
12576W        W30780  17.062   8.212  13.419 -0.0257 -0.2629 -0.1045
12577W        W30781   6.417  12.182  15.006 -0.3310 -0.1344 -0.0408
12578W        W30782  13.632   6.601   3.319  0.2455  0.2227 -0.2779
12579W        W30783   2.841  13.527   1.575  0.0715 -0.0481  0.0566
12580W        W30784  16.268   1.205  14.763  0.0020 -0.0707 -0.0903
12581W        W30785  10.603  18.183  12.125 -0.0593  0.1806 -0.1426
12582W        W30786  11.578   4.777  13.481 -0.2189  0.2960  0.1758
12583W        W30787  16.457  12.713   1.248 -0.0739  0.2768 -0.0121
12584W        W30788   2.802  17.315   1.795 -0.0401  0.1341 -0.0889
12585W        W30789   3.899  12.649  13.191  0.2007 -0.3037 -0.3745
12586W        W30790   4.884   7.950  13.066  0.1936  0.0001 -0.0325
12587W        W30791  10.000   8.732  15.171  0.1503 -0.0131 -0.0214
12588W        W30792   4.036   0.252  15.058 -0.1668 -0.0946 -0.1542
12589W        W30793  10.705  13.323  12.913 -0.1328 -0.0054 -0.0186
12590W        W30794  16.187   8.799   5.005 -0.3999  0.0093 -0.0794
12591W        W30795  12.411  15.680  11.845  0.1625  0.1804 -0.0935
12592W        W30796  16.860  14.440   1.516 -0.2577 -0.0635  0.0277
12593W        W30797   4.792  18.444   1.938  0.0033 -0.3352 -0.0871
12594W        W30798   7.421   5.244   1.078 -0.0560 -0.0598 -0.0281
12595W        W30799   4.979   2.425   3.404 -0.0842 -0.0236  0.0979
12596W        W30800  17.293   8.028   0.993 -0.1181 -0.3337 -0.2644
12597W        W30801   4.245   3.221  14.076  0.0846 -0.2077  0.1395
12598W        W30802   5.798   1.913  11.087  0.1472  0.0819 -0.2625
12599W        W30803  10.719   0.432  12.021 -0.1317 -0.4946 -0.0279
12600W        W30804   5.649   3.033  13.422 -0.0311 -0.1245  0.2089
12601W        W30805  15.128  14.999   1.427  0.2262  0.0654 -0.1722
12602W        W30806   5.882  17.731  12.335 -0.0355 -0.0870 -0.0696
12603W        W30807   5.737   2.160  13.130  0.0605 -0.0065 -0.0555
12604W        W30808   8.482   9.035   5.422 -0.0433  0.2221 -0.2550
12605W        W30809  12.324   8.798  14.523  0.0427  0.0826  0.3122
12606W        W30810  18.382  13.177   4.480 -0.1662 -0.2643 -0.0755
12607W        W30811  12.216   9.637   3.193  0.1413  0.1693 -0.1370
12608W        W30812  14.888  12.669   2.055  0.0893  0.0089 -0.0887
12609W        W30813   5.939   6.038   1.137 -0.0519 -0.1925  0.0796
12610W        W30814  18.600  10.626  14.143  0.2860  0.1241  0.0850
12611W        W30815   4.507  17.076   1.531 -0.3032  0.3405 -0.0960
12612W        W30816  13.028   3.130  13.890 -0.1497  0.1803 -0.0817
12613W        W30817   9.755   8.011  11.036  0.3125  0.1439  0.2212
12614W        W30818  10.371   5.705   3.421  0.0318 -0.0042  0.4793
12615W        W30819  12.719   2.821   2.210  0.4392 -0.2241 -0.0134
12616W        W30820  14.618   2.964   3.648  0.2226  0.1158  0.3156
12617W        W30821  10.735  17.272  13.298  0.1190 -0.3385 -0.1289
12618W        W30822   5.707   6.969   1.217  0.0359 -0.0159 -0.0525
12619W        W30823   1.825   0.410   1.326 -0.1541 -0.2694  0.0579
12620W        W30824  16.284  11.403   0.220  0.2860  0.1976  0.1001
12621W        W30825   9.527   0.021  11.025 -0.1143 -0.1451  0.1954
12622W        W30826  17.303   1.724  15.045  0.1939  0.0282  0.1633
12623W        W30827   3.891   3.366   0.992 -0.1280 -0.0696 -0.0206
12624W        W30828  10.588   5.484  13.957 -0.2470  0.1359  0.3636
12625W        W30829  10.318   8.951   0.013  0.0566  0.5753  0.0361
12626W        W30830   3.505  17.643   2.321 -0.1564 -0.1535  0.1526
12627W        W30831  13.327   0.360  14.613 -0.0179 -0.1064 -0.0630
12628W        W30832  11.334   7.325  11.151  0.2216  0.2633 -0.0126
12629W        W30833  17.822  17.060   1.825 -0.0964 -0.1177 -0.2442
12630W        W30834  15.195  14.590  14.446 -0.0705  0.1203  0.3763
12631W        W30835   1.168  12.409  11.959 -0.1073  0.0296 -0.1356
12632W        W30836   5.298   9.886   4.207  0.1306 -0.1774  0.0157
12633W        W30837   9.989   2.189   2.441  0.0274  0.2415  0.0127
12634W        W30838   8.379   2.995   1.886 -0.0187 -0.1690 -0.0986
12635W        W30839   5.721   8.411  14.132  0.2067  0.2200  0.0518
12636W        W30840  11.420  17.876  11.749 -0.0077 -0.1502  0.1551
12637W        W30841  14.646  12.085   0.959  0.1298 -0.1095 -0.1429
12638W        W30842  12.415  13.264  10.119 -0.0814 -0.0189 -0.2110
12639W        W30843   4.600   8.563  15.056 -0.2299 -0.1502 -0.2312
12640W        W30844  11.833   0.457   3.521  0.1271  0.3050  0.0753
12641W        W30845   4.261   3.722   1.040  0.0682  0.0211 -0.3210
12642W        W30846   8.795  18.560  12.389  0.3072  0.1866 -0.1425
12643W        W30847  13.567  17.994  11.015  0.0699 -0.2429  0.3107
12644W        W30848  11.989   5.079  14.021 -0.1256  0.0208 -0.0206
12645W        W30849   2.709   7.949  14.126 -0.2255 -0.2590  0.0963
12646W        W30850   2.125   1.490   1.016  0.1887  0.2801  0.0707
12647W        W30851   4.313  14.397  11.402 -0.1622 -0.1895 -0.3380
12648W        W30852  14.627   4.618  12.642 -0.0232  0.1886  0.1525
12649W        W30853   0.573  14.184  13.153  0.0472 -0.2721  0.0555
12650W        W30854  17.378   2.376  12.413 -0.0325  0.2276  0.1240
12651W        W30855   0.344  15.130  11.073 -0.1212 -0.1707  0.1274
12652W        W30856  11.005   5.756   0.669 -0.2524  0.0336  0.0876
12653W        W30857  18.263  10.567   4.722 -0.1987 -0.3264  0.0866
12654W        W30858  13.636   4.736  12.652 -0.0096  0.0708  0.4237
12655W        W30859   6.351   7.502  12.241 -0.2481 -0.1840  0.1439
12656W        W30860   6.331  10.469   1.845  0.2319  0.1278 -0.1836
12657W        W30861  13.937   3.155   2.678  0.3260  0.2861  0.0306
12658W        W30862  14.399  16.097   3.910  0.0208  0.0267  0.1078
12659W        W30863  16.477  10.775  11.179 -0.2043 -0.3286  0.1776
12660W        W30864   7.862  18.060  15.410 -0.1379  0.0889 -0.1870
12661W        W30865   7.137   0.424  12.446  0.1059  0.1002 -0.0633
12662W        W30866  13.953   2.368   1.049 -0.0558 -0.1125 -0.0414
12663W        W30867   2.040   1.972   4.729 -0.2654  0.1869 -0.2847
12664W        W30868   7.569  10.997  13.022 -0.0450  0.0693  0.4635
12665W        W30869  15.968   9.597   5.155 -0.0080 -0.1668 -0.2231
12666W        W30870  13.865  14.563   4.824 -0.2455 -0.2293  0.0712
12667W        W30871  12.563   3.257  14.116  0.0572 -0.0393 -0.5463
12668W        W30872   9.896   9.799   0.367 -0.0901  0.0408 -0.0186
12669W        W30873   3.704   1.376  12.416 -0.1170  0.1081 -0.0280
12670W        W30874   3.970  12.970   1.542 -0.0723  0.1129  0.1169
12671W        W30875   3.244  17.924   0.085  0.2695 -0.0561 -0.1896
12672W        W30876   3.891  18.161   1.689  0.2127  0.6350 -0.1922
12673W        W30877   6.142   0.801   2.087 -0.3234  0.3025  0.2146
12674W        W30878   7.777  13.958   4.274  0.0492  0.2070  0.0364
12675W        W30879   0.343  11.676  13.667 -0.0083 -0.0090  0.1576
12676W        W30880   4.789  13.772  10.911  0.1555 -0.0036  0.1312
12677W        W30881  15.581   4.874   4.353  0.0014 -0.0661 -0.0118
12678W        W30882   4.450   0.169   2.984  0.0666  0.1489 -0.0462
12679W        W30883   7.811   0.996   1.947 -0.0786 -0.0222  0.0737
12680W        W30884   2.920  14.100  13.354 -0.1621 -0.1354  0.1531
12681W        W30885   4.825  16.925  11.045 -0.1140 -0.0697 -0.0441
12682W        W30886  16.832   9.879   3.688  0.1038  0.1085 -0.0648
12683W        W30887   5.349   8.022   3.103 -0.0374  0.2071  0.0765
12684W        W30888   9.756   1.780   1.472  0.1264 -0.2571 -0.3832
12685W        W30889   0.092   7.807   2.160 -0.0188 -0.3020 -0.0960
12686W        W30890   0.126  13.008  13.400 -0.1434 -0.3472  0.1098
12687W        W30891   3.869   6.489   4.189  0.0675  0.2774  0.1776
12688W        W30892   5.725   3.542   4.177 -0.1039  0.1660  0.1252
12689W        W30893  11.894   5.290   3.201 -0.0313 -0.1699  0.0842
12690W        W30894   6.068   8.331  12.804 -0.1625 -0.0872  0.2837
12691W        W30895   1.683   6.621  13.451 -0.4204  0.0087 -0.1408
12692W        W30896   0.207  18.479  10.815  0.2048  0.1074  0.1500
12693W        W30897   4.464   4.377  12.489  0.0630  0.0059 -0.0132
12694W        W30898   5.196  13.514  13.299  0.2793 -0.1076 -0.1417
12695W        W30899   4.254   1.350   3.955  0.1367  0.0911  0.1314
12696W        W30900  14.469   6.583  15.137  0.2826 -0.0566  0.1905
12697W        W30901   2.877   7.862  14.625  0.2836  0.1022  0.0738
12698W        W30902  10.495  13.098  11.873  0.0498 -0.1913 -0.0959
12699W        W30903   0.009  10.032  10.616  0.3256 -0.0973 -0.0061
12700W        W30904  12.459   5.866   0.972  0.1183  0.3077 -0.1439
12701W        W30905  15.051   0.605   0.893  0.0153 -0.3238 -0.1249
12702W        W30906  11.766  12.626   9.867 -0.0151  0.1811 -0.1893
12703W        W30907  11.970  13.328   2.813 -0.3615 -0.2156 -0.2050
12704W        W30908  15.408  15.191  15.152 -0.1411 -0.3047 -0.0470
12705W        W30909  12.475   1.209  10.947 -0.0322 -0.1869 -0.0347
12706W        W30910   8.462   4.509   1.664 -0.1977 -0.2351 -0.2582
12707W        W30911   8.403  15.241  11.940  0.1220 -0.1144  0.1270
12708W        W30912  13.757   6.050  13.183  0.2160 -0.0030  0.1566
12709W        W30913  13.172  18.434   1.406 -0.2897 -0.1556 -0.0883
12710W        W30914  12.155   9.363  15.161 -0.0675 -0.0174 -0.1911
12711W        W30915   6.722  15.777  13.014 -0.1659  0.0561  0.1627
12712W        W30916  18.412   0.840   3.023 -0.3149  0.2930  0.2013
12713W        W30917   1.357  11.622   2.520 -0.2059 -0.0872 -0.0817
12714W        W30918   8.326  16.478  15.194  0.1961  0.1117 -0.1924
12715W        W30919  16.736  15.013  14.996 -0.1589  0.2788 -0.1197
12716W        W30920   2.514   7.374  13.843 -0.2063 -0.1816  0.1715
12717W        W30921  16.955   8.837  10.077  0.2787  0.2768 -0.0903
12718W        W30922  14.997  18.404  12.950 -0.2214 -0.2598  0.0700
12719W        W30923  17.115   9.120   1.996 -0.0845  0.0447  0.2609
12720W        W30924   6.998   2.305   1.135 -0.0702 -0.0627  0.0836
12721W        W30925  18.244   4.427  14.023 -0.0979  0.2656  0.5961
12722W        W30926   2.173   6.695   9.919 -0.2650  0.1077  0.3157
12723W        W30927   3.788  14.374  11.616  0.0764  0.2109 -0.0120
12724W        W30928   8.643   6.405   0.098  0.0940 -0.0373 -0.4525
12725W        W30929   6.483   8.618  12.801  0.1026 -0.1376  0.0600
12726W        W30930   7.361   7.459  12.329  0.1585  0.0065  0.3369
12727W        W30931   5.802   1.545   2.522  0.0571  0.2914  0.1143
12728W        W30932   3.838  13.921  14.364  0.2219 -0.0043  0.1663
12729W        W30933   1.741   5.015   2.276 -0.1358  0.1940 -0.1167
12730W        W30934  18.214   9.192   2.446 -0.1847  0.1118  0.2185
12731W        W30935   4.638   1.652  11.455 -0.0056  0.0319  0.2580
12732W        W30936   7.344  17.516  10.619  0.0270 -0.0929  0.2100
12733W        W30937  13.974   5.450   2.236  0.0631 -0.3320 -0.0728
12734W        W30938   8.035  12.957   2.758  0.1777  0.0650  0.0601
12735W        W30939   9.474  14.355  10.672 -0.1590  0.1263  0.1925
12736W        W30940  14.890  12.476  11.952  0.0173 -0.1223 -0.0545
12737W        W30941  11.504   2.665   2.695 -0.1034  0.2257 -0.0689
12738W        W30942  10.069   2.619  13.864  0.0036  0.1723  0.1224
12739W        W30943  12.941  11.654  14.853 -0.1895  0.0180 -0.0455
12740W        W30944  17.503  10.480   2.974  0.0779  0.1209 -0.2699
12741W        W30945  10.469  11.265  14.994 -0.1599  0.2800  0.0571
12742W        W30946   4.049   4.073   1.432  0.2399 -0.1087 -0.0397
12743W        W30947  13.308   2.419   1.599  0.0792 -0.0434 -0.4440
12744W        W30948  12.091   6.497   6.229 -0.1359 -0.2605  0.1374
12745W        W30949  12.294   8.622  11.010  0.0060 -0.1725 -0.0914
12746W        W30950   3.006  13.875  11.811 -0.0474  0.1238  0.1052
12747W        W30951  15.439  16.611   4.487  0.2063  0.5397 -0.0219
12748W        W30952   7.685  14.535  11.592 -0.0858  0.0175 -0.2218
12749W        W30953   5.961   3.287  11.982 -0.1540  0.2005 -0.1111
12750W        W30954   2.508  15.200   0.894 -0.2800 -0.3836  0.0106
12751W        W30955   1.635   6.721   3.248  0.1180 -0.0099  0.0294
12752W        W30956   8.724  14.292   4.317 -0.0814  0.1843 -0.1166
12753W        W30957   1.658   9.968   0.744  0.1883  0.0933  0.0533
12754W        W30958  13.693  18.002   5.433  0.3049  0.1189 -0.1382
12755W        W30959   9.295   7.413   2.481 -0.0837  0.2598  0.1203
12756W        W30960   2.892   8.433   2.563  0.1050  0.1713  0.3450
12757W        W30961  15.626  12.815   1.829  0.2676 -0.0639  0.3140
12758W        W30962   2.823  11.389  15.255 -0.0970  0.0214 -0.0890
12759W        W30963   4.753  17.053  14.974 -0.2728  0.1024 -0.2500
12760W        W30964  14.533   5.458  10.822  0.0889  0.1487 -0.1737
12761W        W30965  16.255  15.553  13.366  0.0977 -0.4704 -0.2183
12762W        W30966   8.528  15.451   0.219 -0.0065  0.4375  0.0198
12763W        W30967  10.081  14.882  12.054 -0.0079  0.1304  0.0456
12764W        W30968   3.876  11.220   0.894  0.4642  0.0212 -0.2098
12765W        W30969  12.833   6.385  12.060 -0.1965 -0.0781  0.0334
12766W        W30970  14.558   2.541  14.119 -0.0916  0.0922  0.2199
12767W        W30971   8.503  11.263   2.311  0.0980 -0.0955 -0.0614
12768W        W30972   5.553   2.671   3.849  0.0414 -0.1287 -0.0990
12769W        W30973   2.875  14.106  11.204 -0.0291  0.2367  0.0374
12770W        W30974   0.623   7.545  12.261 -0.0882  0.4032 -0.0694
12771W        W30975   7.107   0.164   3.950  0.1797 -0.0994  0.0100
12772W        W30976  13.438  18.486  13.989 -0.3778  0.3613  0.0785
12773W        W30977   4.902   5.908  11.965 -0.0441 -0.2923 -0.2200
12774W        W30978   2.742   4.111   5.440  0.1897 -0.3257  0.0002
12775W        W30979   0.846   6.981  11.184  0.5761 -0.1748  0.2405
12776W        W30980  12.263   3.573   3.428  0.3295 -0.1015 -0.0755
12777W        W30981  15.085  17.826  11.370 -0.1292 -0.0510 -0.0696
12778W        W30982   8.251   2.907  12.520 -0.0542  0.0698  0.0145
12779W        W30983   1.752  18.649   1.713  0.0301 -0.0951  0.0537
12780W        W30984  10.030   1.094   3.527  0.0344  0.0353  0.3352
12781W        W30985   0.022   4.098  13.272 -0.1545 -0.2419  0.3086
12782W        W30986  16.000  17.242   5.090  0.0150 -0.0901  0.0014
12783W        W30987  16.214   2.663   4.299 -0.2335 -0.0574 -0.2843
12784W        W30988   7.940  12.660   0.546 -0.0847  0.3860  0.0861
12785W        W30989   8.993   6.977   3.860 -0.0163  0.1432 -0.2527
12786W        W30990  18.412  16.854   0.077 -0.0700 -0.3686  0.0168
12787W        W30991   5.253   0.004  11.612 -0.0136  0.0843  0.0219
12788W        W30992  10.595   4.159  10.869  0.3298  0.3299 -0.0340
12789W        W30993  15.902   9.616  13.558 -0.0412 -0.1500 -0.1294
12790W        W30994  12.283  15.982  12.640  0.1092 -0.2118  0.3967
12791W        W30995   6.898   8.199   0.657  0.0958  0.0120 -0.1279
12792W        W30996   7.558  16.681   2.875 -0.0182 -0.1851 -0.1076
12793W        W30997   9.237  13.527  14.312  0.3524 -0.0191 -0.0504
12794W        W30998   6.704  14.586   2.638 -0.0053  0.0303 -0.1535
12795W        W30999   5.238  12.595  13.433  0.1539 -0.1038 -0.1491
12796W        W31000   5.157  18.654   1.779 -0.0312 -0.0740  0.0921
12797W        W31001  13.742   5.007  11.114 -0.0365 -0.1770 -0.1554
12798W        W31002   1.803  10.507  12.048  0.1314  0.1179 -0.1263
12799W        W31003   1.704   5.412   0.926 -0.1200 -0.1948  0.0646
12800W        W31004   8.765  11.567   4.973 -0.2219  0.2311  0.0844
12801W        W31005   7.503   6.080   0.139 -0.3114 -0.0436 -0.1373
12802W        W31006  11.919   1.288  13.500 -0.2943  0.1717  0.1352
12803W        W31007  11.118  16.409  10.932  0.1350  0.0359  0.0179
12804W        W31008  15.720  14.982   0.144 -0.2253 -0.0089  0.0129
12805W        W31009  17.753   7.088  14.555  0.1724  0.0766 -0.2269
12806W        W31010   7.523  10.776   4.132 -0.0343  0.1647  0.1379
12807W        W31011   5.952  12.519  15.020 -0.0362  0.0278 -0.0142
12808W        W31012  12.926   9.269   4.869  0.2786 -0.0781 -0.1909
12809W        W31013   4.154  17.300  14.119  0.2620 -0.1689 -0.0675
12810W        W31014  15.209  11.012   3.867 -0.1597  0.1840  0.0909
12811W        W31015   8.349   2.995   0.772  0.2686  0.0730 -0.0704
12812W        W31016   7.426   3.719  14.000 -0.0639  0.1805  0.1595
12813W        W31017  17.874  15.286   2.155  0.0716 -0.1474  0.1608
12814W        W31018   5.119   2.971  14.620  0.0074 -0.0098 -0.0106
12815W        W31019  18.481  15.396  13.430  0.1150 -0.2060  0.1134
12816W        W31020   2.779  16.550  12.976 -0.0168 -0.2027  0.3055
12817W        W31021   0.969   7.433   3.586 -0.1537 -0.0018  0.2785
12818W        W31022   3.943  10.585   0.986 -0.3531  0.1562  0.2928
12819W        W31023   0.877   2.377  14.949  0.1942 -0.1811  0.0985
12820W        W31024   4.272   4.686   3.368 -0.2236  0.0301 -0.2826
12821W        W31025   5.768   3.168   2.408  0.0255  0.0004  0.3676
12822W        W31026  10.284   6.234  15.068  0.1284  0.0617  0.4364
12823W        W31027  10.894   0.958   4.429 -0.1762 -0.0357  0.0474
12824W        W31028   2.596  18.654   1.147 -0.3217 -0.2047  0.2575
12825W        W31029   4.846  11.726   3.751 -0.1002  0.0224  0.0769
12826W        W31030  13.135  18.260   0.913 -0.1155  0.0216  0.0586
12827W        W31031   5.961   4.238  13.830 -0.0420 -0.0075  0.2019
12828W        W31032   5.086  12.527   1.060 -0.3473 -0.2231  0.2479
12829W        W31033  17.567   4.990  12.156 -0.0162 -0.0060 -0.0559
12830W        W31034  14.871   3.047  13.984  0.0849 -0.1096  0.0804
12831W        W31035  11.346   4.829  12.468  0.3905  0.1151 -0.1671
12832W        W31036  16.835  10.192  13.267 -0.0766  0.2897  0.0585
12833W        W31037  10.926   0.423  11.004 -0.1211  0.0121 -0.1757
12834W        W31038  17.108  18.542  13.409  0.1458 -0.1981  0.0964
12835W        W31039   8.907  11.630   1.309 -0.0536  0.2221  0.0640
12836W        W31040  13.629  14.589  14.732  0.1567 -0.1610  0.1617
12837W        W31041  15.414   5.596  14.991  0.0935 -0.1894 -0.0548
12838W        W31042   3.518  15.462  14.387  0.0259 -0.0907 -0.3079
12839W        W31043  16.455   3.384  14.233  0.0057 -0.2771 -0.2410
12840W        W31044   1.668   9.185  10.280 -0.2722 -0.0409  0.1039
12841W        W31045   6.444   1.615   0.919  0.2076  0.2455 -0.2135
12842W        W31046   9.507  15.588  14.775 -0.1336 -0.3229 -0.0583
12843W        W31047  13.918   9.846  13.183  0.0589  0.1337  0.2721
12844W        W31048  14.328  10.868  13.519 -0.2715  0.3446  0.0802
12845W        W31049  10.401  10.183   2.188  0.4078 -0.1737  0.1237
12846W        W31050   3.180  16.721  14.956 -0.0118 -0.0113  0.0481
12847W        W31051  11.074  13.298  10.579 -0.5128  0.3407  0.3746
12848W        W31052   6.800   9.303  10.928 -0.2165 -0.2500 -0.0470
12849W        W31053  10.989  15.514  11.582  0.2289 -0.1248 -0.0322
12850W        W31054   6.365   0.188  13.778 -0.1460  0.2767 -0.1776
12851W        W31055  14.595   3.836  11.259  0.0354  0.1846  0.0162
12852W        W31056   3.910   8.427   3.198  0.1223  0.2031  0.0857
12853W        W31057  15.126  17.224   2.015  0.1171  0.2426 -0.0760
12854W        W31058   8.625  13.095  11.094 -0.0397  0.1042 -0.0380
12855W        W31059   5.204   9.278  15.110 -0.0617 -0.0213 -0.0953
12856W        W31060  15.728  17.664   3.260  0.0370 -0.1551  0.3153
12857W        W31061  14.239   3.986   2.857  0.0127 -0.0396  0.1694
12858W        W31062   7.336  15.071  15.081 -0.0061  0.1504  0.1121
12859W        W31063   6.767   6.615   2.175  0.1360 -0.0983 -0.1299
12860W        W31064  10.449   0.703   1.342  0.3639 -0.4041 -0.1945
12861W        W31065   2.433   8.474  14.963  0.0823 -0.1134 -0.1391
12862W        W31066   4.923   6.697  14.692 -0.1645 -0.0508 -0.3880
12863W        W31067  13.414  17.089  14.109 -0.2096  0.1543  0.2982
12864W        W31068   5.530  12.727  14.005  0.3160  0.0759  0.1240
12865W        W31069  18.299   5.096  14.959  0.0777 -0.1267  0.2545
12866W        W31070  17.501  13.905  13.421 -0.0611  0.0008  0.1846
12867W        W31071  12.551   0.799  14.123 -0.2811  0.1699 -0.0451
12868W        W31072   6.152  12.934   0.709  0.0954  0.2475  0.0769
12869W        W31073  13.904   8.706   0.052  0.0660  0.3173  0.3570
12870W        W31074  10.241  12.951  12.330 -0.0593  0.1667  0.0405
12871W        W31075   8.126  16.652  13.527 -0.1326  0.1279  0.2082
12872W        W31076   0.093   7.156  11.866 -0.2767  0.0664 -0.4606
12873W        W31077  16.307   2.655   0.770  0.1557 -0.0611 -0.2052
12874W        W31078  11.374   8.859   4.360  0.0736 -0.3896  0.1752
12875W        W31079  10.903   5.319   3.702 -0.1313 -0.2709 -0.0792
12876W        W31080  13.049   8.050   5.108 -0.2108 -0.1517 -0.1211
12877W        W31081   6.101  12.383   0.520  0.1511 -0.0405 -0.2502
12878W        W31082   6.534   5.905   2.891  0.1090  0.5492 -0.0247
12879W        W31083  10.581  11.540   2.034  0.1495 -0.1279 -0.3764
12880W        W31084   0.501  15.307  14.432 -0.0785 -0.2189 -0.2559
12881W        W31085  11.242  14.878  12.670  0.0144  0.0804  0.0404
12882W        W31086   3.787   2.186  11.013 -0.1695  0.0299  0.0523
12883W        W31087   3.000   8.583  12.360 -0.1190 -0.0897 -0.0728
12884W        W31088   6.056  17.658   1.333 -0.1525  0.2559  0.1963
12885W        W31089  10.368  11.157  13.092 -0.1209 -0.1199 -0.1455
12886W        W31090   4.870   9.771   1.538 -0.0814  0.2491  0.3077
12887W        W31091  18.248   3.521  14.927  0.0416  0.1437  0.0919
12888W        W31092   6.582  16.279   2.663 -0.1265  0.1117 -0.0107
12889W        W31093   5.154  10.824  12.341  0.1075  0.3724  0.1165
12890W        W31094  12.199   9.321   1.161 -0.0854 -0.0288 -0.0893
12891W        W31095   7.327  11.253   2.092  0.3063 -0.2466 -0.1192
12892W        W31096  17.056  12.858   2.838  0.0357 -0.1780  0.2440
12893W        W31097   5.465   4.307  10.981  0.0432 -0.0962  0.0843
12894W        W31098   4.622  17.525  14.140 -0.1605  0.3386 -0.1178
12895W        W31099   6.326  18.343  15.042  0.1467 -0.2580 -0.1338
12896W        W31100   3.349   7.664   0.009  0.1942 -0.0314  0.1062
12897W        W31101   3.777   2.943  14.243  0.0926 -0.2021 -0.1331
12898W        W31102   3.942  10.729   4.270 -0.2299 -0.1463 -0.3424
12899W        W31103  13.701  18.525  13.369  0.0769 -0.0281  0.2493
12900W        W31104   2.586   1.633   0.078  0.2586  0.0693 -0.3183
12901W        W31105   5.826  12.106   2.225 -0.0062 -0.4108 -0.1298
12902W        W31106  10.184   6.248  13.113 -0.0213  0.2611 -0.0027
12903W        W31107  14.607   1.367   3.153  0.0669 -0.2471 -0.0983
12904W        W31108   8.953   0.341  11.307 -0.0004  0.0908  0.3169
12905W        W31109  10.083  11.260   5.106 -0.0157 -0.4697 -0.4186
12906W        W31110  13.154  15.543  14.735 -0.3032 -0.2786 -0.2629
12907W        W31111   9.243  14.831  11.233 -0.4226  0.3766 -0.0363
12908W        W31112   4.165  14.381  13.741 -0.1175 -0.0877  0.0868
12909W        W31113  11.498   8.395   4.527 -0.0510 -0.0751  0.3293
12910W        W31114   5.389   2.876   2.819  0.3582 -0.0240  0.1909
12911W        W31115  16.188  17.386  14.131 -0.0612  0.0389  0.1378
12912W        W31116   9.340   5.495  14.711  0.0638  0.1001 -0.0479
12913W        W31117  18.309   5.812   1.852 -0.2501 -0.1452 -0.1480
12914W        W31118   6.617  13.975  11.270  0.0396 -0.0592 -0.1847
12915W        W31119   5.039   1.471   4.454 -0.0686 -0.2002 -0.1287
12916W        W31120   3.211   3.896   3.538  0.0784  0.0085 -0.2136
12917W        W31121   3.564   2.633   2.161  0.3898  0.3333  0.0562
12918W        W31122   4.786  16.639   3.804 -0.1755  0.3176  0.0835
12919W        W31123  11.405   7.407  14.286  0.0542 -0.1772  0.2210
12920W        W31124  12.651  12.082   3.653  0.0861  0.0131 -0.0166
12921W        W31125   9.363   2.241  13.294  0.0250 -0.1233 -0.0222
12922W        W31126   7.643  14.005  11.826  0.1874 -0.1521  0.1870
12923W        W31127   7.524  12.193  12.966 -0.0329 -0.3336 -0.0336
12924W        W31128   7.359   3.993   3.454  0.2172  0.2073  0.3682
12925W        W31129   8.961  14.863   4.429 -0.2214 -0.0711 -0.2299
12926W        W31130  15.211  10.387   3.292 -0.0487  0.1103  0.0613
12927W        W31131   6.176   1.860  15.436 -0.1819 -0.1630 -0.1792
12928W        W31132   1.567  14.966  11.826  0.3488 -0.0289  0.1119
12929W        W31133   9.318   7.401   4.664  0.1756 -0.3824 -0.1311
12930W        W31134  10.675   5.107  11.256 -0.1106  0.0328  0.0721
12931W        W31135  14.837  16.226  12.706 -0.1729 -0.0295  0.2761
12932W        W31136  12.850  16.278   2.422  0.1700  0.0664  0.0185
12933W        W31137   4.607  17.933  12.118  0.3347  0.0531  0.3545
12934W        W31138  15.181  11.392  12.595 -0.0533 -0.0647  0.2143
12935W        W31139   6.944  15.026   0.895  0.0532  0.1691  0.1186
12936W        W31140   2.780  11.268  12.214  0.3838  0.1823  0.0201
12937W        W31141   0.370   4.991  14.023  0.1512  0.0671 -0.0324
12938W        W31142  16.848  11.026  14.613 -0.1603 -0.0065 -0.0188
12939W        W31143   5.446  18.554  10.591 -0.0281 -0.0518  0.2412
12940W        W31144   4.066   4.008  12.637  0.0781  0.2665 -0.0709
12941W        W31145  16.792   9.607   1.274 -0.1973  0.0285 -0.2508
12942W        W31146   3.519   3.111  13.488 -0.3499 -0.1172 -0.4617
12943W        W31147   0.014  18.358  14.379 -0.1347  0.1011 -0.0524
12944W        W31148  16.681   4.764   5.723  0.1415  0.0956 -0.0041
12945W        W31149   0.057  10.256   2.038  0.0866 -0.0790 -0.0118
12946W        W31150   6.022  10.501   4.514 -0.1622 -0.1577 -0.3569
12947W        W31151  14.195   2.247   4.123 -0.1069  0.3096 -0.0093
12948W        W31152   2.258   6.086  13.013  0.0816  0.0992 -0.0535
12949W        W31153   4.167   1.020   1.884  0.0492 -0.2736 -0.0258
12950W        W31154   0.005  17.009   9.808  0.2125  0.2522 -0.2965
12951W        W31155   8.920  18.163  11.126 -0.0587 -0.1367 -0.1246
12952W        W31156   5.201   9.023   2.181  0.0149 -0.0585 -0.1267
12953W        W31157  14.157   3.072  12.489  0.1484  0.1603 -0.1604
12954W        W31158   0.909   5.722  14.558 -0.3099  0.1078 -0.0077
12955W        W31159  11.444  14.688   3.002  0.0370 -0.0372 -0.0728
12956W        W31160  12.967   3.125  14.413  0.3484  0.1953  0.0496
12957W        W31161   1.822   8.480   1.327  0.0321  0.1684 -0.2386
12958W        W31162   8.603  11.376  11.419 -0.3769 -0.4867  0.1271
12959W        W31163  14.773  14.493  15.458  0.2674  0.1873 -0.0365
12960W        W31164   5.271   6.269  13.662  0.0174 -0.0814  0.0271
12961W        W31165  16.876  15.795   4.393 -0.0196  0.2727 -0.3898
12962W        W31166  11.771   4.638   1.347  0.4196 -0.0253  0.3258
12963W        W31167  15.236   7.955  13.663  0.0028  0.0723 -0.0501
12964W        W31168  16.614  16.599  11.849 -0.1702 -0.0875 -0.0675
12965W        W31169  13.524   1.528  12.080 -0.1594 -0.1639  0.1299
12966W        W31170  12.712  16.282   0.620  0.2421  0.3788 -0.1704
12967W        W31171  11.642  13.118  13.470 -0.1899 -0.0762  0.0687
12968W        W31172   8.369  13.206  12.050  0.1686  0.0938  0.0519
12969W        W31173  12.799   3.119   4.114 -0.0456  0.3059 -0.0345
12970W        W31174  10.265  11.891  14.971 -0.1407 -0.3068  0.2659
12971W        W31175   6.345  15.994   4.599 -0.0274  0.2627  0.0183
12972W        W31176   4.999   6.749  13.763  0.0832  0.1298  0.0756
12973W        W31177  12.770   0.775  10.881 -0.0410 -0.0195 -0.3650
12974W        W31178   0.939   4.277  15.152 -0.0862  0.1845 -0.0480
12975W        W31179  15.366   8.450  11.827  0.0280 -0.0735 -0.1407
12976W        W31180  15.155   9.451  13.110  0.1963  0.1283  0.0695
12977W        W31181   3.759  16.900   3.042 -0.1197  0.0785  0.0280
12978W        W31182  17.605  15.268   4.826 -0.1274  0.1025 -0.1585
12979W        W31183  10.838   3.730  11.184 -0.1127 -0.1070 -0.0116
12980W        W31184  14.631   3.533   1.555 -0.0697 -0.0357 -0.1270
12981W        W31185   6.374   7.866   4.475  0.1223 -0.0314  0.1319
12982W        W31186   0.403   3.096   4.271  0.0428  0.0721 -0.1202
12983W        W31187  11.193   4.918  14.342 -0.2340 -0.0991 -0.1121
12984W        W31188   0.992  12.348   3.585  0.0958 -0.0851 -0.0488
12985W        W31189   3.626   0.584  12.240  0.3736 -0.0778 -0.0326
12986W        W31190   6.296  17.146   2.781  0.2262  0.0112  0.0121
12987W        W31191   1.022  10.025   0.787 -0.2314  0.1599 -0.1188
12988W        W31192  11.046   6.220  11.706  0.3846  0.0729 -0.1697
12989W        W31193  14.848   9.637   2.410  0.3766  0.1863  0.1628
12990W        W31194   3.328  16.118   3.470  0.2202  0.0369  0.0247
12991W        W31195   8.746  10.134  12.042  0.1475  0.0717 -0.0911
12992W        W31196   6.617  13.910  14.044  0.0712 -0.2372  0.3689
12993W        W31197   4.887  13.944  13.205  0.0630  0.2307 -0.2891
12994W        W31198   3.782  11.740   3.192  0.1220 -0.0749 -0.0155
12995W        W31199   5.280  16.806  10.908 -0.2670 -0.2122 -0.0301
12996W        W31200   8.126   1.157   2.607 -0.0659 -0.0499 -0.0300
12997W        W31201   5.157   9.320   4.695 -0.1188  0.1360 -0.1168
12998W        W31202  10.803   5.761   1.572 -0.0351 -0.0290  0.0221
12999W        W31203   4.705  18.420  14.503 -0.0531  0.0627 -0.2167
13000W        W31204  11.326   7.719   0.910  0.2071 -0.3130  0.1675
13001W        W31205  13.327   5.643  14.892  0.1430  0.0869  0.1171
13002W        W31206   6.068   0.564   3.277 -0.0268  0.1244  0.0096
13003W        W31207  17.292   4.355  12.794 -0.3230  0.2301 -0.2725
13004W        W31208   6.603   2.649   1.945 -0.0494 -0.0280 -0.0831
13005W        W31209   2.946  18.129  12.835 -0.0139  0.0757  0.0811
13006W        W31210   9.495   9.738   4.210  0.1317 -0.2219 -0.1919
13007W        W31211  10.225   2.224   0.841 -0.0673 -0.0152 -0.0027
13008W        W31212   2.492  18.404   0.550 -0.0702 -0.0129 -0.0363
13009W        W31213   7.462   0.807  13.574  0.1037 -0.2456  0.0004
13010W        W31214  10.662   2.359  12.830 -0.1007 -0.2514 -0.1898
13011W        W31215   4.300  16.239   0.132  0.2908  0.0410 -0.1942
13012W        W31216   5.733  12.818  10.529 -0.2260  0.0003 -0.0458
13013W        W31217   8.112   0.045  13.430  0.2200  0.1562  0.2234
13014W        W31218   6.355   1.816  11.970  0.0680 -0.1205 -0.2938
13015W        W31219  11.648  14.986   1.761  0.1402  0.2418  0.0738
13016W        W31220  13.090  18.230  10.999  0.0539 -0.0460 -0.0193
13017W        W31221   2.736   6.718  11.963 -0.2975 -0.0648  0.2089
13018W        W31222   7.435   2.299   0.108  0.1217  0.1078  0.0068
13019W        W31223   3.197  13.409  11.582 -0.4447  0.2261  0.0052
13020W        W31224   2.638   5.270   0.543 -0.1084 -0.1106 -0.0944
13021W        W31225  17.203   9.044  13.738  0.0330  0.0420  0.3108
13022W        W31226  18.051   0.733  11.500 -0.2725 -0.2703  0.2953
13023W        W31227  13.050  10.827   1.200 -0.0697 -0.0457  0.3160
13024W        W31228   7.411  15.617  12.281 -0.0988 -0.1938 -0.0689
13025W        W31229   7.025   0.528   1.758  0.0882 -0.3604 -0.0290
13026W        W31230  13.965  13.225   0.356  0.2103 -0.0403 -0.2119
13027W        W31231   4.975   9.532   2.327 -0.1351  0.0245  0.0841
13028W        W31232   6.050   6.906   2.669 -0.1081 -0.1540 -0.0477
13029W        W31233   2.056  13.820   2.293  0.0614  0.1765  0.0358
13030W        W31234   2.227   3.391  13.431  0.1036 -0.1051  0.3662
13031W        W31235  14.922  12.471  12.769 -0.0355  0.0608  0.2508
13032W        W31236  10.455   0.706  10.218 -0.1136 -0.0084  0.0749
13033W        W31237   1.725   0.411   1.991  0.2541  0.0672  0.1599
13034W        W31238  12.993   2.222  14.874  0.0243  0.1610  0.2169
13035W        W31239   4.666  13.028  12.666 -0.0442 -0.0575  0.0806
13036W        W31240   0.912   8.079  14.102 -0.1756  0.2122  0.1072
13037W        W31241   2.618  10.758   1.366  0.1913  0.2150 -0.0244
13038W        W31242  17.691  10.343  11.827 -0.1104 -0.0471  0.1899
13039W        W31243   0.401   2.845   2.777  0.0812  0.2207 -0.0054
13040W        W31244   8.894   9.749   2.976 -0.1206  0.0650  0.3887
13041W        W31245  10.132  10.214  12.822  0.1091 -0.3201  0.1033
13042W        W31246   1.364   6.584   1.103 -0.0892 -0.1574  0.2672
13043W        W31247  17.022  18.599   3.579 -0.0011  0.1606 -0.1777
13044W        W31248   0.396  13.630  11.867 -0.2123  0.0004  0.1396
13045W        W31249  18.120  17.963   2.258 -0.1452  0.2200 -0.0810
13046W        W31250  13.678   7.650  11.713 -0.0967 -0.2813  0.1334
13047W        W31251   2.351  16.307  13.843  0.1553 -0.1176  0.1225
13048W        W31252  11.116  15.016   3.436 -0.0736 -0.0314  0.0283
13049W        W31253   9.933  18.071  12.655  0.2888 -0.2949  0.2169
13050W        W31254  15.977  10.280   3.071 -0.0207  0.3888 -0.2208
13051W        W31255   4.758   3.386   2.910 -0.3521 -0.0575 -0.1044
13052W        W31256   8.854  17.625  10.235  0.0798  0.4493 -0.2118
13053W        W31257   9.772   5.390  13.025 -0.4183  0.2453 -0.1380
13054W        W31258  14.139   3.212  12.966  0.2402 -0.1351  0.0089
13055W        W31259   3.318   9.266   4.075  0.3938  0.0664  0.0606
13056W        W31260   0.535   8.294   2.550 -0.2448  0.4190  0.0646
13057W        W31261   8.610   2.923  10.870 -0.1913 -0.1128  0.0597
13058W        W31262   0.985   3.368  14.373  0.2846  0.2723  0.0803
13059W        W31263   1.633  17.677  11.676 -0.1958  0.0095 -0.0817
13060W        W31264   1.569   2.429   1.840 -0.2991 -0.0448 -0.0726
13061W        W31265   5.436   4.105  12.823  0.0062  0.2110  0.0502
13062W        W31266  14.184   9.355   3.118  0.2160 -0.0289  0.0311
13063W        W31267  16.890   5.646  12.297 -0.0572 -0.1302  0.1078
13064W        W31268   6.591  10.969   4.017 -0.0613  0.1049 -0.1143
13065W        W31269   6.209  12.426   1.237 -0.0663 -0.5377  0.0980
13066W        W31270  17.339   4.831   4.980  0.1216  0.0487 -0.1230
13067W        W31271   5.244   8.355  12.396  0.1400  0.2634 -0.4119
13068W        W31272  12.282  10.130   1.363  0.0194 -0.0137  0.1140
13069W        W31273  11.822   2.284  11.490  0.0124 -0.0571 -0.1588
13070W        W31274  16.795   9.384  13.871 -0.1081  0.0504  0.0078
13071W        W31275  15.380  12.260   3.722  0.0132  0.2186 -0.1447
13072W        W31276   4.110   5.771   3.829  0.1217  0.1888  0.3257
13073W        W31277   2.774  17.747   1.023  0.2467 -0.0174  0.0995
13074W        W31278   0.514   9.890   1.030  0.2629  0.2079  0.1289
13075W        W31279  13.009  11.133   0.051  0.3443 -0.0327 -0.0635
13076W        W31280   5.376  15.725   1.024 -0.0200  0.2155 -0.0149
13077W        W31281   2.519   3.345  13.804 -0.0647 -0.2186 -0.0772
13078W        W31282   8.370   4.865  14.249  0.3118  0.0321  0.1306
13079W        W31283   5.943  17.395  11.516 -0.0894 -0.0483  0.0098
13080W        W31284   6.310  10.560  15.439  0.1138 -0.0841 -0.1849
13081W        W31285  14.220   5.916   1.099 -0.3438 -0.0004 -0.0268
13082W        W31286  13.517  10.061   1.670  0.0363 -0.0638 -0.0228
13083W        W31287  10.434  14.494   3.258 -0.0491  0.3194 -0.0403
13084W        W31288   4.499   4.953  13.634 -0.1331 -0.0947  0.0461
13085W        W31289  17.978  18.500   2.098 -0.0105  0.0973  0.0627
13086W        W31290  13.380   4.588   0.166 -0.0459 -0.0450 -0.1226
13087W        W31291  14.194   5.165  11.006  0.3136 -0.0773 -0.1653
13088W        W31292  10.611   2.813   1.395  0.4169 -0.3128  0.0880
13089W        W31293  10.170  14.738   1.546 -0.1147 -0.0971  0.0607
13090W        W31294   8.976   2.566  14.473 -0.1775 -0.1277 -0.2038
13091W        W31295   9.823  12.498  11.601 -0.2737 -0.0108  0.5161
13092W        W31296   0.065   1.099   3.448  0.0337  0.0086  0.3960
13093W        W31297   7.128   7.449   1.581  0.0350  0.0445 -0.3444
13094W        W31298  12.626  17.802   4.007 -0.0807  0.0998  0.0895
13095W        W31299   9.322  10.090   5.207  0.1408 -0.1143  0.1187
13096W        W31300   6.289  16.518   4.241  0.0056  0.1522  0.0839
13097W        W31301   8.186  13.884  14.312  0.0574  0.1031 -0.0749
13098W        W31302   8.519   0.395   1.286  0.3437 -0.3001  0.1918
13099W        W31303   3.011  11.007  12.633 -0.0949  0.0779  0.4193
13100W        W31304   0.336   3.822   5.231 -0.2050 -0.1627  0.0402
13101W        W31305   6.948  16.803  11.064 -0.0073  0.2425 -0.3700
13102W        W31306   6.084  10.003  10.790  0.1177  0.2459 -0.0752
13103W        W31307  10.843   8.260  11.927  0.0861  0.2827  0.0879
13104W        W31308   6.763  16.434  12.028 -0.2089  0.3632  0.1450
13105W        W31309   2.117  15.548   0.989 -0.2064  0.1843  0.0692
13106W        W31310  12.207  14.349   2.955  0.0644 -0.0547  0.1327
13107W        W31311  11.380   9.453  11.729 -0.1975  0.2061 -0.0359
13108W        W31312  12.302  14.213  15.071 -0.1527  0.3809  0.1823
13109W        W31313  18.526   3.533   0.270 -0.1750  0.0636  0.1290
13110W        W31314   1.970  17.478  14.836 -0.0549 -0.1210  0.0359
13111W        W31315   8.903  16.298   1.379 -0.0638  0.1440  0.1176
13112W        W31316  18.415   5.645  14.994  0.1443  0.0483  0.2080
13113W        W31317  17.610   0.530   1.137  0.0270  0.0540 -0.2506
13114W        W31318   9.606  18.478   0.138 -0.1862 -0.1753 -0.0428
13115W        W31319   0.028   7.825  13.151  0.0032 -0.0229 -0.1740
13116W        W31320   1.836   8.024  12.116  0.2588  0.1214 -0.0878
13117W        W31321   4.551  10.022   0.014 -0.2543  0.2282 -0.0088
13118W        W31322   4.328   4.694  10.392  0.2709  0.1373  0.0264
13119W        W31323  13.554   6.740   0.368  0.1190 -0.0699  0.2733
13120W        W31324  11.948   5.423   3.963 -0.3754 -0.1360 -0.0768
13121W        W31325  13.944  11.634  14.268 -0.0355  0.0626  0.0120
13122W        W31326   5.140  11.505   2.430  0.1132  0.1281  0.0028
13123W        W31327   7.298   1.843  14.293  0.1152 -0.2931 -0.0358
13124W        W31328   5.269  14.527   1.164 -0.0798  0.0913 -0.1985
13125W        W31329   9.192  17.685  11.197  0.0089 -0.0145  0.1745
13126W        W31330  17.022  13.445  11.580 -0.0187  0.0254 -0.2598
13127W        W31331  14.229   4.734   4.371 -0.1789 -0.0006 -0.4594
13128W        W31332  11.279  17.103   4.459 -0.1171 -0.0395 -0.0077
13129W        W31333   1.730   9.711   3.800  0.0088 -0.0815 -0.2762
13130W        W31334   1.417   5.536  10.924  0.0781  0.3029  0.3600
13131W        W31335   0.043   1.784   0.529  0.3019  0.1174 -0.1699
13132W        W31336   7.127   7.161   0.699  0.2596 -0.1947  0.1236
13133W        W31337   2.449   6.473  14.787  0.0111  0.0469  0.1074
13134W        W31338   2.558   4.437  15.303  0.0004 -0.1074  0.1554
13135W        W31339   8.177   6.624   0.255 -0.4030 -0.1224  0.0955
13136W        W31340   6.110  15.837  10.597 -0.0441  0.0504 -0.3808
13137W        W31341   8.812  10.138   4.938 -0.0392  0.0121  0.4713
13138W        W31342   3.697   0.625   3.584 -0.2020  0.0745  0.1765
13139W        W31343   2.845  15.826   1.613  0.0664  0.2036  0.2476
13140W        W31344   4.684   2.249   4.170 -0.0184  0.0556  0.1190
13141W        W31345  14.324   1.726  11.215 -0.1485  0.4517 -0.2246
13142W        W31346   1.758   6.268  11.203  0.2565  0.1761  0.3746
13143W        W31347  16.831  17.644  11.127  0.5074  0.0353  0.1811
13144W        W31348   2.200   2.007  14.060  0.2372  0.1609  0.1482
13145W        W31349  10.546  17.598  14.769 -0.2521 -0.2308  0.5922
13146W        W31350   0.632  15.732   0.857 -0.1019 -0.0175  0.3800
13147W        W31351  10.291   5.680   4.214 -0.0619  0.4795 -0.1499
13148W        W31352  17.287  13.437  14.626  0.1566 -0.1716 -0.4178
13149W        W31353   6.064   2.826   1.064 -0.1996  0.2720  0.1446
13150W        W31354  18.246   4.055   2.375  0.1243  0.0164 -0.1917
13151W        W31355   1.082  11.674  10.601  0.0037 -0.3905  0.0376
13152W        W31356  15.756   6.814  12.668 -0.4991 -0.0027  0.1685
13153W        W31357   2.784   4.764   1.271  0.1046 -0.1963 -0.1316
13154W        W31358  10.336  16.677   0.753 -0.1292  0.1349  0.0222
13155W        W31359   7.158   5.977  15.251  0.0244 -0.1208 -0.2259
13156W        W31360  18.594   2.085   3.192 -0.3672 -0.4039 -0.0048
13157W        W31361  17.258   5.897   4.738  0.0044  0.2142  0.2680
13158W        W31362   9.423  15.211   1.071  0.0440 -0.0498  0.2150
13159W        W31363   4.911   7.895  12.505 -0.5146 -0.0987 -0.3040
13160W        W31364   0.053  12.581   2.317 -0.1287  0.0817  0.0184
13161W        W31365   2.727   5.232   1.110 -0.3139 -0.1281  0.1247
13162W        W31366   0.572  13.326   3.400  0.0855  0.0317 -0.2690
13163W        W31367  16.542  13.823  12.263  0.4948 -0.1000  0.3809
13164W        W31368   8.844   1.843  10.936  0.3652 -0.0023 -0.2810
13165W        W31369  12.219  17.170  15.307  0.1119  0.2117  0.0588
13166W        W31370  13.806  17.433   2.751 -0.2116 -0.1044  0.0284
13167W        W31371  16.197  17.705   4.863  0.1586  0.1103  0.0195
13168W        W31372   4.870   1.761  12.943 -0.0425  0.0696  0.0698
13169W        W31373   1.198   1.904  11.311  0.0152  0.0328  0.0778
13170W        W31374   3.854   9.217   2.351 -0.0352  0.0230  0.3479
13171W        W31375   4.388   3.887   0.576 -0.1282 -0.1256 -0.1276
13172W        W31376  15.653   6.068  13.053 -0.2346  0.1233 -0.1915
13173W        W31377  11.733  15.102   1.307 -0.1006 -0.1608  0.1770
13174W        W31378   8.507   4.598  10.119 -0.0536 -0.2057  0.2063
13175W        W31379   6.185   1.288   2.266 -0.1509  0.0352  0.0080
13176W        W31380   6.075  14.948  13.504  0.0131  0.1841 -0.0270
13177W        W31381  18.403  17.521  12.798 -0.1519  0.1917 -0.2651
13178W        W31382  18.493  18.587  14.774  0.1852 -0.1272 -0.0834
13179W        W31383  18.166   3.430  13.030  0.1098 -0.0817 -0.1929
13180W        W31384   4.959   0.413   0.663 -0.0831 -0.2197 -0.0071
13181W        W31385  17.744  10.525  12.809  0.0453 -0.2591  0.1369
13182W        W31386   1.123   9.198   0.002 -0.1115  0.1372 -0.2583
13183W        W31387  14.465  11.437   2.070 -0.2766  0.1929 -0.0713
13184W        W31388  14.673  15.294  11.822 -0.1974  0.1978  0.1685
13185W        W31389  15.033   3.158  15.013  0.2385  0.1737  0.2040
13186W        W31390  12.205   2.461   0.720 -0.0126 -0.1786 -0.2917
13187W        W31391   6.397  10.188  12.362 -0.2751 -0.1450  0.1907
13188W        W31392   5.604  16.718  14.254 -0.1870  0.0361  0.0080
13189W        W31393   3.727  13.659  12.976  0.0501  0.0241 -0.2318
13190W        W31394  14.483   6.204  11.410 -0.1516 -0.1726 -0.1455
13191W        W31395   4.826  15.041   0.238 -0.1942 -0.0495  0.1503
13192W        W31396  11.261  12.780   1.243  0.3787 -0.2234 -0.1858
13193W        W31397  10.089  14.442   4.262  0.2147  0.1550  0.0066
13194W        W31398  17.846  15.975  13.585  0.1214 -0.0723  0.0449
13195W        W31399  15.391  17.671   1.884 -0.1632  0.1650  0.3753
13196W        W31400   6.955  17.937   0.157 -0.1294 -0.2508 -0.0705
13197W        W31401   8.342  10.426  13.003 -0.0018 -0.3521 -0.2593
13198W        W31402  11.053  14.554  10.663 -0.0925 -0.0852 -0.2861
13199W        W31403  12.950  10.623   9.979  0.3554  0.1654  0.0782
13200W        W31404   0.457   0.918   0.689  0.1521 -0.0157 -0.0675
13201W        W31405   2.541   3.389  14.418 -0.0609  0.2084 -0.0971
13202W        W31406   8.213  10.555   2.301  0.4227  0.1256  0.0068
13203W        W31407  11.490  17.612  12.264  0.3230  0.0754 -0.1863
13204W        W31408  15.128   7.939   4.529 -0.1621 -0.3988  0.1220
13205W        W31409   2.211   7.602   2.535 -0.2096  0.2058 -0.2419
13206W        W31410  14.862   1.087  14.081  0.1236  0.4205 -0.2089
13207W        W31411  15.430  13.295   2.652  0.1168 -0.0783 -0.1798
13208W        W31412   8.407   3.109  15.464 -0.1224  0.0608  0.2240
13209W        W31413   8.130  11.588  11.482  0.1920 -0.0231 -0.1129
13210W        W31414   9.722   1.720  14.787  0.0332 -0.4820  0.0905
13211W        W31415  11.217  14.119   1.777  0.0564 -0.4242 -0.1222
13212W        W31416  11.189   2.988   2.347  0.0239  0.0942  0.0056
13213W        W31417  16.324  13.175  12.268  0.0004  0.1375 -0.0105
13214W        W31418   6.440   5.768  12.080 -0.0632  0.1029 -0.0563
13215W        W31419   5.249   4.973  14.110  0.1831 -0.0005  0.1914
13216W        W31420  13.484  18.332   2.127  0.0745 -0.4200  0.2838
13217W        W31421   9.536  14.979   5.007  0.2266 -0.2512  0.1751
13218W        W31422  12.915  14.477   1.419 -0.1071  0.0455  0.0245
13219W        W31423  15.594  13.435   1.088 -0.3326 -0.1608  0.1445
13220W        W31424   9.163  12.124   6.033  0.0620  0.3002 -0.3016
13221W        W31425   4.358  16.379   3.918  0.2302 -0.1282 -0.1234
13222W        W31426  16.641   3.480   1.977 -0.3975 -0.0188 -0.3804
13223W        W31427   3.906  10.848   3.200  0.1223 -0.1927  0.0294
13224W        W31428  14.996  15.767   2.616  0.0846  0.0358 -0.2564
13225W        W31429   1.940  17.208  10.905  0.0680  0.3117  0.0135
13226W        W31430   7.484  15.565  14.147 -0.1016  0.0038  0.2225
13227W        W31431   9.413   9.828   0.466  0.0721 -0.1857 -0.0596
13228W        W31432   6.656  17.710   4.998  0.3583 -0.0690  0.0393
13229W        W31433   1.851   0.480  15.386 -0.0842 -0.0182 -0.1050
13230W        W31434   4.269   3.580   4.361  0.2182 -0.0157  0.1503
13231W        W31435   1.468  10.640   0.242 -0.4267  0.0744  0.1236
13232W        W31436  16.567  13.607   1.059  0.1371  0.1202  0.2593
13233W        W31437  15.650   9.502  10.848  0.1284  0.1401 -0.1037
13234W        W31438   5.892   2.397  11.376 -0.2221  0.0492 -0.2695
13235W        W31439  16.871   4.468   0.106  0.0540  0.2691  0.2164
13236W        W31440   1.878   5.612   2.959  0.3687 -0.2207 -0.1248
13237W        W31441  18.225   9.141  13.085  0.2195  0.0566 -0.1488
13238W        W31442  14.118   3.450   1.674 -0.0034  0.1923 -0.0516
13239W        W31443   5.451   2.641   1.744 -0.0491 -0.0501  0.4480
13240W        W31444   4.384   0.181  11.580 -0.1059 -0.1345 -0.1037
13241W        W31445   0.846   1.498   0.323  0.1216  0.2153 -0.0510
13242W        W31446  12.528   6.239  14.479 -0.2958  0.2918 -0.1556
13243W        W31447   1.901  16.739   3.815  0.0073 -0.2584  0.0387
13244W        W31448   1.269   5.051   1.783  0.1773  0.2233  0.1371
13245W        W31449   0.365   6.690   1.258 -0.1256 -0.2028 -0.1461
13246W        W31450  18.384   9.670  12.726  0.0215  0.1159 -0.2535
13247W        W31451   9.868  11.151   4.663 -0.0089 -0.2178 -0.2985
13248W        W31452  12.909  13.254  12.599 -0.1413  0.3377 -0.1360
13249W        W31453   8.851   4.085  14.087  0.2142 -0.0511 -0.2261
13250W        W31454  13.851   5.974   2.161  0.2052  0.0033 -0.1621
13251W        W31455   9.672   0.742   3.621 -0.0854  0.0530 -0.3621
13252W        W31456   2.317   2.979  12.488 -0.0120  0.3764 -0.2255
13253W        W31457   6.939  18.450  15.140 -0.0688 -0.1684 -0.0097
13254W        W31458  16.031   5.822  14.535 -0.0342 -0.1210  0.1864
13255W        W31459   5.527   1.301  10.361  0.1226 -0.0545 -0.1067
13256W        W31460  17.180   5.353   4.854 -0.0527  0.1691  0.1510
13257W        W31461   3.753   1.833  12.820  0.0578 -0.1869 -0.0630
13258W        W31462   7.133  11.163   4.093  0.2203  0.2450  0.2082
13259W        W31463   4.397  16.074   1.268 -0.3420  0.1043  0.2064
13260W        W31464  18.614  14.128  10.310  0.0403 -0.0196  0.3340
13261W        W31465  16.105  13.812   0.671  0.1125  0.0488  0.2620
13262W        W31466   1.971   4.516   5.678  0.0960 -0.1711  0.0791
13263W        W31467  10.406   8.059   2.879 -0.1978  0.1645  0.1418
13264W        W31468  17.705  16.129   2.850  0.0040 -0.0803  0.0034
13265W        W31469   0.106   2.522   3.031 -0.1745 -0.0245  0.0968
13266W        W31470   4.077   5.886  13.586  0.0327 -0.0062 -0.1378
13267W        W31471   8.613   1.093  11.028  0.4302 -0.0276  0.0111
13268W        W31472   5.829  11.741  14.292 -0.1882  0.0391 -0.0833
13269W        W31473   2.405  12.632   1.097 -0.3714  0.0803 -0.1457
13270W        W31474   5.962   0.448   1.669 -0.0649 -0.0177  0.0266
13271W        W31475  18.460   9.981  11.116  0.4204  0.2622 -0.2266
13272W        W31476   5.815  16.136   2.020 -0.3177  0.1566 -0.0820
13273W        W31477  12.063   6.329  14.662 -0.1705 -0.0433 -0.1284
13274W        W31478   9.954   2.160  15.283 -0.0268  0.0729  0.3610
13275W        W31479   8.236  13.973  10.644  0.3561 -0.0669  0.0826
13276W        W31480   8.957   6.742   4.297 -0.0802 -0.1921  0.0662
13277W        W31481   4.133  12.758   4.055  0.0338 -0.3968 -0.2454
13278W        W31482   5.144  14.752  14.974 -0.1675 -0.2034 -0.2170
13279W        W31483   1.576   9.458   1.014 -0.1972 -0.0274 -0.1784
13280W        W31484   9.050  12.490  12.191 -0.4554 -0.1706 -0.1145
13281W        W31485  17.631   3.252  13.883  0.2092  0.1353 -0.3869
13282W        W31486   9.634   6.367  12.921 -0.0156  0.0656 -0.0314
13283W        W31487   3.218   5.957   1.490  0.2866  0.0150 -0.0619
13284W        W31488  15.337  14.227  15.457  0.2068  0.1436 -0.0312
13285W        W31489  15.691  11.404  13.423  0.0414 -0.3172  0.0364
13286W        W31490  16.295  16.974  12.184  0.0071 -0.2549 -0.1366
13287W        W31491  18.014  14.926   1.140  0.1705  0.0913 -0.0204
13288W        W31492  17.188   3.195   1.433 -0.2371 -0.2430 -0.0368
13289W        W31493   6.790  13.678  12.223 -0.0030  0.0718 -0.1446
13290W        W31494  14.035   5.926   4.024  0.0786 -0.5513  0.0461
13291W        W31495   7.048   7.372  12.756  0.5594 -0.3521  0.1380
13292W        W31496   2.822   1.544  14.522  0.3912 -0.1601  0.3344
13293W        W31497  12.325   6.059   3.815  0.0092 -0.0925  0.2204
13294W        W31498   4.233  12.480   4.485  0.2353 -0.1328 -0.2055
13295W        W31499  11.967  16.029   2.308  0.0325 -0.1071  0.2270
13296W        W31500   3.041  11.220   4.185  0.1009 -0.2302  0.0084
13297W        W31501  10.017  13.446  10.738  0.0627  0.3156  0.1899
13298W        W31502   7.058   9.533  15.082 -0.3354 -0.3118 -0.2321
13299W        W31503   6.728   6.970  11.386 -0.0335  0.2442  0.1022
13300W        W31504   1.199  16.867  11.511  0.0357 -0.1589 -0.1607
13301W        W31505  10.652  16.989   1.571  0.2523 -0.2023 -0.1346
13302W        W31506  16.038  10.921   0.239  0.0898 -0.0238  0.0553
13303W        W31507   0.613   3.909  10.661  0.1079  0.2263 -0.3358
13304W        W31508   0.520  14.720   4.055  0.2541 -0.2653 -0.1519
13305W        W31509   5.434   9.994  12.481  0.0573  0.2296  0.3155
13306W        W31510  16.126  15.807  11.585  0.0248 -0.2306 -0.1447
13307W        W31511  16.192   0.595   3.907 -0.0223 -0.0801 -0.1050
13308W        W31512  15.052   2.343   0.088 -0.1302 -0.2411  0.3303
13309W        W31513   2.249   0.258  11.377  0.0446  0.0714  0.1012
13310W        W31514   0.683   9.376   3.235 -0.2376  0.2428  0.0596
13311W        W31515   1.974  15.726   3.921 -0.4178 -0.3772  0.1137
13312W        W31516  18.284  14.450   0.419 -0.1536 -0.0661  0.1625
13313W        W31517   0.128   4.460   0.619  0.1945 -0.1500  0.1145
13314W        W31518   2.058   7.083   2.622  0.1999 -0.0960 -0.2013
13315W        W31519   7.042  13.866  11.081  0.2319  0.0285  0.3263
13316W        W31520   0.898   8.437   4.190 -0.1641 -0.1657 -0.3342
13317W        W31521  12.366  16.212   2.649 -0.2701 -0.0056  0.4456
13318W        W31522   9.395   6.669  15.056 -0.0419  0.2566 -0.3678
13319W        W31523  10.039   6.689  13.798  0.1647  0.0911  0.0317
13320W        W31524   4.332   5.258  14.388 -0.1973 -0.0538 -0.1052
13321W        W31525  12.727   0.745   1.581 -0.1205 -0.3678  0.0383
13322W        W31526  10.072   1.387  14.221 -0.0610  0.0177  0.2007
13323W        W31527  12.086  12.262   2.159  0.1853  0.0002  0.2543
13324W        W31528  14.211   6.961   1.386 -0.3221 -0.0313  0.1445
13325W        W31529  12.634  10.337  11.951 -0.1665  0.1148  0.2566
13326W        W31530   7.015  13.395  10.882 -0.0298 -0.0512  0.0131
13327W        W31531  10.885   4.388  11.828 -0.0245 -0.3774  0.1249
13328W        W31532  17.614   1.246  11.882 -0.2289 -0.1917  0.0521
13329W        W31533   4.371   2.081   1.923 -0.1375 -0.1963 -0.0432
13330W        W31534   1.538  13.662   0.451  0.1048 -0.0314 -0.1257
13331W        W31535   0.973   3.662  12.292  0.1341  0.1102 -0.0143
13332W        W31536   4.313   1.762   3.572 -0.3710  0.3129 -0.1134
13333W        W31537  11.820   9.951  13.752  0.0043 -0.0661  0.2110
13334W        W31538   4.803  17.256  12.855 -0.2704 -0.2392  0.1627
13335W        W31539  14.025  10.836   2.651 -0.0132 -0.1943  0.0078
13336W        W31540  14.262   8.153   1.662 -0.2878  0.0593 -0.3415
13337W        W31541  10.695  18.637   1.960 -0.0175  0.0801  0.2026
13338W        W31542   2.133  15.460  12.471  0.0667 -0.2262 -0.0279
13339W        W31543  15.028   8.906   4.346  0.3524  0.0461  0.0343
13340W        W31544  17.008  13.102   9.937 -0.3363  0.1926 -0.2201
13341W        W31545  16.758   3.413   3.392  0.0349 -0.1245  0.0507
13342W        W31546   7.792  10.207   3.019  0.0614 -0.0345 -0.1016
13343W        W31547  11.076  18.467   1.034  0.2150  0.3659 -0.0880
13344W        W31548   2.514   7.172   1.767 -0.0011 -0.1979 -0.1285
13345W        W31549  13.302   3.408  14.616  0.1343 -0.2110  0.0068
13346W        W31550  15.907   1.369  13.590  0.0436 -0.1089  0.0382
13347W        W31551  13.599  18.077   2.644  0.1176 -0.1265  0.4137
13348W        W31552  16.056   3.569   1.072 -0.3751  0.3106 -0.0195
13349W        W31553   0.900  12.031   4.853  0.0285  0.2411 -0.2423
13350W        W31554   5.201   1.466   5.458  0.0141 -0.4017  0.1068
13351W        W31555  13.772   7.117  13.955 -0.1245 -0.1027 -0.0685
13352W        W31556   1.111   1.396  11.302 -0.2567 -0.0846  0.0563
13353W        W31557  14.027   8.867   5.431 -0.3098  0.1522  0.1231
13354W        W31558   7.976  11.749  12.055 -0.4107 -0.0522  0.1768
13355W        W31559   8.821   3.616   2.112 -0.0094  0.2231  0.1640
13356W        W31560   2.745   4.058  11.327 -0.0228  0.2574  0.2651
13357W        W31561  14.493   4.532   3.679  0.4612 -0.1700 -0.1317
13358W        W31562   2.787   8.582   1.856 -0.1461 -0.1765  0.0470
13359W        W31563  16.381  18.074   3.899  0.1453  0.1901  0.0249
13360W        W31564   9.278   2.723  12.618 -0.2694 -0.0966  0.1705
13361W        W31565  15.728  17.218   4.073 -0.0355 -0.0678  0.0205
13362W        W31566   4.927  18.068  14.196  0.2734  0.1992  0.1732
13363W        W31567  15.589  13.484  11.732  0.2513  0.0158 -0.0207
13364W        W31568  12.262  12.650   2.978  0.0331  0.0682  0.1022
13365W        W31569   5.450  18.117   0.572  0.3671  0.0469 -0.1599
13366W        W31570   0.867  16.191   0.614 -0.0158  0.4377  0.0395
13367W        W31571   6.372  11.454   1.621 -0.1137  0.1205 -0.4356
13368W        W31572  14.370  17.658  12.905  0.3904  0.0085 -0.1370
13369W        W31573   4.763  11.851   3.285  0.1818 -0.0158 -0.1720
13370W        W31574  11.398  12.818  15.076  0.0814 -0.1659 -0.1436
13371W        W31575   4.742   2.675  14.538 -0.3869 -0.0567  0.0056
13372W        W31576  14.038  15.639  12.501 -0.1315  0.0741  0.0690
13373W        W31577   9.790   3.030  14.378  0.2306  0.3185  0.3391
13374W        W31578   9.640   5.799   0.927 -0.2597 -0.0473 -0.0666
13375W        W31579  16.638   2.466  14.240 -0.0743 -0.0973  0.1653
13376W        W31580  10.820   0.267   4.096  0.2451 -0.1053  0.3262
13377W        W31581   7.133  10.136  14.405  0.0572 -0.0723  0.1510
13378W        W31582   9.476  17.804   1.118  0.0328 -0.0200  0.1109
13379W        W31583  17.230   0.425  11.537  0.2276 -0.2618  0.0354
13380W        W31584   5.909  10.518  13.970 -0.0257  0.0738  0.0768
13381W        W31585   5.688  16.565  11.145  0.1510 -0.0277  0.0215
13382W        W31586   2.286  17.052   0.347  0.0552  0.3801 -0.0874
13383W        W31587  11.314  11.405   3.057 -0.0837  0.1145  0.1763
13384W        W31588   4.941  12.959   5.453  0.0484  0.2106  0.0947
13385W        W31589   3.917   1.285  13.716 -0.1401  0.0695 -0.0180
13386W        W31590   1.899   7.318   1.007  0.0621 -0.0953 -0.0607
13387W        W31591  10.274  15.969   2.902 -0.1102  0.0443 -0.0071
13388W        W31592   4.287   5.978   3.296 -0.1737 -0.0167  0.3104
13389W        W31593  16.830  12.143   2.018 -0.2131  0.1978 -0.1922
13390W        W31594   8.174  13.587  13.954 -0.1113 -0.1896  0.2563
13391W        W31595  18.041   2.116  12.869  0.3769 -0.2233  0.1958
13392W        W31596   9.110   6.264  12.388 -0.0135  0.1550  0.0872
13393W        W31597   4.050  16.291  15.011 -0.2276  0.1145  0.0880
13394W        W31598  12.045  17.319  14.011 -0.0037 -0.0271 -0.3620
13395W        W31599   0.876  10.879  11.363 -0.0960 -0.2160 -0.0296
13396W        W31600   9.264   8.194  14.576  0.0899 -0.0392  0.0479
13397W        W31601   7.568  11.081  13.827 -0.2207  0.2558 -0.3150
13398W        W31602   8.085   2.713  11.638 -0.0255  0.1471 -0.0809
13399W        W31603  17.378  16.717  13.682 -0.0528  0.1372 -0.0145
13400W        W31604   2.010  15.267   3.502  0.1442  0.0623 -0.1149
13401W        W31605   1.808   4.382  12.064  0.1450  0.2408  0.1295
13402W        W31606   9.654   8.546   0.445  0.0056  0.1901  0.1042
13403W        W31607   6.964   5.800   2.583  0.0492  0.2035 -0.2381
13404W        W31608   8.148  12.482   3.552 -0.2098 -0.0311 -0.1234
13405W        W31609   8.841   6.824   0.446  0.2142 -0.1217  0.1959
13406W        W31610  14.749   7.879  11.638 -0.0109  0.0435  0.1227
13407W        W31611   7.284  14.900  11.779  0.3910 -0.1784 -0.0814
13408W        W31612  12.501   6.627   0.703  0.0638 -0.0267 -0.0408
13409W        W31613   8.533  11.950   1.372 -0.0425  0.2464 -0.2940
13410W        W31614   8.966  17.680   3.797 -0.4007  0.0703 -0.0938
13411W        W31615   1.805   3.566   0.399  0.0817 -0.2199 -0.3327
13412W        W31616   2.275   7.187   3.948  0.1441 -0.0983  0.0823
13413W        W31617   0.736  16.540  12.799  0.2327 -0.1416  0.3142
13414W        W31618  14.547  15.189   3.542  0.0830 -0.0037  0.1382
13415W        W31619   5.059   9.807   0.861  0.0600 -0.0136 -0.2761
13416W        W31620  10.013  16.457  11.249  0.4066  0.0031 -0.0648
13417W        W31621  14.289   8.219  13.377  0.0502 -0.3151 -0.1050
13418W        W31622  12.728   2.170  12.565 -0.2366 -0.2173  0.2008
13419W        W31623   8.440  10.636  11.851 -0.0496  0.0889  0.3073
13420W        W31624  11.068   5.989   1.190  0.0770 -0.0046 -0.1074
13421W        W31625   4.680   1.668   2.101  0.3849 -0.0079  0.0249
13422W        W31626  13.617   4.325   1.478  0.3147 -0.0257  0.0382
13423W        W31627  17.923   8.368   2.619 -0.2202  0.1266  0.3249
13424W        W31628  17.940   3.814   0.700  0.2589  0.0067  0.1662
13425W        W31629   7.991  18.540   2.593  0.1022  0.0662 -0.1787
13426W        W31630   4.164  18.488   2.468  0.0318  0.0458 -0.1789
13427W        W31631  10.072   4.752   4.234  0.0434  0.0447  0.2239
13428W        W31632   0.856  17.691   3.045 -0.3392 -0.3138  0.0899
13429W        W31633   9.363  16.155  11.637 -0.2109  0.1107  0.0321
13430W        W31634   5.390   6.436  12.265  0.0960  0.1477  0.3964
13431W        W31635  16.402  10.042   3.394 -0.1757 -0.0067  0.0558
13432W        W31636  11.619  14.343  13.406 -0.0083  0.0107 -0.1183
13433W        W31637  15.548  15.739   2.849 -0.2988 -0.3229 -0.0298
13434W        W31638  15.410   7.377   4.249  0.3937  0.0244  0.3401
13435W        W31639  12.734   3.393   3.563 -0.0520 -0.0278 -0.0841
13436W        W31640  15.235  13.772   1.101  0.0703  0.1048  0.2110
13437W        W31641   6.959  17.484  12.971  0.0077 -0.0868  0.3052
13438W        W31642   6.136   6.639   4.402  0.4328 -0.1314  0.2249
13439W        W31643   8.811  18.524  15.434 -0.3605  0.0359  0.0191
13440W        W31644   9.744  13.428  11.639 -0.1175 -0.2790  0.1390
13441W        W31645  15.854  13.383   1.698  0.0087 -0.1798 -0.2395
13442W        W31646  16.878   1.947   3.943 -0.0860 -0.0432 -0.2933
13443W        W31647  16.656   6.947   4.323  0.0540  0.0852  0.1995
13444W        W31648   4.934   6.498   3.494  0.0336 -0.0925 -0.1545
13445W        W31649   9.759   2.032   4.000  0.0886  0.1173  0.1459
13446W        W31650  17.760   6.576   1.322 -0.0902 -0.1196 -0.2356
13447W        W31651  17.957  10.015  12.597  0.2992  0.4264 -0.2085
13448W        W31652  10.776  15.322   4.527 -0.0648  0.0802  0.0099
13449W        W31653   3.610  12.282  13.449 -0.3552  0.1358  0.0708
13450W        W31654   4.139  11.553   4.202  0.1647  0.1509  0.1201
13451W        W31655  12.462  15.378   1.088  0.3169 -0.3136 -0.1143
13452W        W31656   8.956  11.728   3.712 -0.0134 -0.1798  0.1038
13453W        W31657  17.182   7.529   4.708  0.1555 -0.1366 -0.2762
13454W        W31658  11.311   0.719   2.720 -0.0570  0.0212 -0.2979
13455W        W31659   2.532  10.377  15.072  0.0261  0.0588 -0.1149
13456W        W31660  14.712   2.733  11.488 -0.0347 -0.3084 -0.5416
13457W        W31661   1.970  15.709  11.513 -0.0729  0.2342 -0.1696
13458W        W31662   6.933   3.080   3.958  0.2170  0.4042 -0.0192
13459W        W31663  13.959   2.067  14.648  0.0752  0.0489  0.0272
13460W        W31664   8.660  16.415  11.379  0.0110  0.3438  0.0314
13461W        W31665  17.967  17.279   0.765 -0.3450 -0.0760 -0.0554
13462W        W31666  18.638   2.978   0.720  0.1619  0.0233  0.0403
13463W        W31667   2.409   3.125  11.588  0.1955 -0.0633  0.5795
13464W        W31668   7.823  11.849   0.482  0.2281 -0.1854  0.1052
13465W        W31669   4.582  15.280   2.703 -0.1824 -0.3048  0.0664
13466W        W31670   3.031   3.154  13.216 -0.2598 -0.2659  0.1040
13467W        W31671   8.172   2.758   3.125 -0.1679 -0.1685 -0.1709
13468W        W31672   1.474  11.816   1.026 -0.0434 -0.0395 -0.2600
13469W        W31673   3.360  17.187  13.820  0.0933 -0.1687 -0.0496
13470W        W31674  13.599   7.568   0.534  0.5066 -0.0819 -0.0924
13471W        W31675   3.067  12.227  14.387  0.1989 -0.2329  0.3118
13472W        W31676  12.578   5.730  13.212  0.1108  0.1317 -0.1074
13473W        W31677  18.445  10.035  12.316 -0.2950 -0.3753  0.1037
13474W        W31678   4.526  10.244  13.508 -0.1795 -0.1060  0.1673
13475W        W31679   0.754  14.046   0.214 -0.3195  0.0669 -0.1196
13476W        W31680   1.550   0.022   1.259  0.1002  0.4713 -0.1349
13477W        W31681  11.010   3.067  10.708  0.1728  0.1418 -0.0477
13478W        W31682  13.866   9.167   0.345  0.1991  0.4592 -0.1696
13479W        W31683  15.368   8.631  10.950 -0.0071 -0.0875  0.0452
13480W        W31684  12.127   2.397   2.209  0.1243 -0.1725  0.1864
13481W        W31685   1.237   4.185   1.804 -0.0143 -0.0295  0.1048
13482W        W31686  15.981   8.159   3.790  0.2993 -0.2568 -0.1479
13483W        W31687  13.951  14.734   3.900  0.0245  0.2549  0.3051
13484W        W31688  16.095   0.557   2.337 -0.0159 -0.1867  0.2769
13485W        W31689   5.488  11.126  15.144 -0.0218 -0.1848  0.1281
13486W        W31690   8.676  10.637  14.540 -0.1384 -0.0481  0.0455
13487W        W31691   5.417   3.030  10.899 -0.0532  0.0280  0.0773
13488W        W31692  14.383   1.291   2.582  0.1538 -0.1809  0.0174
13489W        W31693  18.631  14.225  12.436 -0.2935 -0.0999 -0.2518
13490W        W31694  14.761   2.374  12.813  0.0215 -0.0343  0.1129
13491W        W31695  16.353   7.323  14.678 -0.3171  0.1167 -0.2847
13492W        W31696   3.709   5.682  11.827 -0.1362  0.2440  0.3001
13493W        W31697   1.015   8.318   1.805  0.1429  0.0171  0.0732
13494W        W31698   5.973   6.988   1.773 -0.2243 -0.3663 -0.0332
13495W        W31699  11.414  12.630   2.839  0.1046 -0.2425  0.0859
13496W        W31700  15.660   5.975  14.790 -0.1949  0.3511  0.2103
13497W        W31701  12.699  18.204   1.187 -0.2048  0.3044 -0.0767
13498W        W31702  15.193   1.860  11.730  0.3298 -0.0871  0.1437
13499W        W31703   6.738   9.221  15.306  0.1371 -0.2155 -0.1267
13500W        W31704  17.889  14.145  14.676  0.0504 -0.0709  0.3380
13501W        W31705   9.600  14.917  13.472  0.0674 -0.2795  0.1734
13502W        W31706  10.992   7.600   4.905 -0.4405 -0.0700 -0.0386
13503W        W31707   8.043   0.274   1.103 -0.1123 -0.5348 -0.3823
13504W        W31708  10.417  14.452  14.207  0.1107 -0.1155 -0.0744
13505W        W31709  10.723  12.810  14.744 -0.2372  0.1635 -0.1273
13506W        W31710   2.658  17.780  13.436  0.3143 -0.0341 -0.1551
13507W        W31711   9.531  14.722  12.679  0.0663  0.1250 -0.2937
13508W        W31712  16.482  15.330  15.240 -0.0464 -0.1934 -0.0768
13509W        W31713   3.325   0.689   2.907  0.1209 -0.5821 -0.3163
13510W        W31714  12.220  13.382  14.076  0.2919  0.0259 -0.2277
13511W        W31715  17.736  18.016   3.557 -0.0379  0.1006  0.0151
13512W        W31716   1.130  14.750  13.774 -0.2945 -0.3133 -0.1474
13513W        W31717   2.367   0.226   0.323 -0.0157  0.1288 -0.1026
13514W        W31718   1.294  15.988   1.191 -0.3304 -0.0203 -0.1439
13515W        W31719  13.972  10.048  14.804 -0.1233 -0.0551  0.1059
13516W        W31720   7.459   3.285   3.907 -0.2616 -0.1913  0.0379
13517W        W31721   6.977  15.958   1.835  0.0481  0.2172  0.0241
13518W        W31722   9.501   3.892  13.264  0.1890 -0.0742 -0.1213
13519W        W31723  18.475   3.850  14.496 -0.2248  0.2131  0.2183
13520W        W31724  11.551   8.564   1.221  0.0463  0.0270  0.2239
13521W        W31725  11.013   2.353  13.282  0.0612 -0.0752  0.0071
13522W        W31726   3.693   1.650   0.060 -0.3178  0.3033  0.0071
13523W        W31727   2.961   6.328   2.485 -0.1382  0.0003  0.1766
13524W        W31728   0.992   5.515  12.452  0.0811  0.3543  0.0071
13525W        W31729   0.191   4.970   2.272  0.1664  0.2047 -0.0254
13526W        W31730   5.135   1.670   3.300 -0.0783 -0.4235  0.3874
13527W        W31731  13.028   1.349  13.168  0.0037 -0.1526  0.2321
13528W        W31732   5.371   9.551  10.942 -0.0621 -0.1716 -0.0478
13529W        W31733   8.479  10.307   0.553 -0.3434 -0.1262 -0.1640
13530W        W31734  15.080  12.387  10.703  0.0523  0.0869 -0.1399
13531W        W31735   8.107  15.643   0.944 -0.0406 -0.1015  0.1167
13532W        W31736   6.807   0.449   0.925  0.0823 -0.0202 -0.1339
13533W        W31737   7.318  14.398  14.605 -0.0078 -0.0697  0.0754
13534W        W31738  18.036   1.811  13.954  0.2151  0.1504 -0.0481
13535W        W31739   6.883  18.512   2.906  0.2372 -0.2825 -0.0358
13536W        W31740  13.078   0.784   0.372 -0.3902  0.0628  0.0681
13537W        W31741  12.829   8.069   0.992  0.0538  0.1834 -0.0060
13538W        W31742   1.361  16.832   3.533  0.0375 -0.1367  0.2801
13539W        W31743   3.832  18.356   4.653  0.0601  0.0022  0.2679
13540W        W31744  16.751   4.134   1.121 -0.3440 -0.1403  0.3258
13541W        W31745  11.643   5.996   4.754 -0.1440  0.1580  0.1367
13542W        W31746   9.252  11.981   2.531 -0.1430 -0.1749  0.0593
13543W        W31747  10.155   0.453  13.050  0.1572  0.3389 -0.3576
13544W        W31748  13.479   6.436  13.519 -0.2153  0.1233 -0.2795
13545W        W31749  13.286   0.140   1.045 -0.2305  0.0139  0.0425
13546W        W31750  13.926  18.610   9.914  0.0739 -0.3663  0.3529
13547W        W31751   4.726  12.353   4.583 -0.2890 -0.3777 -0.2374
13548W        W31752   1.157   9.041  14.222 -0.1655 -0.0383  0.2821
13549W        W31753  10.273  15.145  11.616  0.1529  0.0571 -0.0299
13550W        W31754  11.879   4.118   2.090  0.0019  0.1338 -0.5154
13551W        W31755   8.878   6.654  15.074  0.1508  0.0808  0.0575
13552W        W31756   8.923   2.708   2.126  0.0117  0.0954 -0.0654
13553W        W31757   3.029   8.160   9.710 -0.2191  0.1600  0.0152
13554W        W31758  18.549  10.376   3.852  0.0798  0.0052  0.4306
13555W        W31759   1.213  18.288   1.287 -0.0405  0.0425  0.0029
13556W        W31760  16.067  17.455   4.415 -0.1324  0.2567  0.2540
13557W        W31761   5.854  14.058  13.393 -0.0945  0.0444 -0.1867
13558W        W31762  17.619   3.967  14.230  0.2548 -0.0520  0.4610
13559W        W31763  14.483   8.816  11.667  0.0242 -0.2072  0.2642
13560W        W31764  10.035  14.947   4.931 -0.1033 -0.1687 -0.1705
13561W        W31765  17.679  16.401   9.961  0.4453 -0.0366 -0.1149
13562W        W31766  14.517   7.372   3.783 -0.2288  0.0389  0.1313
13563W        W31767  14.297   3.441  11.196  0.2320  0.0871  0.1241
13564W        W31768   1.523   8.732  12.334 -0.2215  0.2617  0.0384
13565W        W31769  16.080   8.643  10.206 -0.0016  0.1075  0.3597
13566W        W31770  12.445  17.799  14.369 -0.0269 -0.2526  0.1938
13567W        W31771  13.224   4.861  13.826 -0.0453  0.2244  0.2515
13568W        W31772  14.347   4.366   1.887 -0.1831 -0.3966 -0.3070
13569W        W31773   1.655  15.577   3.056  0.4459  0.0711  0.2387
13570W        W31774   1.944   8.212   0.351 -0.0362 -0.3003 -0.0395
13571W        W31775   5.963   4.635  11.489 -0.4523  0.1371 -0.1673
13572W        W31776   4.174   6.808  11.942 -0.0831 -0.0066  0.2441
13573W        W31777   1.580  16.254   3.207  0.3592  0.1438 -0.0012
13574W        W31778   0.291  12.988   2.600 -0.0838  0.0291 -0.2441
13575W        W31779  15.117  15.062   2.019  0.1625  0.0349 -0.1103
13576W        W31780   1.660   6.281   1.415  0.0638 -0.0130 -0.5972
13577W        W31781   3.071  12.016   0.004  0.0828  0.0807  0.2213
13578W        W31782   1.833  18.580  12.490 -0.1081  0.2039 -0.0777
13579W        W31783   0.168  16.924   3.035 -0.0491 -0.1161 -0.1845
13580W        W31784   6.278   9.601   2.051  0.1844 -0.0419  0.2686
13581W        W31785   5.737   5.655  11.077 -0.0938 -0.0725 -0.3878
13582W        W31786   0.443   5.408   1.178  0.1826  0.3198 -0.0305
13583W        W31787   1.061  10.697  15.281  0.0499  0.1477  0.0820
13584W        W31788   7.780  16.295  13.604 -0.0592  0.1330 -0.1218
13585W        W31789   4.934  14.125   2.305  0.0263  0.2992 -0.0925
13586W        W31790  15.030   2.866   0.163 -0.0554 -0.1596 -0.3014
13587W        W31791   0.910   3.656  15.387 -0.0979 -0.0101  0.0339
13588W        W31792  15.161  14.237  10.608 -0.0368  0.1079  0.3557
13589W        W31793  11.438  15.521  11.411  0.0586 -0.0924 -0.0229
13590W        W31794  10.382   1.027  14.423 -0.1564  0.0823 -0.0644
13591W        W31795  15.470   8.985   3.539 -0.1878  0.0112 -0.0158
13592W        W31796   1.183   4.561   5.308 -0.0253  0.1420 -0.1503
13593W        W31797   5.610  16.322  13.938  0.2925  0.2047 -0.2683
13594W        W31798   6.375  13.493  13.599  0.2127  0.1386  0.1966
13595W        W31799   5.674   6.820   0.685 -0.0719 -0.5246 -0.1090
13596W        W31800   0.459   6.233   2.451  0.1016 -0.0656  0.1573
13597W        W31801  12.398  10.418  14.731 -0.4722 -0.0827  0.1099
13598W        W31802   7.954   3.471  14.215  0.0024  0.2349  0.2421
13599W        W31803  14.058   0.251   2.836 -0.1110 -0.0403  0.3691
13600W        W31804   0.965  11.955   1.180  0.1315 -0.0333 -0.0580
13601W        W31805   8.039   4.571   0.016 -0.0330 -0.0810 -0.1048
13602W        W31806  11.957  15.023  11.548  0.0964  0.0488  0.1300
13603W        W31807  12.377   1.378  14.315  0.2242  0.1446  0.3009
13604W        W31808   7.855  16.391  13.106  0.1103  0.1571  0.1353
13605W        W31809  11.761   7.211   4.406 -0.0531 -0.1875 -0.1344
13606W        W31810  13.484  11.577   5.553 -0.1251 -0.0416  0.1606
13607W        W31811   9.835  10.857  11.668  0.1872  0.0277 -0.1806
13608W        W31812  17.364   6.650   5.832 -0.1648  0.0904  0.0847
13609W        W31813  15.051   2.606  14.170  0.3106  0.1088  0.1079
13610W        W31814  13.208   4.574   1.555  0.1873 -0.0848 -0.2262
13611W        W31815  13.308  17.522  10.984  0.0469  0.2122 -0.2869
13612W        W31816  12.936   7.067  14.176 -0.0623  0.3201  0.0071
13613W        W31817   6.560  10.961  10.971 -0.0977 -0.2362  0.0198
13614W        W31818   3.951   0.528   0.946  0.0602  0.0063  0.3542
13615W        W31819  17.916   6.171  13.802 -0.0351 -0.0856  0.1093
13616W        W31820   2.665  11.557   3.875  0.0084  0.0783  0.1068
13617W        W31821  11.415  16.371  11.956  0.0009 -0.1037 -0.2232
13618W        W31822  13.031  10.702  11.179  0.1775  0.0712 -0.2132
13619W        W31823   9.154  10.553   4.096  0.0005 -0.2895 -0.2207
13620W        W31824   9.480  17.556   3.521  0.1425 -0.0944  0.2979
13621W        W31825  15.214   5.893   2.726  0.0187  0.2151  0.0651
13622W        W31826   1.932  10.751   3.631 -0.0830  0.1686  0.0810
13623W        W31827  10.675  10.855  13.474  0.2697  0.1917  0.1110
13624W        W31828   6.334  17.092  13.035 -0.3443  0.3761  0.0680
13625W        W31829   1.907   3.492  10.794  0.1538  0.0050  0.3197
13626W        W31830  17.473   8.875  15.123 -0.2339 -0.0259 -0.1519
13627W        W31831  12.159  18.421   1.752 -0.2310  0.0476  0.1206
13628W        W31832   9.154  18.563  11.297  0.0430 -0.0041 -0.1064
13629W        W31833  13.835  10.389  12.142  0.1960  0.2567  0.0455
13630W        W31834   5.671  12.320   0.295  0.0723  0.2350 -0.1923
13631W        W31835  18.226  14.747   3.620 -0.0388 -0.1684 -0.3296
13632W        W31836   9.535  18.483   3.023 -0.3166 -0.1420  0.2020
13633W        W31837   7.133   1.373  11.918 -0.1613 -0.0222 -0.3908
13634W        W31838  17.704   2.965   0.277  0.4282  0.1509  0.0500
13635W        W31839  10.871  13.100  15.118  0.0412 -0.1613 -0.1080
13636W        W31840   2.630   9.681  12.558  0.1409  0.0460  0.2613
13637W        W31841   5.246   1.421  14.426 -0.0562  0.0167  0.2997
13638W        W31842  17.853  13.541   2.607  0.3316  0.1699  0.1034
13639W        W31843  13.706  12.385   1.342  0.2840 -0.0752  0.1719
13640W        W31844   9.137   3.008   0.245 -0.2197  0.1416  0.1980
13641W        W31845  14.258   9.120   3.986 -0.0975 -0.2977  0.0732
13642W        W31846  17.727  16.436   1.807 -0.1599 -0.1662 -0.0319
13643W        W31847   3.489  14.367  14.165  0.1630  0.0467 -0.1217
13644W        W31848   2.787   2.943  15.448 -0.0409  0.1503  0.1906
13645W        W31849   4.285   9.384   2.197  0.0735  0.0346 -0.2450
13646W        W31850   7.480  15.148   3.901 -0.1253 -0.0111 -0.0133
13647W        W31851   5.827  14.583  13.256 -0.3258  0.1866 -0.4360
13648W        W31852   1.158  14.496   2.598  0.0477 -0.2920  0.1622
13649W        W31853   9.731   7.254  11.540  0.0362  0.0185  0.0019
13650W        W31854  12.361  12.704  15.318  0.0773 -0.0372 -0.0862
13651W        W31855   6.162  17.971  13.258 -0.2575  0.1082  0.1546
13652W        W31856   1.636   3.147  11.058 -0.0529  0.1887 -0.2050
13653W        W31857  10.637  18.467   0.175 -0.6250  0.0943  0.1091
13654W        W31858  14.383   8.872  15.331  0.3304  0.0750  0.1937
13655W        W31859  17.555  15.270   0.081  0.0088  0.2962  0.0380
13656W        W31860  13.596  18.215  14.638  0.3378  0.0775  0.1180
13657W        W31861   0.970  18.209   0.790  0.1274  0.0663  0.1185
13658W        W31862   5.293  11.492   3.796 -0.3526 -0.3445  0.0528
13659W        W31863  17.306   1.458   1.652  0.2810 -0.0136 -0.2230
13660W        W31864   5.501  17.162   3.213 -0.2094 -0.3320  0.0598
13661W        W31865   5.759   5.653   0.194  0.1264  0.1122 -0.3250
13662W        W31866  15.551  13.812   1.549 -0.0717  0.2684  0.0426
13663W        W31867  13.530  10.714   4.520 -0.0122 -0.2005 -0.0385
13664W        W31868  11.114  10.469  12.815 -0.1586  0.2821  0.0613
13665W        W31869  13.583   7.272   2.763 -0.2224 -0.5255  0.2076
13666W        W31870   7.909  12.393  13.589 -0.4600  0.0582  0.2181
13667W        W31871   4.965  14.211  14.973  0.3936  0.3756  0.1443
13668W        W31872   7.431  16.339  11.883 -0.0445 -0.0154  0.0564
13669W        W31873  10.980   7.158  14.102  0.2318  0.0796  0.1932
13670W        W31874   0.884   2.543   0.005 -0.2190 -0.1857 -0.1491
13671W        W31875  14.298   5.747  14.020 -0.0807  0.0766 -0.3961
13672W        W31876   7.473   8.935   1.666 -0.0088  0.0608 -0.2021
13673W        W31877  13.290   1.922   3.930  0.0162 -0.0076 -0.1327
13674W        W31878   6.469   9.193   4.953  0.0244 -0.3879 -0.4759
13675W        W31879  11.501  15.492  12.048 -0.0438 -0.0932 -0.1875
13676W        W31880  16.671   5.579  12.869  0.0547 -0.1564  0.0425
13677W        W31881   6.638  17.246  12.674  0.1331 -0.1667 -0.1051
13678W        W31882   9.028   0.676   1.673 -0.1130 -0.0906 -0.0976
13679W        W31883  14.902  17.385   3.557 -0.2009  0.0330 -0.0895
13680W        W31884   0.004  14.066  13.463  0.0039 -0.0666 -0.0472
13681W        W31885  13.688  17.285  12.584  0.0515  0.0706  0.1515
13682W        W31886  14.129   7.856   2.159  0.1299  0.0278 -0.0819
13683W        W31887  16.618  18.007  11.424 -0.0627 -0.0433 -0.1484
13684W        W31888  15.719  12.921   4.312 -0.1396  0.0044  0.0033
13685W        W31889   5.086   3.877   1.215  0.0082  0.1585  0.0737
13686W        W31890   3.750   8.543   0.089  0.1163  0.0354  0.4436
13687W        W31891   3.380   1.797  13.120 -0.2046 -0.0765 -0.0627
13688W        W31892  13.334  14.034   0.094 -0.0554  0.0344 -0.0150
13689W        W31893   1.339   8.843  10.874 -0.0225 -0.0370 -0.0384
13690W        W31894  13.683   4.748   2.971 -0.0069 -0.1833  0.0292
13691W        W31895  12.770  10.124   4.610  0.1628 -0.0590  0.1752
13692W        W31896   8.581   9.700   3.410 -0.2261  0.0728  0.0655
13693W        W31897  13.828   3.409   0.014  0.1267 -0.0132  0.0298
13694W        W31898   4.835   2.865  11.079 -0.1603 -0.0829  0.1336
13695W        W31899   7.659   8.044  13.086  0.0453 -0.3443 -0.2233
13696W        W31900   7.618   0.916  13.096 -0.1918  0.0323  0.3423
13697W        W31901   6.113   9.626  15.158  0.2693  0.1995  0.1265
13698W        W31902  15.070  17.636  13.783  0.1267  0.0411  0.2324
13699W        W31903  11.304  12.089   4.680  0.2381 -0.2507 -0.0907
13700W        W31904  12.167   3.287  11.359 -0.0664  0.0252  0.0125
13701W        W31905   9.220   7.439   1.491 -0.0284 -0.3069  0.0147
13702W        W31906   0.400  13.386  14.758  0.1986  0.0779  0.0260
13703W        W31907  10.532   2.673  14.169  0.0413  0.0111  0.0545
13704W        W31908   6.568  15.250  11.282 -0.1448 -0.2946 -0.0588
13705W        W31909  14.246   3.995  12.039  0.1604 -0.1834 -0.3489
13706W        W31910   6.236   3.018   3.765  0.2073  0.1385  0.2340
13707W        W31911   8.628  15.946  10.753 -0.0027 -0.3150 -0.1048
13708W        W31912   4.416  11.659   1.937  0.3060 -0.0382  0.0797
13709W        W31913   9.952  16.523   3.740  0.3412  0.1771 -0.0340
13710W        W31914  11.091   9.995  12.937 -0.1912 -0.1231  0.0458
13711W        W31915   1.959   1.661  11.758  0.1206 -0.0250 -0.1930
13712W        W31916   5.411  11.926  13.654 -0.2807  0.1827  0.1374
13713W        W31917   7.521   3.379  13.631 -0.0966  0.0189  0.2116
13714W        W31918   1.141   9.482   2.440 -0.0849 -0.0867  0.0217
13715W        W31919   6.849  11.497   2.984  0.0087 -0.0266 -0.1773
13716W        W31920  15.942  10.533  15.325  0.3281 -0.1241 -0.2640
13717W        W31921  13.700   9.180  13.810  0.0479 -0.0278  0.0416
13718W        W31922   9.148  16.982  13.122 -0.0781 -0.0922  0.0995
13719W        W31923  13.946  15.661   0.434 -0.0890  0.1437 -0.1086
13720W        W31924   3.910   8.160  11.491  0.0629 -0.1585  0.1155
13721W        W31925   6.732  10.689  13.849  0.0890 -0.0798  0.0900
13722W        W31926  12.187  11.318   2.094 -0.1311  0.3616 -0.0204
13723W        W31927   6.821  16.519   2.277 -0.0171 -0.1275 -0.1451
13724W        W31928   2.811   0.307  14.066  0.0672 -0.2474 -0.0750
13725W        W31929   8.327   0.184  13.933  0.1325 -0.2927  0.2650
13726W        W31930  13.870  16.987   0.037  0.0930 -0.1078 -0.0566
13727W        W31931  11.061  16.639   4.400  0.3339  0.1216  0.3492
13728W        W31932  18.312  11.306   2.326 -0.1488  0.0744 -0.3235
13729W        W31933  13.831  10.297   3.516 -0.1107  0.1839 -0.1246
13730W        W31934   8.632  10.296   2.367 -0.1306 -0.0315 -0.2036
13731W        W31935  10.223  16.571   4.955  0.2772  0.0303  0.1519
13732W        W31936  12.652   0.696  12.656 -0.1135 -0.0971 -0.1087
13733W        W31937   3.063   7.647   3.587 -0.1796  0.0061 -0.0340
13734W        W31938   4.621  17.150  13.279  0.2348  0.0247  0.0034
13735W        W31939   7.267   8.566   4.361  0.2213  0.2395 -0.1565
13736W        W31940   2.016  15.273  13.929 -0.3805 -0.1438  0.1714
13737W        W31941   2.620  14.746   0.850 -0.0930  0.2207 -0.0652
13738W        W31942  13.667  11.988   2.724 -0.2327 -0.0720 -0.1171
13739W        W31943   8.117   8.099   4.043 -0.0295  0.3126  0.0520
13740W        W31944   1.538  15.889  15.465  0.3177  0.0558 -0.1885
13741W        W31945   8.884  14.392   0.009  0.0912  0.3141  0.2661
13742W        W31946  17.824  11.206  14.261  0.1504  0.0531  0.0108
13743W        W31947   0.195   3.327   1.532  0.1421  0.2891  0.1061
13744W        W31948  16.511  16.907   1.959 -0.2014  0.1655 -0.3100
13745W        W31949   4.121   0.115   1.261  0.0837  0.1370  0.2104
13746W        W31950  13.539  13.798  12.182 -0.0768  0.2376  0.3802
13747W        W31951   6.648  17.686  12.535  0.1924 -0.1965  0.1072
13748W        W31952  11.798   2.224  12.014 -0.2319 -0.0156 -0.0225
13749W        W31953   3.981   2.488  14.292  0.2026  0.2549 -0.0486
13750W        W31954   3.545   2.958   0.448  0.0404  0.3828  0.0069
13751W        W31955  16.140  18.622   2.267  0.1276 -0.2393 -0.1819
13752W        W31956  16.597   5.503   2.241 -0.1599 -0.0960 -0.1854
13753W        W31957   0.274  17.011  12.344 -0.1035 -0.0298  0.1816
13754W        W31958  14.942  15.986   9.980 -0.1473  0.3526  0.0425
13755W        W31959  14.019  16.076  13.480  0.0916  0.1826  0.4403
13756W        W31960  15.831  14.487  15.392  0.3282 -0.0642 -0.0490
13757W        W31961  13.637  11.557  11.413  0.0098  0.3300 -0.1037
13758W        W31962  12.048   3.029  12.440 -0.0082 -0.1556  0.0488
13759W        W31963   9.210  18.046  10.561 -0.3910  0.2364  0.2796
13760W        W31964   2.137  16.130  13.369 -0.1455 -0.1503 -0.0067
13761W        W31965   9.346  11.503   0.348  0.4008  0.2714 -0.0191
13762W        W31966   4.520   6.448  12.870 -0.0412  0.0056 -0.1133
13763W        W31967  12.451  11.505  13.203 -0.2463 -0.1095 -0.0813
13764W        W31968   2.395  14.425   1.638  0.1447 -0.1710 -0.0993
13765W        W31969   8.699  11.558  12.409 -0.2774 -0.3029 -0.3978
13766W        W31970   1.653  18.413   2.638 -0.0429  0.1413  0.1193
13767W        W31971  18.097  12.808  13.002 -0.2014 -0.4545 -0.0746
13768W        W31972  14.295  15.100   3.965 -0.0256  0.0859  0.0983
13769W        W31973  11.830  18.576  14.887  0.6516  0.1083  0.4025
13770W        W31974  12.343  13.136  13.259 -0.0275 -0.0035 -0.1581
13771W        W31975  14.342   7.998  11.200  0.2573  0.0981  0.3290
13772W        W31976   2.204   5.082  11.655  0.0160  0.0672 -0.0422
13773W        W31977  10.319  14.104   0.868 -0.0435  0.1153 -0.3425
13774W        W31978  17.454  10.563  12.287 -0.0129 -0.1063 -0.0686
13775W        W31979  12.071   7.161  12.876 -0.0570  0.0028 -0.2644
13776W        W31980  13.718   9.270   4.235  0.0506 -0.1249  0.1954
13777W        W31981  11.708  15.017  13.047 -0.2886  0.4124 -0.0708
13778W        W31982   3.237   0.559   4.090  0.0428 -0.1242 -0.4592
13779W        W31983  10.685   3.104   3.071  0.2778  0.1264  0.1452
13780W        W31984  11.904  10.532   2.899 -0.1349 -0.1910 -0.1445
13781W        W31985   6.137  15.235  13.090 -0.2846 -0.4104 -0.0863
13782W        W31986   6.110   0.592  13.334  0.3844  0.3831  0.0277
13783W        W31987  12.456   8.536   2.299 -0.0065  0.0373 -0.1988
13784W        W31988   2.349   7.821   3.893 -0.2930  0.1008  0.0098
13785W        W31989   9.847  15.541  15.187 -0.0658 -0.0244 -0.0504
13786W        W31990   6.769  17.493  10.982 -0.3949 -0.3194 -0.0400
13787W        W31991  18.260  15.625   0.699  0.0159  0.2116  0.1446
13788W        W31992  12.840  16.423  12.249  0.2311 -0.0680  0.1363
13789W        W31993  13.490   6.018  13.919 -0.1084  0.0687  0.0692
13790W        W31994  15.582   7.409   2.379  0.2286 -0.2598  0.0092
13791W        W31995  13.152  18.354  13.647 -0.2927  0.0543  0.2959
13792W        W31996   4.964   1.826   1.663  0.3771 -0.0104 -0.2516
13793W        W31997  18.231  14.205  12.759 -0.0015 -0.0242 -0.0129
13794W        W31998   3.274   5.319   0.216 -0.0960  0.0216  0.4796
13795W        W31999   8.118   9.423  11.974  0.1592 -0.1190  0.3426
13796W        W32000  13.731   1.562  13.169  0.1274  0.1358 -0.1505
13797W        W32001   1.411  10.200  13.903 -0.1059  0.2418  0.0298
13798W        W32002  13.869  13.683  14.842  0.3674 -0.2761 -0.2246
13799W        W32003   0.293   6.213  11.937 -0.0882  0.0356 -0.4559
13800W        W32004  17.907   0.409  13.105  0.1853 -0.1210  0.1499
13801W        W32005  16.094   3.270  13.958 -0.1461 -0.1653  0.0599
13802W        W32006   2.608   1.100   4.163  0.0423 -0.1054 -0.0560
13803W        W32007  17.413  18.207  14.282  0.1387 -0.3208  0.1056
13804W        W32008  17.047  14.016   2.315 -0.0149 -0.0749 -0.0296
13805W        W32009  18.415   0.993   3.841 -0.0161  0.0141  0.2717
13806W        W32010   4.735   8.019  14.289  0.4850 -0.0178 -0.3636
13807W        W32011   6.776   1.531   2.288  0.0775 -0.0217 -0.0687
13808W        W32012  14.858  12.278  11.324 -0.1864 -0.2089 -0.2007
13809W        W32013  10.267   9.471  13.826  0.0527  0.1375 -0.0826
13810W        W32014   7.932   2.906  13.694  0.0958 -0.1964 -0.3941
13811W        W32015   0.170   2.123   2.045  0.0620 -0.1702  0.0251
13812W        W32016  17.077  16.240   2.841 -0.1196  0.0694  0.3642
13813W        W32017  14.634   1.781   0.566  0.1354 -0.0560  0.1355
13814W        W32018  14.792  13.648  11.241 -0.1428 -0.0709  0.0452
13815W        W32019   1.382   6.407   0.610 -0.1193  0.0780 -0.1548
13816W        W32020   1.086   1.262   4.117  0.4392  0.1343  0.1413
13817W        W32021  13.680  12.782  14.935 -0.2403  0.0335  0.1329
13818W        W32022  11.353   9.860  15.300  0.1613 -0.3409 -0.0432
13819W        W32023   6.329   0.064   0.946 -0.0574 -0.0335 -0.1221
13820W        W32024  11.161   0.834  15.056 -0.1058 -0.0487  0.0677
13821W        W32025  12.009  14.084  14.662  0.2242 -0.0048  0.2387
13822W        W32026   7.690   9.098  15.207  0.3098  0.0554  0.0504
13823W        W32027   6.487   7.739   1.140  0.1931 -0.3864  0.0867
13824W        W32028  11.038  12.351   0.852  0.2443 -0.0915 -0.1086
13825W        W32029  12.157  11.538   3.424 -0.0035 -0.1624 -0.0224
13826W        W32030  12.839  18.420   2.699  0.0879  0.2290 -0.0202
13827W        W32031   4.109   0.643   1.424 -0.0738 -0.1240 -0.2295
13828W        W32032   9.394   7.334   5.134 -0.0296 -0.1630 -0.0045
13829W        W32033   1.960   9.453  11.143  0.0909 -0.1757 -0.1235
13830W        W32034   5.296   0.337   3.915 -0.0259  0.1251 -0.0373
13831W        W32035  11.329  16.243  14.508 -0.0232 -0.0713 -0.1516
13832W        W32036   8.101  13.964   0.857  0.2167  0.1961  0.1519
13833W        W32037  14.615  11.273   3.302 -0.2555  0.1804 -0.0759
13834W        W32038  18.419  14.397  12.049  0.0840  0.0490 -0.0449
13835W        W32039   0.531   7.250   3.381  0.0485 -0.2738  0.0083
13836W        W32040   5.826  15.786  14.442 -0.0219  0.0403 -0.3598
13837W        W32041  11.590   1.099  11.176 -0.1783  0.0535  0.0919
13838W        W32042  15.754   6.473   5.383 -0.0313  0.1335  0.0032
13839W        W32043  14.158  13.464  15.455 -0.2044 -0.0622 -0.1343
13840W        W32044  11.723  15.922   3.792  0.0161 -0.0577  0.1096
13841W        W32045  10.216   3.754  14.982 -0.0250  0.0031  0.0177
13842W        W32046   3.463   1.504   3.516  0.0766 -0.0098 -0.0748
13843W        W32047  13.875  11.598   2.007 -0.3958  0.1328  0.0501
13844W        W32048   6.296   2.326  11.658  0.0629 -0.0934 -0.3897
13845W        W32049   6.372  15.953  11.907  0.1171 -0.0573 -0.2597
13846W        W32050  18.569   0.461   1.094  0.0524 -0.0739  0.1200
13847W        W32051  11.709  13.836   2.370 -0.3171  0.2254  0.0329
13848W        W32052  11.348  12.203  14.387  0.1872 -0.0919  0.0088
13849W        W32053   7.350   4.223  13.843 -0.0176 -0.3784 -0.1626
13850W        W32054  12.623  12.041  12.705  0.2102 -0.5136 -0.2322
13851W        W32055   2.162   1.737  11.281  0.0379  0.0066  0.0344
13852W        W32056   9.210  15.696  11.734  0.1577  0.0222  0.2361
13853W        W32057   2.108   6.161   2.497 -0.2204 -0.2355 -0.4508
13854W        W32058   3.503  10.515   3.391  0.1587  0.1316  0.1868
13855W        W32059   4.607   7.710   0.965  0.2532 -0.0614  0.1301
13856W        W32060  18.638  12.378  14.871  0.0996  0.1865 -0.3028
13857W        W32061  13.010  11.806  15.421  0.2309  0.2447 -0.0305
13858W        W32062   0.528   4.955   2.981 -0.1154  0.2292 -0.1715
13859W        W32063   4.289   9.191   1.341  0.0104 -0.1160  0.1076
13860W        W32064   3.334   8.893   3.777  0.2460  0.1577 -0.0420
13861W        W32065   9.701   7.900  12.439 -0.2061 -0.3035 -0.0296
13862W        W32066   5.807   5.549  10.185  0.1167  0.1178 -0.3520
13863W        W32067   8.346  11.256   4.244  0.4215 -0.0301 -0.1592
13864W        W32068  16.124   3.802  14.701 -0.2016 -0.0120 -0.0160
13865W        W32069   0.878  17.568  15.126 -0.0412 -0.1013  0.0425
13866W        W32070  17.170   5.029   4.419  0.2320 -0.1990  0.1935
13867W        W32071   7.101  11.245   5.590 -0.0892  0.0110  0.1728
13868W        W32072   2.438  17.815   0.645 -0.1874  0.1959  0.0704
13869W        W32073   9.604   9.896  13.196 -0.0540 -0.1577  0.0388
13870W        W32074   0.476  15.280   4.296 -0.0873 -0.3487 -0.0317
13871W        W32075  18.101   5.307   1.658 -0.1403  0.1127  0.1629
13872W        W32076   2.742  11.343  11.644  0.0031  0.2252  0.2842
13873W        W32077   0.428   7.424  15.178  0.4983  0.4328  0.1352
13874W        W32078  14.985   4.474   2.579  0.0679  0.0776 -0.2353
13875W        W32079  18.349  14.945  12.454 -0.2879  0.0452 -0.2003
13876W        W32080   8.840   7.182  15.111  0.0945 -0.1415 -0.2771
13877W        W32081  16.342   4.970   4.616  0.4149 -0.1500 -0.2005
13878W        W32082   2.125   6.126  14.092 -0.0853  0.2168  0.2795
13879W        W32083  16.476   1.150   3.343  0.2570 -0.0038  0.0760
13880W        W32084   2.059  10.686   0.893 -0.0847 -0.0078  0.0045
13881W        W32085   3.930   9.395  12.367  0.0494  0.0401 -0.0727
13882W        W32086   6.545  13.741   3.461 -0.1321  0.0313  0.0378
13883W        W32087  13.066  13.091  14.795 -0.2773 -0.0804 -0.2184
13884W        W32088  13.617   8.038  11.357 -0.1227 -0.3425  0.1566
13885W        W32089  16.597  12.189   2.442  0.0012 -0.2017 -0.0189
13886W        W32090  11.440  13.111   0.322  0.0486  0.1048 -0.0463
13887W        W32091   4.810  14.661   1.441  0.0444  0.0137  0.1128
13888W        W32092  13.837   4.699   0.681  0.2590 -0.1261  0.1536
13889W        W32093   4.991   8.640   1.371 -0.2708  0.1032  0.1285
13890W        W32094   0.575  17.579  10.889  0.1983  0.0278 -0.1626
13891W        W32095  13.910   7.772   1.524 -0.2030  0.1774 -0.0813
13892W        W32096  11.346   3.882   0.639  0.1464 -0.2738  0.0390
13893W        W32097   6.627  11.477  15.253  0.0690 -0.1494 -0.2463
13894W        W32098  13.635  13.114   4.042  0.1085 -0.0698 -0.0000
13895W        W32099  12.230   4.627   3.775 -0.2523  0.0104  0.0289
13896W        W32100   3.145   1.036   4.255  0.2203 -0.1116 -0.2511
13897W        W32101  11.147  17.598  13.472  0.0271  0.0655  0.0943
13898W        W32102  15.252   4.801  12.534  0.0358 -0.1661 -0.0412
13899W        W32103   7.209   3.785   0.776 -0.0013 -0.0334  0.2860
13900W        W32104   4.245   0.123  11.077 -0.2281 -0.1937 -0.2161
13901W        W32105  14.783  13.624  13.960 -0.0967 -0.5064  0.2696
13902W        W32106   8.900   8.067  11.786  0.2845  0.1483  0.0190
13903W        W32107  14.560  12.984  13.354  0.3653 -0.2489  0.1900
13904W        W32108   4.941   5.464   1.995  0.1511 -0.0147 -0.1208
13905W        W32109   8.322   2.128   0.295  0.0934  0.4511 -0.1613
13906W        W32110  13.889  15.963   0.056 -0.0413 -0.2429  0.1592
13907W        W32111  10.737   1.528   9.941  0.2589 -0.0625 -0.3684
13908W        W32112   9.206   7.223   4.226  0.0522 -0.3720  0.1186
13909W        W32113   5.644   9.361   1.653 -0.0702 -0.2384 -0.0839
13910W        W32114   7.923   5.790  14.787  0.2766 -0.3730  0.0889
13911W        W32115  14.744  13.094   0.691  0.4758  0.1202 -0.2576
13912W        W32116   0.139  13.142   4.663  0.0507  0.0301  0.0593
13913W        W32117   3.856   6.438  14.985 -0.3379 -0.1437 -0.1308
13914W        W32118  10.788  13.635   5.168 -0.1361 -0.2023  0.1228
13915W        W32119   7.744  14.823   3.638  0.5539 -0.0080 -0.1049
13916W        W32120  14.787  13.043   3.307 -0.1251  0.1969 -0.1394
13917W        W32121   3.221  15.397   2.905  0.0504  0.1881  0.1716
13918W        W32122   6.281  11.596   1.126  0.0497  0.0034  0.0937
13919W        W32123   7.232   3.964   1.304  0.0167  0.0180 -0.0528
13920W        W32124  12.306  16.916  11.448  0.2860  0.0836 -0.3120
13921W        W32125  17.083   6.658   3.704 -0.0502  0.1404  0.0487
13922W        W32126  13.254  16.705  10.970 -0.2259 -0.1256 -0.0727
13923W        W32127   9.922   1.662  11.079  0.2119  0.1530 -0.2181
13924W        W32128  13.179   5.907   0.327  0.5122 -0.0157 -0.0482
13925W        W32129   6.896   8.337  13.688  0.3148  0.0741 -0.2636
13926W        W32130  17.537   3.541   1.427 -0.0680 -0.0742  0.1616
13927W        W32131  16.637  11.585  14.828  0.2058 -0.1727  0.0690
13928W        W32132   1.374  15.742  12.869 -0.1842 -0.2454 -0.1307
13929W        W32133  16.852   5.348   0.364 -0.2159 -0.0043 -0.0811
13930W        W32134  10.117  10.910  15.342 -0.0289  0.0920  0.0880
13931W        W32135  15.589  12.005  12.722  0.2047 -0.0062  0.1143
13932W        W32136   5.794  15.507   1.301 -0.2047 -0.1293 -0.3986
13933W        W32137  17.805  12.007   0.858 -0.0979 -0.0220 -0.0136
13934W        W32138  12.566   8.858  13.292 -0.0192 -0.1054 -0.1655
13935W        W32139  11.389   5.840  14.366 -0.1078 -0.1987 -0.2315
13936W        W32140   9.805   2.899   0.849 -0.2966 -0.0696 -0.0843
13937W        W32141   2.573   4.746   1.787 -0.2341  0.2331  0.0312
13938W        W32142  10.664  17.151  12.304  0.1911 -0.1985  0.1430
13939W        W32143   2.169   2.525  14.392 -0.3648 -0.0418 -0.0031
13940W        W32144  10.056  13.150   1.790  0.1696 -0.2263  0.1375
13941W        W32145   5.436  14.922  15.344 -0.0594  0.0112  0.0740
13942W        W32146   5.322  18.359  14.542  0.0891  0.0031 -0.1333
13943W        W32147   3.379   3.932  14.415  0.0830  0.0082  0.0021
13944W        W32148   4.276  15.841   1.959 -0.3641 -0.2041 -0.0690
13945W        W32149   9.783   7.296   2.848 -0.1370  0.0750 -0.0004
13946W        W32150   7.259   5.825  13.307 -0.0772  0.2677  0.0765
13947W        W32151   5.742  12.068  11.397  0.0095 -0.1899 -0.2900
13948W        W32152   6.745  13.143   4.495  0.2762  0.1133 -0.1632
13949W        W32153   4.874   9.495  14.327  0.1813 -0.3181  0.0008
13950W        W32154  11.600   6.319   0.542 -0.3384 -0.1985 -0.0030
13951W        W32155   8.441   0.222   3.963  0.0518 -0.1586 -0.1806
13952W        W32156   6.394   3.259   1.761 -0.1560  0.1798 -0.1417
13953W        W32157  15.139   9.803   0.249 -0.0028 -0.0237 -0.2821
13954W        W32158  12.736  17.659  11.057 -0.1297 -0.1884 -0.2470
13955W        W32159   0.682  11.524   1.185  0.2870 -0.3770 -0.0793
13956W        W32160  13.253  16.589   2.593 -0.0218  0.3137  0.1670
13957W        W32161  13.700   8.720  12.181  0.0504 -0.1846 -0.1933
13958W        W32162  14.315  17.857  15.257 -0.2043  0.2279  0.0534
13959W        W32163   8.558  14.250  13.341  0.3909 -0.0593 -0.2502
13960W        W32164  15.076   5.643  14.050 -0.1094 -0.0067  0.0038
13961W        W32165   7.278  18.333   4.268  0.0081  0.2644  0.1359
13962W        W32166  14.228  17.327   1.817 -0.0518 -0.1338  0.0531
13963W        W32167   6.557   3.219  15.105  0.0261  0.3576 -0.0318
13964W        W32168   2.848   4.532  14.269 -0.1455 -0.2277  0.2226
13965W        W32169  17.195   5.511   4.349  0.2801 -0.1937  0.2430
13966W        W32170  17.192  15.618   1.422  0.2947  0.2098  0.0142
13967W        W32171   7.364  10.163  12.320 -0.1512  0.0169  0.0208
13968W        W32172  15.861   1.850  13.427  0.0790  0.2301  0.0099
13969W        W32173   1.683   2.345   3.050 -0.0094 -0.1234  0.0440
13970W        W32174  12.745  11.468  12.083  0.2105 -0.0620  0.1780
13971W        W32175   2.833   4.856   3.211  0.0748 -0.2466  0.1213
13972W        W32176  18.031   3.158   3.428 -0.0381  0.2563  0.0306
13973W        W32177  18.467   7.869  12.683 -0.3574  0.0510 -0.0288
13974W        W32178   4.555   3.320  12.439 -0.0724 -0.0726  0.1984
13975W        W32179   9.026   2.751  13.906  0.0019  0.1878 -0.2396
13976W        W32180  11.471  14.810  13.581  0.2110 -0.1310 -0.0787
13977W        W32181   2.893   1.715  13.021  0.0264  0.0445  0.0729
13978W        W32182  11.261  15.280   4.384  0.3063  0.1171 -0.0033
13979W        W32183  18.049  12.581  13.957 -0.0435  0.0251 -0.1249
13980W        W32184   0.705   7.923  13.624  0.1497  0.2937  0.3637
13981W        W32185   4.377  18.430  12.901 -0.3689  0.1799 -0.1829
13982W        W32186  17.060  16.537   3.337 -0.1198  0.1827  0.3164
13983W        W32187  18.314   3.915  12.119 -0.1955  0.2264 -0.0603
13984W        W32188   4.502   0.241   0.919  0.1151 -0.1973  0.1099
13985W        W32189  17.469   0.223   2.091 -0.0152 -0.0107 -0.0258
13986W        W32190  11.688  14.116   4.293 -0.0787  0.5819  0.1692
13987W        W32191   3.398  14.606   3.198 -0.2112 -0.0649 -0.0192
13988W        W32192   9.932  17.108  12.748  0.1170 -0.2832 -0.0378
13989W        W32193  18.193  11.951  11.602  0.0394 -0.2241 -0.2174
13990W        W32194   4.621  16.438  14.790  0.3298 -0.0729  0.1416
13991W        W32195  16.237  15.471  10.255  0.2455  0.2146  0.3380
13992W        W32196   2.393   8.238   0.955 -0.1471 -0.3077 -0.0711
13993W        W32197  13.344   4.839  14.487 -0.2366  0.1544  0.1314
13994W        W32198  16.080   9.103  15.375  0.0305 -0.0756 -0.2846
13995W        W32199  10.781   2.417   1.109 -0.1188  0.0603  0.0792
13996W        W32200   6.573  10.051  11.522 -0.1777 -0.0933 -0.0567
13997W        W32201  14.444   3.056   2.459 -0.1606 -0.2460 -0.0951
13998W        W32202  10.636  11.195  13.811 -0.0419  0.0809 -0.2330
13999W        W32203  13.321  10.790  15.145 -0.0476 -0.0137 -0.2448
14000W        W32204  16.976   0.633   0.542 -0.0189 -0.3216 -0.2113
14001W        W32205   7.977  18.015   2.332 -0.3897  0.0862  0.1968
14002W        W32206  16.672   1.069   4.280  0.2379 -0.2387 -0.2427
14003W        W32207  10.306  17.306   0.805  0.2122 -0.0285 -0.1880
14004W        W32208   4.119   3.055  12.354 -0.0183  0.0077 -0.2718
14005W        W32209   3.000   5.926   5.317  0.1215  0.3428  0.0506
14006W        W32210  13.778   1.480   1.411 -0.1229  0.2031  0.1298
14007W        W32211  13.758  13.390  12.738  0.4044  0.0739 -0.1672
14008W        W32212  16.395   2.347  13.450  0.1424 -0.0791  0.4040
14009W        W32213  17.142   8.563   4.470 -0.1094  0.0656  0.1986
14010W        W32214   6.245   1.189   9.991  0.1767  0.1371 -0.0875
14011W        W32215  12.520   4.607  11.229 -0.1088 -0.3344 -0.2223
14012W        W32216   5.359  15.584   0.475 -0.1281 -0.1848 -0.0947
14013W        W32217  14.618  13.282  11.599 -0.0870 -0.3913  0.0040
14014W        W32218  12.469   8.464   0.765 -0.0653 -0.1934 -0.0739
14015W        W32219   2.531   6.609  13.123 -0.3715 -0.0682 -0.3517
14016W        W32220  17.378  16.603   2.951 -0.3223 -0.1393 -0.2156
14017W        W32221  16.496  13.130   3.785  0.1233  0.0602  0.1166
14018W        W32222   9.715  14.116   3.823  0.1637 -0.1264 -0.1811
14019W        W32223   3.146   4.083  12.465  0.3214  0.1169 -0.0145
14020W        W32224  17.478  15.420  12.841  0.1381  0.1329  0.0765
14021W        W32225  15.378   1.985  11.181 -0.0498  0.0471  0.1483
14022W        W32226   8.933   1.467  13.087 -0.4020  0.2280  0.1325
14023W        W32227   7.827   6.248   1.165  0.2167 -0.5918 -0.0353
14024W        W32228  14.798  18.395  14.325 -0.0614 -0.3331 -0.2957
14025W        W32229   4.366   6.466   1.252 -0.1169  0.1333 -0.0088
14026W        W32230  16.932   6.567   3.129  0.1700  0.1733 -0.1643
14027W        W32231  14.272  15.654  13.677 -0.2807 -0.2101 -0.2179
14028W        W32232   6.500  18.167  12.855 -0.1107  0.1768 -0.3073
14029W        W32233  15.091  13.315  14.649 -0.4080  0.1086 -0.1546
14030W        W32234  16.119  13.824   2.807 -0.0473 -0.0999  0.0126
14031W        W32235   9.817   5.084   0.487  0.2972  0.3755 -0.1469
14032W        W32236   6.422   4.976   3.181  0.1848  0.0628 -0.0289
14033W        W32237   5.037   7.628  14.231  0.0215  0.3041  0.0144
14034W        W32238   4.940   2.550   2.866 -0.2628 -0.0953  0.0578
14035W        W32239  17.342  12.109  14.003  0.2170 -0.1708 -0.3150
14036W        W32240  16.181   8.886   1.497  0.1543  0.3458  0.0116
14037W        W32241   1.239  12.552  12.419 -0.0033  0.2189  0.2024
14038W        W32242   7.548   6.943  12.348  0.2925  0.0173  0.2097
14039W        W32243  16.673  10.227   4.905  0.3192  0.0319  0.1386
14040W        W32244   4.177   4.574  13.212  0.2825  0.0198 -0.1086
14041W        W32245  11.841  17.840  12.442  0.0706  0.1568  0.0966
14042W        W32246  17.622  13.378   1.527 -0.1880  0.1492  0.0839
14043W        W32247   1.478  13.440   2.996 -0.1168  0.0816  0.1413
14044W        W32248   9.913   3.344  12.186  0.1228  0.0891  0.0450
14045W        W32249  15.087   3.059   3.254 -0.2332 -0.1561  0.0278
14046W        W32250   4.999  18.452  13.053  0.0699 -0.1376  0.0221
14047W        W32251   8.911   4.512   3.802 -0.1194 -0.0530 -0.1324
14048W        W32252   6.876  12.953   5.524  0.1803  0.1145 -0.0053
14049W        W32253   5.395   8.783  13.913 -0.1554  0.0979 -0.1044
14050W        W32254   9.855   8.576  13.913  0.2184 -0.1151 -0.1727
14051W        W32255   3.904   8.702   4.195  0.1250  0.1117 -0.0221
14052W        W32256   6.690   7.475  11.271  0.4305  0.0802 -0.5336
14053W        W32257   9.806  14.067   1.597  0.0089 -0.1121  0.1275
14054W        W32258  15.185   1.742   4.926  0.1975  0.3948 -0.0320
14055W        W32259   1.364   5.055  11.710  0.2798 -0.1505  0.0984
14056W        W32260  12.511  18.458  10.877  0.2576 -0.2324 -0.2757
14057W        W32261  13.123  12.905  11.224  0.2668 -0.0681 -0.0628
14058W        W32262  14.254   2.123  14.212 -0.3728 -0.2055 -0.2780
14059W        W32263   4.274   4.939   1.487  0.1235 -0.2027 -0.3958
14060W        W32264  17.262   8.036  15.017  0.3244 -0.4169  0.2553
14061W        W32265  15.470   0.047  14.029  0.0213  0.0956 -0.1074
14062W        W32266  15.833  14.492   0.817  0.0179  0.1796  0.2037
14063W        W32267   7.739   8.016  12.295  0.1067  0.0765 -0.2300
14064W        W32268  16.607   4.366   5.355 -0.0183 -0.2437  0.0232
14065W        W32269  12.546   7.334   2.712 -0.0637  0.2370  0.0882
14066W        W32270   5.285  13.796   2.340  0.0319 -0.3868  0.0686
14067W        W32271   0.826   9.018  10.870 -0.0961  0.1740  0.1960
14068W        W32272   9.789   3.436   1.711 -0.0711  0.1175 -0.3269
14069W        W32273  12.821   7.377  13.208  0.2123  0.0582 -0.1720
14070W        W32274  10.901   9.562  15.256 -0.1267 -0.1961 -0.2038
14071W        W32275   3.916   0.815   2.890  0.0493 -0.0169 -0.1277
14072W        W32276  13.532  18.485   0.745  0.0302 -0.1440 -0.3269
14073W        W32277   9.665   5.582  15.330  0.2443 -0.2291  0.2111
14074W        W32278  11.098  18.464  13.507  0.0296 -0.2709 -0.1491
14075W        W32279  16.804   3.728   2.876 -0.1118 -0.0003  0.0483
14076W        W32280  15.653   4.363   2.394 -0.1111 -0.1688  0.0721
14077W        W32281   6.448  14.303  14.431  0.4286 -0.4667  0.0898
14078W        W32282  14.862   2.076   4.018 -0.1837 -0.1647 -0.0920
14079W        W32283   2.113   2.089  13.140 -0.2633 -0.1724 -0.0959
14080W        W32284  15.503  14.311   4.579 -0.2697 -0.2937  0.1532
14081W        W32285   6.750   9.329   1.656  0.2125  0.1725 -0.0377
14082W        W32286   8.809  18.311   3.826 -0.0665 -0.2234  0.0324
14083W        W32287  10.720  14.278  10.932  0.1063  0.1525  0.1114
14084W        W32288   8.967  12.066   2.913 -0.0451  0.0306 -0.0816
14085W        W32289  14.390   0.483   2.588  0.1288  0.0565 -0.3537
14086W        W32290   9.793  12.364  12.156 -0.1293  0.1289  0.1277
14087W        W32291   7.802   5.762   2.414  0.0302 -0.0884  0.0424
14088W        W32292   8.933  12.903  12.430 -0.0982  0.2050  0.1476
14089W        W32293   3.023  15.587  14.364  0.0256 -0.1264 -0.6493
14090W        W32294  14.000   2.903  11.320 -0.1701 -0.2837 -0.6370
14091W        W32295   4.081  14.135  14.757  0.5419 -0.0599  0.1569
14092W        W32296   5.995   2.573   1.864 -0.2506  0.0812 -0.1097
14093W        W32297  15.018  10.485   1.894  0.3040 -0.0329  0.0996
14094W        W32298   7.676   6.742  11.114  0.2365 -0.1364 -0.0292
14095W        W32299   4.920   0.890   0.170  0.0064  0.0516  0.0442
14096W        W32300  16.523  10.282  11.956  0.0121  0.1730 -0.3387
14097W        W32301   8.036   6.377  11.168  0.1418  0.1400  0.0034
14098W        W32302  10.701  15.245  11.996  0.2880  0.1356 -0.0369
14099W        W32303  15.768  17.735  11.976 -0.2343  0.0503 -0.2121
14100W        W32304  18.162  15.954  12.726 -0.0135 -0.1208 -0.0241
14101W        W32305  11.147  11.083  13.676  0.0906 -0.4843 -0.0628
14102W        W32306   5.874  13.407   4.590  0.1586  0.4351  0.1503
14103W        W32307  18.102  18.530   1.045  0.2322  0.0413 -0.2248
14104W        W32308   7.419  17.241  12.724  0.3573  0.0922 -0.1805
14105W        W32309   6.476   3.768  11.528 -0.3233  0.4726  0.0668
14106W        W32310  14.229  12.822   4.146  0.0957  0.2089 -0.0024
14107W        W32311   6.897   3.300   1.897 -0.2038  0.1209  0.1524
14108W        W32312  10.312   3.556   2.868  0.3629  0.0904  0.2055
14109W        W32313  16.579   6.779   2.191  0.0541 -0.1824 -0.0800
14110W        W32314   2.864   6.665  13.503  0.1942  0.1439 -0.2878
14111W        W32315  15.611   0.257   1.473  0.3064 -0.0402 -0.0250
14112W        W32316   8.951  16.210   1.877  0.2335  0.0922 -0.0804
14113W        W32317   0.239  14.097   0.800  0.1496 -0.1283 -0.0951
14114W        W32318  10.994  14.121   3.782  0.1502  0.1778 -0.2249
14115W        W32319  15.224  12.567  11.590  0.0875  0.1618 -0.2565
14116W        W32320   0.084  16.793  13.572 -0.2871  0.1285  0.0432
14117W        W32321  18.450   8.621   3.146 -0.0157 -0.0746 -0.2520
14118W        W32322  14.326   8.755  14.539 -0.1490  0.0795 -0.1889
14119W        W32323  12.615   4.776   0.637  0.0543  0.0319 -0.1289
14120W        W32324  15.014  17.956  10.848  0.2410  0.1239 -0.2092
14121W        W32325   7.501  12.163   2.503 -0.1006 -0.2137  0.2875
14122W        W32326   2.473  11.222  13.253  0.0133  0.1760  0.3911
14123W        W32327   5.947  13.076  12.987  0.0261 -0.1115 -0.0389
14124W        W32328   7.069   3.590   0.157 -0.0389 -0.3348 -0.2597
14125W        W32329  18.537   8.691   5.949 -0.0006  0.1637 -0.4262
14126W        W32330   9.496  17.565  11.853  0.1333 -0.1005  0.0535
14127W        W32331  18.066  18.444   4.426  0.2861  0.1420 -0.4033
14128W        W32332  11.201   9.182   5.164 -0.1460 -0.2626  0.1694
14129W        W32333   6.075   9.637   1.023  0.1067 -0.1966  0.3421
14130W        W32334   1.245  15.328  10.769  0.2041  0.3007 -0.3657
14131W        W32335   5.282  14.463   2.869  0.0109  0.3568  0.1593
14132W        W32336   3.711  13.054  13.689 -0.2265 -0.2055 -0.1559
14133W        W32337  10.546  13.020   0.106  0.2051 -0.1201  0.3126
14134W        W32338   5.254  17.257   3.748  0.3822 -0.1261 -0.0114
14135W        W32339   3.033  11.341  14.091  0.2964 -0.2525  0.1763
14136W        W32340   6.675   2.806   3.532  0.0190 -0.2006  0.0621
14137W        W32341   8.854   8.930  14.821 -0.0462  0.2230  0.0314
14138W        W32342   9.572   8.503  11.127 -0.1395 -0.1546  0.1018
14139W        W32343   5.601   8.845   4.057  0.3286 -0.0061 -0.0419
14140W        W32344   2.531   4.433   0.992 -0.0502  0.2428  0.1678
14141W        W32345   8.596   2.739   1.128  0.2205  0.1912  0.1762
14142W        W32346   7.743   8.356  13.477  0.0567  0.1233  0.1018
14143W        W32347  16.794   1.470  15.239 -0.0054  0.4229  0.1586
14144W        W32348   3.372   3.305  10.998 -0.2247 -0.0350  0.5214
14145W        W32349   4.826  17.541   4.280 -0.4394 -0.1654  0.0296
14146W        W32350  10.351   2.544   4.380 -0.0284  0.2276 -0.2598
14147W        W32351   8.752   3.541  14.806 -0.1417 -0.1262 -0.2863
14148W        W32352  13.834   9.817   4.375 -0.0409  0.4842  0.3799
14149W        W32353   9.083  16.586  13.518 -0.1023 -0.0319  0.5651
14150W        W32354  11.148  14.007  11.498 -0.1505  0.2651 -0.1473
14151W        W32355   2.068   6.182  14.632  0.1480 -0.0330 -0.1235
14152W        W32356   2.617  13.886  14.308  0.2080  0.0967 -0.0218
14153W        W32357  13.337  13.490   3.735 -0.5090  0.0467  0.3378
14154W        W32358   5.546   4.362  14.310 -0.0832  0.2223  0.0079
14155W        W32359   6.711   5.641  11.348  0.0837  0.0825 -0.1063
14156W        W32360  17.793   2.556   3.133  0.0146  0.1550  0.0894
14157W        W32361   9.335   5.766   1.869 -0.3421  0.0203  0.1190
14158W        W32362  11.342   3.682   3.983 -0.0186 -0.0445 -0.2482
14159W        W32363   6.982   3.355   0.560 -0.0150 -0.1649  0.2128
14160W        W32364  13.072   3.494  12.533 -0.1392  0.1199  0.1474
14161W        W32365   0.340   6.086  11.449  0.4195 -0.5026  0.1577
14162W        W32366  14.935   9.256   1.331 -0.0425 -0.2279 -0.0335
14163W        W32367   9.250  16.921   4.361 -0.1675  0.3954 -0.1111
14164W        W32368   3.377   7.018   0.454  0.2234  0.0048  0.2915
14165W        W32369   2.474   6.920   5.655 -0.0661  0.5000 -0.0485
14166W        W32370  18.256   1.547   0.521  0.0323  0.1390  0.1778
14167W        W32371   2.272  13.083  14.083  0.0343 -0.2592 -0.1998
14168W        W32372   2.203  15.169   1.331 -0.0061  0.0772  0.0076
14169W        W32373  16.750   7.812  15.021  0.1706  0.1340 -0.1316
14170W        W32374   3.310  12.510  14.718  0.1349 -0.1787  0.1948
14171W        W32375   3.866   3.760   3.214 -0.0749 -0.0905 -0.1271
14172W        W32376   8.606  11.891   3.282  0.1290 -0.0194  0.1969
14173W        W32377   1.031  15.288   5.242  0.3344 -0.1476  0.0615
14174W        W32378  13.564  14.545   0.822 -0.1203  0.2880  0.4573
14175W        W32379   6.949   8.256   4.591  0.3787  0.3042 -0.0239
14176W        W32380  17.746   8.771   1.632 -0.0272  0.0727  0.1985
14177W        W32381  12.462  14.168   3.809 -0.0742  0.0736  0.0760
14178W        W32382   3.959   6.729   2.819 -0.1232 -0.3241  0.0642
14179W        W32383  17.263  11.154  14.179  0.1154  0.0994  0.1098
14180W        W32384   5.213  16.930  14.633 -0.0970  0.2664  0.1875
14181W        W32385   5.317   8.192   0.919 -0.0807 -0.0661  0.0978
14182W        W32386   7.560  16.764  13.520 -0.0165 -0.1541 -0.0005
14183W        W32387  10.906  18.009  12.701 -0.1923  0.0015  0.0218
14184W        W32388  11.222   1.146  11.616  0.1175  0.0823 -0.1058
14185W        W32389  15.393   1.540   5.301 -0.1707  0.2434 -0.1728
14186W        W32390  12.060  14.171   3.466 -0.0596 -0.3702  0.3325
14187W        W32391   6.477  14.464   1.537  0.1631  0.0903 -0.0188
14188W        W32392  11.724  11.328   2.276 -0.0655  0.0760  0.0407
14189W        W32393   5.222  17.592   2.934 -0.0955 -0.3662 -0.3865
14190W        W32394  13.989   7.424  15.207 -0.0317  0.1885  0.2287
14191W        W32395   2.919   2.569   1.443  0.0516  0.0938 -0.0135
14192W        W32396   4.616   1.284  12.702  0.0595  0.0571  0.2716
14193W        W32397  14.110   9.743  12.705  0.2077 -0.2090 -0.0332
14194W        W32398   1.980  13.261  14.848  0.1173 -0.0395  0.3307
14195W        W32399  10.602  13.879   2.507 -0.1046  0.0199  0.1584
14196W        W32400   7.902  13.953   2.764  0.1511 -0.0180 -0.0088
14197W        W32401   3.464  13.292   4.445  0.3348  0.0755 -0.1171
14198W        W32402  17.762   8.659  12.042  0.0739 -0.3210 -0.0115
14199W        W32403   6.911   0.941   4.387 -0.1352 -0.0756  0.0706
14200W        W32404  18.563  14.164  15.466 -0.1113 -0.0540  0.1011
14201W        W32405   4.389  14.567   4.255  0.1585  0.2608  0.0470
14202W        W32406  17.810  18.062  15.268 -0.1236  0.1570  0.1262
14203W        W32407  18.552  15.671   1.094 -0.1323 -0.2273  0.0199
14204W        W32408   4.660  17.814   0.096 -0.1903  0.2446 -0.1279
14205W        W32409  14.212   1.193  11.216  0.4249 -0.1170 -0.1383
14206W        W32410   9.633  15.043  12.251 -0.0489  0.3086  0.3899
14207W        W32411  12.483   6.039   0.395  0.1393 -0.2678 -0.0332
14208W        W32412   9.698  15.120  15.377  0.2210 -0.1552  0.2026
14209W        W32413   3.556  17.177   1.048 -0.1392  0.3155  0.4188
14210W        W32414   7.638  12.428   3.476 -0.2449  0.0823  0.0681
14211W        W32415  17.799  10.097  13.130 -0.0584  0.1409  0.0759
14212W        W32416   3.648   3.700  12.764 -0.1134  0.1663  0.0664
14213W        W32417   6.753  18.523   1.010  0.1122  0.0096  0.0700
14214W        W32418   9.784   6.455   0.693 -0.0219  0.1100 -0.2436
14215W        W32419   3.128   8.100   3.482  0.3306 -0.3116 -0.3025
14216W        W32420   8.239  11.835   0.115 -0.2078 -0.1787  0.0526
14217W        W32421   0.678  18.546   2.996  0.3371 -0.2259 -0.0427
14218W        W32422  15.077   8.985  15.097  0.0007  0.0052  0.0166
14219W        W32423   8.109   2.701  10.979  0.1444 -0.3656 -0.2074
14220W        W32424   7.376   5.680   2.905 -0.0887  0.1345  0.1807
14221W        W32425   4.972   0.303  13.893  0.3848  0.1322  0.0282
14222W        W32426   8.735   1.866  13.839 -0.0827 -0.0858  0.3475
14223W        W32427   7.145   8.465  15.144 -0.0405  0.0307 -0.0052
14224W        W32428  11.369   2.145   4.286 -0.0558 -0.0303 -0.0113
14225W        W32429  12.799  14.658  13.488 -0.4446  0.0527 -0.1408
14226W        W32430   2.309   7.064  12.229 -0.0279 -0.2249 -0.0606
14227W        W32431  13.055   9.590  13.368 -0.0700 -0.2298 -0.1054
14228W        W32432  10.999   0.929   3.050  0.1400 -0.1846 -0.0177
14229W        W32433   6.013  12.165   3.316  0.0814 -0.0326 -0.2328
14230W        W32434   2.150  14.842  14.239  0.0514  0.0600  0.2811
14231W        W32435   7.035  13.277  12.565 -0.3926  0.0740 -0.1564
14232W        W32436  18.002   0.300   3.721 -0.2896  0.2270 -0.1493
14233W        W32437   9.349   5.501  13.321  0.1806 -0.1751  0.0607
14234W        W32438   5.105   7.461   1.005 -0.2806  0.0352  0.0659
14235W        W32439   9.867  16.134  11.598 -0.3134 -0.0784  0.1439
14236W        W32440   5.984   6.939  14.221  0.0824  0.0078  0.0704
14237W        W32441  15.547  16.704  14.574 -0.0545 -0.0706  0.1273
14238W        W32442  10.890   3.458   3.919 -0.4621  0.0727  0.0666
14239W        W32443   6.469  17.948  13.620  0.0457 -0.3837 -0.0898
14240W        W32444  14.496  13.926  15.117 -0.1234  0.0406 -0.4176
14241W        W32445  14.110   1.725   5.329  0.1925  0.2596  0.2022
14242W        W32446   5.763   1.908   3.369  0.2490 -0.0858  0.2610
14243W        W32447   7.340  12.254   3.011 -0.0235  0.0787 -0.1278
14244W        W32448   4.950   4.620   2.289 -0.1757 -0.0686 -0.1372
14245W        W32449  16.879  14.099  12.536  0.1029  0.0011 -0.3268
14246W        W32450  11.230  14.177   2.698  0.1419 -0.0080  0.0541
14247W        W32451   1.746   0.712  13.736  0.3493  0.3788  0.3480
14248W        W32452  11.694  12.930   3.489 -0.3347 -0.0876  0.1239
14249W        W32453   8.104  17.599   4.218 -0.3042  0.2341  0.6171
14250W        W32454   8.322   1.834  11.679  0.0524 -0.0439  0.1072
14251W        W32455   0.923   0.839   5.488 -0.0130  0.1683 -0.0033
14252W        W32456   7.879   8.090  14.695  0.3664 -0.0209  0.0859
14253W        W32457  17.817  14.636   2.709  0.1376 -0.0653 -0.3059
14254W        W32458   1.209   6.090  15.206  0.0003 -0.0542 -0.1521
14255W        W32459  17.308   0.253  15.290 -0.1408  0.1701 -0.1462
14256W        W32460   5.467  16.863   2.441  0.2047  0.0589  0.1155
14257W        W32461   2.642   7.971  15.012  0.1044 -0.0496 -0.1057
14258W        W32462  15.383   7.478  13.557  0.0763 -0.4696  0.0560
14259W        W32463  17.795  10.556   2.090  0.1969 -0.1283  0.0461
14260W        W32464   2.082   4.853   5.318 -0.0939 -0.3052  0.1672
14261W        W32465   1.614   3.320  12.827 -0.0060  0.0247 -0.1319
14262W        W32466  16.046   3.372  12.077 -0.1204 -0.0817 -0.0249
14263W        W32467   6.126   1.433   3.419 -0.0769 -0.1891  0.1872
14264W        W32468   3.980   8.238   4.002  0.0091  0.3695  0.0142
14265W        W32469  11.151  10.467  11.822  0.0327  0.0658  0.0459
14266W        W32470   3.981   1.462   3.472 -0.2347  0.0968 -0.0692
14267W        W32471  10.759   1.482  10.445 -0.0903 -0.0662  0.1134
14268W        W32472   7.103   0.670  13.255 -0.1073  0.2803 -0.1671
14269W        W32473   0.116   7.967  14.432 -0.2827 -0.1088  0.0010
14270W        W32474   7.207  14.573  15.063 -0.1298 -0.1666  0.1201
14271W        W32475  10.795  17.371   0.352 -0.0881 -0.1311 -0.2358
14272W        W32476   2.368  16.992   1.055  0.0210  0.2946 -0.3358
14273W        W32477  17.741  16.116   2.268 -0.0013 -0.1216 -0.1858
14274W        W32478   9.006  10.137   5.807  0.0279 -0.2713  0.1675
14275W        W32479  14.850   5.132  13.838 -0.0516 -0.0012 -0.1703
14276W        W32480   3.078   8.072   0.450 -0.1169  0.4900  0.1718
14277W        W32481   6.959   0.963   0.335 -0.0944  0.1627 -0.0146
14278W        W32482   5.382   2.293  11.418  0.2232 -0.3446 -0.2397
14279W        W32483   3.930   7.608   2.628 -0.2920 -0.3265  0.1664
14280W        W32484   2.271  13.608  11.785 -0.0225 -0.2952 -0.1989
14281W        W32485   5.524   5.332   1.731 -0.2349 -0.0611 -0.0460
14282W        W32486  13.959  16.188  12.576 -0.0964 -0.0603 -0.0235
14283W        W32487  14.013   7.318  13.367 -0.0534  0.1023 -0.2643
14284W        W32488   0.510   2.914   4.843 -0.0007 -0.0730  0.2203
14285W        W32489  11.350   8.620  12.749 -0.1209  0.0421 -0.3447
14286W        W32490  14.826   7.419   1.545  0.1632 -0.0078  0.1297
14287W        W32491   7.601  10.172  11.779 -0.4082 -0.3901 -0.0528
14288W        W32492   7.754   6.682   4.670  0.2555  0.2100 -0.0188
14289W        W32493   2.058  15.720   2.207  0.0613  0.1615  0.1421
14290W        W32494  14.975   3.764  10.322  0.1547 -0.1243 -0.0484
14291W        W32495   8.394  11.398  11.967  0.0411 -0.4091  0.0956
14292W        W32496   4.098   4.370  14.313 -0.0409 -0.2580  0.2220
14293W        W32497   8.197   9.664   1.814 -0.1224  0.1760 -0.2731
14294W        W32498  15.844  10.749   4.495  0.0664 -0.0133 -0.0541
14295W        W32499   6.339   7.537  14.154 -0.3198  0.1196  0.1022
14296W        W32500   0.709   0.584  14.159 -0.0365 -0.0936  0.2485
14297W        W32501  11.854   8.125   3.848  0.3349  0.1092  0.2177
14298W        W32502   4.874   3.946  13.016 -0.0004  0.2725 -0.0059
14299W        W32503  17.040   5.571   2.824 -0.0706 -0.0145 -0.3228
14300W        W32504   5.462   1.923  13.592 -0.2044  0.0101 -0.0729
14301W        W32505   1.843  10.872  11.308  0.0091  0.2238 -0.0335
14302W        W32506   3.918  11.376   0.455  0.0618 -0.0666  0.1251
14303W        W32507   5.080  14.154  13.708 -0.0422 -0.0108  0.1270
14304W        W32508   6.913   9.176  14.634 -0.1551  0.0981 -0.1265
14305W        W32509  11.578  13.842  12.329  0.0908 -0.3272  0.0053
14306W        W32510  15.910  13.956  15.264 -0.0232 -0.2496 -0.1466
14307W        W32511  15.335   6.422  14.639 -0.2942 -0.0565 -0.0768
14308W        W32512  14.903  18.076   3.061 -0.1305  0.1011 -0.0746
14309W        W32513   8.425   4.758   3.473 -0.1672 -0.1684 -0.2895
14310W        W32514  12.129  10.832   2.571 -0.0781 -0.0471  0.1005
14311W        W32515   1.923   2.832   5.708 -0.1756  0.3007  0.1150
14312W        W32516  16.210  13.134   4.302 -0.0817 -0.0366  0.2228
14313W        W32517  14.387  10.913   1.857 -0.0309  0.1381 -0.1292
14314W        W32518   1.809   8.838  14.936 -0.5352 -0.1958 -0.1924
14315W        W32519   2.734  11.914  12.434 -0.0565 -0.1741 -0.0422
14316W        W32520  12.760   4.305  11.514 -0.0742  0.2459  0.0344
14317W        W32521   4.821   0.893   4.338 -0.0966 -0.1653  0.1930
14318W        W32522  10.339  16.163   4.449 -0.1946 -0.1414  0.0249
14319W        W32523  12.945   1.183   3.813  0.0937 -0.0770 -0.1814
14320W        W32524  17.906   8.577   6.003  0.2806  0.1028  0.1262
14321W        W32525   1.517   7.686  12.996 -0.0545 -0.0436 -0.0732
14322W        W32526  10.093  18.096   5.496  0.1185 -0.0470  0.2389
14323W        W32527   7.785   1.922   2.530  0.1001 -0.0194 -0.0533
14324W        W32528   3.415   3.075  14.543  0.1121  0.0165 -0.2368
14325W        W32529   1.423   9.380   3.443 -0.0134  0.0941  0.0114
14326W        W32530  14.090   6.381  14.692 -0.0961  0.1012 -0.0172
14327W        W32531   0.815   2.816   2.015  0.2607 -0.3630  0.2268
14328W        W32532   7.416   5.930   1.215 -0.0465  0.0943  0.2980
14329W        W32533   2.731   1.620   4.989  0.1403  0.2544  0.1337
14330W        W32534  13.417  17.204  11.951 -0.2198  0.3003 -0.3913
14331W        W32535  15.370  18.404   1.500 -0.3708  0.1532 -0.1990
14332W        W32536   7.525   9.749   1.849  0.0146  0.1002  0.2221
14333W        W32537   9.598  13.353   0.961  0.1456 -0.1786 -0.0352
14334W        W32538   1.646  16.546   1.805  0.1636 -0.0781  0.2658
14335W        W32539   2.867  18.051  11.080  0.3299 -0.2627 -0.3386
14336W        W32540  11.858   9.489  10.999 -0.0863  0.0548 -0.0711
14337W        W32541  15.855   4.069   2.811 -0.1073 -0.3119  0.0188
14338W        W32542   4.193  15.464  14.985 -0.3643 -0.0566 -0.4010
14339W        W32543   4.991  12.907  10.964  0.1338  0.0133 -0.2461
14340W        W32544   6.825   5.123  11.308  0.5099 -0.2254 -0.1689
14341W        W32545   7.085   6.900   2.403  0.0378  0.1203 -0.1384
14342W        W32546  14.516   1.823  13.888  0.1091  0.0191  0.2085
14343W        W32547   2.326   8.561  10.966  0.0088 -0.1200 -0.0083
14344W        W32548   5.462  18.375   1.081 -0.1118 -0.1128  0.1342
14345W        W32549   5.630   4.969  14.507 -0.0511  0.1747  0.0702
14346W        W32550   5.676  15.783   4.577  0.0941  0.2932 -0.2832
14347W        W32551  16.564   0.663   3.532  0.2464  0.0657 -0.2168
14348W        W32552   8.758  17.514  12.069  0.1686 -0.1648 -0.1968
14349W        W32553   1.295   8.731   3.958 -0.2904 -0.0317  0.0729
14350W        W32554  15.486   0.231  11.838  0.0434 -0.0767 -0.0389
14351W        W32555   7.297   6.610   0.372 -0.0933  0.0026 -0.0868
14352W        W32556  13.439   6.071   3.133  0.1683 -0.2453 -0.2434
14353W        W32557  10.314   4.217   5.374 -0.1115  0.2833 -0.0419
14354W        W32558  13.607   4.793  13.503 -0.1931 -0.3867  0.3435
14355W        W32559  17.632  14.145   2.925  0.2561 -0.3211  0.2671
14356W        W32560  13.562   3.920   2.589  0.0250  0.0155 -0.3287
14357W        W32561   1.647   8.044  14.820 -0.0155  0.0018 -0.1850
14358W        W32562   8.949  10.273  13.745 -0.2732 -0.3355 -0.0784
14359W        W32563   9.221  14.606   0.322 -0.1461  0.2487 -0.1621
14360W        W32564   9.629   7.596   0.735  0.0903 -0.1230 -0.2612
14361W        W32565   2.525   8.396   4.053 -0.0888  0.3490 -0.0016
14362W        W32566  12.682  14.773  11.533  0.1863 -0.1113  0.0564
14363W        W32567   0.259   5.533   4.724  0.4632  0.1760 -0.0242
14364W        W32568  15.410  14.165  14.332  0.3370 -0.4474 -0.5573
14365W        W32569   6.536  13.252  12.313  0.0773 -0.0481  0.0923
14366W        W32570  17.570   6.545  13.953  0.2454  0.1418 -0.2871
14367W        W32571   2.323   6.842  11.488 -0.0725  0.1213  0.2588
14368W        W32572  16.469  11.932   0.840  0.1651  0.1236  0.1024
14369W        W32573   9.548   4.244  11.831  0.0650 -0.2020 -0.2756
14370W        W32574   0.548   9.266   1.090  0.2212  0.0820 -0.5274
14371W        W32575  17.523  17.350  12.436  0.1156  0.0206 -0.1179
14372W        W32576   0.082  12.094  12.899 -0.0460 -0.3978  0.0472
14373W        W32577   0.257   5.488   2.991  0.1137  0.0694 -0.1992
14374W        W32578  17.782   2.704  12.589  0.0671  0.0157  0.0374
14375W        W32579  14.736   8.749  12.554 -0.0709  0.3252 -0.0076
14376W        W32580  12.419  14.953   2.724  0.0580 -0.1853 -0.0819
14377W        W32581  18.278   8.089   2.184 -0.1649  0.0870  0.0892
14378W        W32582   6.310  15.036  14.910  0.3607  0.1039  0.0147
14379W        W32583   1.752   1.475  14.275  0.1637 -0.0483  0.1588
14380W        W32584  18.107  14.956   4.886  0.0760 -0.1386 -0.1082
14381W        W32585   8.380   7.610   0.814 -0.1763 -0.4052  0.1155
14382W        W32586   7.519   8.166  15.419 -0.0864  0.0038  0.0051
14383W        W32587   2.420  11.694  10.333  0.1413 -0.0001  0.0299
14384W        W32588  16.663   8.013  12.257 -0.1144 -0.2559  0.1586
14385W        W32589   0.984  15.112  12.097 -0.3657 -0.1530  0.1147
14386W        W32590   2.879   1.408   2.199  0.2600  0.3388 -0.2164
14387W        W32591   2.574  12.208  15.399 -0.4610  0.4264 -0.2084
14388W        W32592   0.151   0.724  14.727  0.0963  0.3284 -0.2056
14389W        W32593   8.106  16.241  11.560 -0.2360 -0.1104  0.2076
14390W        W32594   7.893  17.019   2.775  0.0028 -0.3431 -0.0263
14391W        W32595   7.137   7.435   0.168 -0.1518 -0.1710 -0.3420
14392W        W32596   0.795   6.017  13.394  0.2312  0.1433 -0.0479
14393W        W32597  14.932   7.672   3.596  0.0435  0.0414  0.1465
14394W        W32598   4.375   4.136  13.014  0.3021  0.2209  0.0424
14395W        W32599  15.248   2.047   2.206  0.1364  0.2898 -0.1290
14396W        W32600   9.997   6.101   4.255 -0.5007 -0.0978  0.2853
14397W        W32601  13.052   7.111  11.584 -0.0011 -0.1247  0.3363
14398W        W32602  18.628   4.501  12.853 -0.1107 -0.1168 -0.2111
14399W        W32603   8.252  17.627  13.287  0.0721 -0.0919 -0.1625
14400W        W32604   1.988  11.885  10.297  0.1831  0.3931 -0.3757
14401W        W32605  17.723   8.016   2.282 -0.0308  0.3497  0.2138
14402W        W32606   4.474  13.355   2.823  0.3326  0.3699  0.2145
14403W        W32607  11.494  13.212   3.085  0.0863  0.2408 -0.0324
14404W        W32608   4.994  10.159  13.634  0.1550 -0.2241 -0.1529
14405W        W32609   6.018   3.451   0.983  0.0938 -0.0372  0.1557
14406W        W32610   7.503   3.626   2.257  0.1726 -0.2710  0.2842
14407W        W32611   6.565   3.447   3.950 -0.0378 -0.2032 -0.1271
14408W        W32612  12.074  13.978  10.577  0.1804  0.2763  0.0512
14409W        W32613   1.440  18.076  13.555 -0.4108  0.2773 -0.0121
14410W        W32614   4.817  12.111   1.903 -0.2292  0.0345 -0.1615
14411W        W32615   7.354  13.770  11.425  0.2168  0.0584 -0.1911
14412W        W32616  12.528   5.052   1.869  0.3456 -0.1561  0.0319
14413W        W32617   9.946  10.688   2.475 -0.2005 -0.0688  0.1888
14414W        W32618  10.714  14.514   1.822  0.0746 -0.2052 -0.1535
14415W        W32619   2.416  10.791  13.536  0.2348 -0.1426  0.2614
14416W        W32620  15.319  13.869  13.854 -0.0182  0.2005  0.0678
14417W        W32621   9.688  12.275   5.851 -0.0341 -0.1936 -0.2318
14418W        W32622  16.950  10.981   1.248 -0.0683 -0.1931 -0.1569
14419W        W32623   0.737   2.983  10.668 -0.0892  0.5058 -0.0661
14420W        W32624   6.328   6.869   3.316  0.0690  0.0422  0.1148
14421W        W32625   7.484  16.949  11.305 -0.4018  0.5723 -0.0489
14422W        W32626  13.104   6.896   3.272  0.1203  0.2106  0.1002
14423W        W32627   2.055  17.376   4.398 -0.0621 -0.1441  0.2281
14424W        W32628   2.365   7.207  10.917 -0.1516 -0.0148  0.0043
14425W        W32629   6.027   4.798  11.013  0.0182 -0.1290  0.0151
14426W        W32630  10.552   6.971   4.255 -0.0660 -0.0018 -0.2125
14427W        W32631  12.948   6.241   0.615 -0.2130  0.2829 -0.0828
14428W        W32632   3.857  16.097  10.274  0.0147  0.0147  0.0175
14429W        W32633   8.377   2.063  10.844 -0.1850 -0.0601 -0.1146
14430W        W32634   3.596   0.210   4.377  0.1321 -0.2906  0.1657
14431W        W32635   6.727   1.049  10.709 -0.1112 -0.1433  0.0912
14432W        W32636   3.219   1.889   3.395 -0.0844 -0.0549  0.4127
14433W        W32637  15.304  10.500  12.711  0.3829 -0.2299 -0.1527
14434W        W32638   9.102  16.946   2.022  0.3770 -0.1468  0.2322
14435W        W32639   5.241   8.995  11.123  0.0895  0.1727  0.3992
14436W        W32640   4.960   9.506   3.294 -0.0642 -0.0685 -0.1355
14437W        W32641  12.488  16.888  13.346 -0.1466 -0.1319 -0.0140
14438W        W32642   9.845   1.298  10.743 -0.3040 -0.0660 -0.0129
14439W        W32643  18.635  14.616  12.770 -0.0599 -0.1576 -0.1086
14440W        W32644   0.493   4.278   0.314  0.1434  0.1041  0.0389
14441W        W32645   2.009  17.200   2.452 -0.1612  0.0740 -0.0034
14442W        W32646  16.263  12.338  14.032 -0.0559  0.1410 -0.3884
14443W        W32647  17.964   0.566   5.600  0.1298 -0.0518 -0.0444
14444W        W32648   0.860  14.734   2.271  0.0190  0.2305 -0.0372
14445W        W32649  12.304   1.528  11.811  0.3486  0.1626  0.0669
14446W        W32650  10.866  10.311  13.202  0.0439  0.1626 -0.0088
14447W        W32651   2.660  16.338   2.384 -0.0588  0.2436 -0.0831
14448W        W32652   6.471  17.357   2.319  0.2694  0.1877 -0.0111
14449W        W32653   9.231  12.457  10.722  0.1349 -0.1139 -0.2303
14450W        W32654   9.788  16.279  12.094  0.0037  0.1183  0.1762
14451W        W32655   7.322  14.220  12.387  0.1971  0.1540 -0.1345
14452W        W32656  17.420  10.583  15.060  0.0638 -0.4437 -0.1163
14453W        W32657   1.458   0.408   2.862  0.2484  0.0291 -0.3609
14454W        W32658   8.681   7.896  13.679  0.2530  0.1460  0.1063
14455W        W32659   1.534   3.299   0.804  0.2406  0.1548 -0.0084
14456W        W32660   3.729   2.152   1.799  0.1326  0.1103  0.1536
14457W        W32661   3.817   7.670  13.206  0.2115 -0.1546  0.0406
14458W        W32662  14.971  10.626  12.300  0.4205  0.1975 -0.2396
14459W        W32663  12.703  15.265  11.748  0.1135  0.1965  0.1304
14460W        W32664  15.540  12.414  14.613 -0.1531 -0.0170 -0.3175
14461W        W32665  13.015  16.234  13.497  0.0404  0.3609  0.1240
14462W        W32666   2.177   5.771  14.885  0.1802 -0.2821 -0.1860
14463W        W32667  17.015  18.432  11.435  0.0523  0.1947 -0.0603
14464W        W32668  15.225   5.618   5.032  0.1453 -0.1055 -0.0711
14465W        W32669   2.207  10.320   4.027 -0.1829  0.0547 -0.1315
14466W        W32670  15.612   1.752  14.677  0.0971  0.0737 -0.0934
14467W        W32671  12.632   2.563  10.434 -0.0899  0.1225 -0.3714
14468W        W32672   3.379  12.357   0.223 -0.1959  0.0513  0.0513
14469W        W32673   9.351   1.139   0.922  0.1011 -0.0481  0.0344
14470W        W32674   6.143   0.922   1.385 -0.0787  0.0651 -0.3236
14471W        W32675  11.402   6.667  13.431 -0.1447  0.2173  0.0481
14472W        W32676  13.558   5.039  12.276  0.0629 -0.2676  0.1835
14473W        W32677   7.337   4.376   2.686  0.3402  0.3098 -0.0250
14474W        W32678   8.119  11.140  15.230  0.0729 -0.2020  0.1248
14475W        W32679   8.664   0.098  13.281  0.0820 -0.0104 -0.0431
14476W        W32680   2.014  17.983  14.160 -0.0448 -0.0246  0.2168
14477W        W32681  17.967   8.110  13.452  0.1200  0.2705 -0.0306
14478W        W32682  13.736   7.591   0.098  0.0784  0.1828 -0.0871
14479W        W32683   6.055   5.498  14.392  0.1220  0.0764 -0.0583
14480W        W32684   3.207   2.980   1.472  0.4611 -0.1790  0.0141
14481W        W32685   5.029  17.137  12.062 -0.0985  0.1631  0.0179
14482W        W32686   6.773   6.724   4.541  0.2354  0.1037 -0.0123
14483W        W32687  16.781   4.150   4.520  0.3308 -0.1082  0.1269
14484W        W32688  11.248  15.833  13.203 -0.0038  0.1353  0.3477
14485W        W32689  11.744  12.867   0.616 -0.1185 -0.0119 -0.1239
14486W        W32690   2.973  11.916  11.037  0.0800 -0.2359  0.3357
14487W        W32691  11.227   7.562   4.229 -0.1117 -0.0036  0.1990
14488W        W32692  16.601  12.797  12.107  0.3439  0.5730  0.1420
14489W        W32693  16.550   9.401   3.227  0.0394 -0.0628  0.0154
14490W        W32694   4.052   7.982   3.428  0.0960  0.2080 -0.0438
14491W        W32695  15.582   2.654  12.284 -0.1435 -0.0627  0.1475
14492W        W32696  12.571   7.690   2.365 -0.2263  0.0579 -0.0803
14493W        W32697  15.099  10.056  12.613 -0.1246  0.1359  0.1779
14494W        W32698   4.498  11.229   3.195  0.0032  0.1306 -0.0147
14495W        W32699   9.318   1.968   2.234 -0.1908 -0.2440  0.2147
14496W        W32700  11.902  14.586   3.289 -0.0462 -0.2419  0.1850
14497W        W32701  10.452  10.544   0.735 -0.2679 -0.0666 -0.1694
14498W        W32702   7.012   7.977   1.100  0.3236 -0.0337 -0.0547
14499W        W32703  16.403   0.569   5.795  0.1533  0.2754 -0.2157
14500W        W32704   8.732  15.662  12.891 -0.0715  0.1057 -0.0523
14501W        W32705   0.940   2.849  12.531  0.0256 -0.0534  0.0730
14502W        W32706   7.688  17.483  14.069  0.1944 -0.1906  0.2259
14503W        W32707  11.685   8.995  14.812  0.0609  0.0419  0.1022
14504W        W32708  12.420   1.808  14.501  0.0545 -0.1871 -0.0085
14505W        W32709   3.073  10.726   4.419  0.0204 -0.1248  0.3406
14506W        W32710   7.872   9.393   3.848  0.1248 -0.1044 -0.0130
14507W        W32711  11.900  13.809   1.238  0.3562  0.0588  0.1407
14508W        W32712  15.010   8.062  12.064 -0.1688  0.0428  0.0392
14509W        W32713  13.892   0.914   0.397  0.0135 -0.3587  0.0489
14510W        W32714   6.929  10.564  12.998 -0.1176 -0.3387 -0.0686
14511W        W32715  13.554   6.953   1.893  0.2934  0.0209 -0.3420
14512W        W32716  13.353   4.888   3.576 -0.0455  0.1334  0.0446
14513W        W32717  11.530  14.672  11.658 -0.3612  0.1313 -0.1330
14514W        W32718   0.499  11.972   1.487 -0.0661 -0.1259  0.0382
14515W        W32719  14.715  13.852   1.473 -0.0503  0.2457 -0.1328
14516W        W32720   9.369   6.933  12.469 -0.0300  0.0819  0.0348
14517W        W32721   0.575   3.720   0.769  0.1628  0.3844  0.0418
14518W        W32722   2.030  18.203   2.360  0.0687 -0.1037 -0.2177
14519W        W32723  17.393   3.072  12.894 -0.2427  0.2497  0.0836
14520W        W32724   0.603  10.301  12.079 -0.2630 -0.0235 -0.0099
14521W        W32725   9.446   9.876  11.479 -0.0430 -0.0043 -0.0995
14522W        W32726   5.367  10.447   3.360  0.0942  0.2877  0.0126
14523W        W32727   7.067  10.527   3.051  0.2751 -0.0777 -0.0124
14524W        W32728  11.242  14.773   4.352 -0.0603  0.3857 -0.0239
14525W        W32729  11.304  14.497   3.606  0.0875 -0.0677  0.2959
14526W        W32730   0.323   7.097  14.795  0.0237  0.2140  0.2474
14527W        W32731   3.182   1.414  12.233  0.1134 -0.3468  0.0597
14528W        W32732  16.580   3.591  12.627  0.0771  0.0351  0.1487
14529W        W32733   3.777   6.802  13.946  0.2397 -0.1238  0.2779
14530W        W32734   0.388  13.352  13.230  0.3880 -0.0006 -0.1158
14531W        W32735  17.106   4.134   4.113 -0.1340  0.1504  0.2371
14532W        W32736  16.689  14.991   2.948  0.1328 -0.1873 -0.2234
14533W        W32737   0.767  12.780   3.586 -0.0955  0.0399  0.0296
14534W        W32738  12.432   6.214  11.774 -0.0136  0.1458  0.0565
14535W        W32739  14.524  15.678   4.804 -0.0556  0.2783 -0.0102
14536W        W32740   4.952  11.902  13.795  0.2323 -0.2640  0.3310
14537W        W32741   8.883  10.869  15.429 -0.1317  0.2504 -0.2494
14538W        W32742   5.435  14.514   4.707  0.2135  0.0836 -0.1695
14539W        W32743  15.071   0.078  14.487  0.0480 -0.1117  0.1924
14540W        W32744   4.718   5.836   4.771  0.0231  0.1738 -0.1277
14541W        W32745  15.339  16.712  12.421  0.1103  0.1385 -0.1722
14542W        W32746   6.894   0.463   4.443  0.1264  0.1121  0.0809
14543W        W32747  10.930   1.251  14.454  0.2748  0.2897 -0.2083
14544W        W32748  13.761  16.947   2.589 -0.1529  0.1087 -0.1108
14545W        W32749  18.557  11.098   1.363  0.2061 -0.4307  0.0463
14546W        W32750   3.310   6.402  15.275 -0.2325 -0.1239  0.1377
14547W        W32751  14.140  17.759   1.543 -0.2089  0.0645  0.5981
14548W        W32752   1.951   3.691   3.690  0.1584 -0.2718  0.1895
14549W        W32753  17.752  18.471  13.505 -0.1868 -0.0122  0.0935
14550W        W32754  12.666   3.417   1.402  0.0624  0.0449  0.1705
14551W        W32755  15.843  10.261  13.489  0.0826  0.1438  0.1867
14552W        W32756   1.630  14.098  12.939 -0.1320 -0.0880  0.0076
14553W        W32757  15.636  14.262   4.088  0.0639 -0.0026 -0.1740
14554W        W32758  15.022  17.780  12.364  0.0936 -0.1255  0.0536
14555W        W32759   4.691  12.599   1.871  0.0540  0.0796  0.1016
14556W        W32760  17.811   7.333  11.045 -0.1717 -0.2083 -0.0545
14557W        W32761  13.093   4.399  14.314 -0.0638 -0.1238 -0.2519
14558W        W32762   3.060  11.632  12.016 -0.1716  0.0181 -0.0403
14559W        W32763  10.399   3.607   1.214 -0.1106  0.3864 -0.0752
14560W        W32764   2.187   3.143   1.594  0.2529 -0.0423 -0.0289
14561W        W32765   5.031  15.751   3.998  0.1315  0.2031 -0.0354
14562W        W32766  14.347  12.863   1.710 -0.2044 -0.1187 -0.3472
14563W        W32767   2.087  16.991  13.366  0.0830 -0.1002 -0.1880
14564W        W32768   2.811   8.585   5.062  0.0963 -0.0304 -0.2102
14565W        W32769  12.932   3.266  13.002  0.2732 -0.0753  0.1357
14566W        W32770   8.879   2.084  13.056  0.0614  0.1419 -0.3097
14567W        W32771  15.443   9.274   4.951  0.2933 -0.0448  0.1186
14568W        W32772   6.337   8.601   4.795  0.0808  0.3600  0.1782
14569W        W32773  11.499  18.665   9.708  0.0872  0.2664 -0.1269
14570W        W32774   3.449   8.282   2.006 -0.2697 -0.1139  0.1191
14571W        W32775   1.776  10.221   0.161  0.4206  0.1158 -0.1453
14572W        W32776   9.360  10.668  10.322 -0.5563  0.2254  0.1312
14573W        W32777  15.782   6.887  11.683 -0.0178  0.0661 -0.3041
14574W        W32778  14.092   5.913  12.145 -0.2668  0.0835 -0.0635
14575W        W32779   6.332  17.185  14.147 -0.0700  0.1170 -0.1855
14576W        W32780  15.142   9.794   5.771 -0.1893 -0.0437 -0.2168
14577W        W32781  14.937   2.992  13.485 -0.4762  0.0578 -0.2519
14578W        W32782   1.890   1.209  11.535 -0.0759 -0.0656  0.1834
14579W        W32783  12.368  13.657   0.248 -0.2446  0.0169  0.1178
14580W        W32784  18.116  11.816  12.144  0.1330  0.1194  0.0830
14581W        W32785   3.046   8.817   4.226  0.1220 -0.0425  0.0421
14582W        W32786   5.831   3.955  13.046 -0.2498  0.0113 -0.1642
14583W        W32787  18.339   4.886  11.677 -0.1539 -0.0419  0.0435
14584W        W32788   5.576   5.639  15.001 -0.3081 -0.1281 -0.3771
14585W        W32789  13.828   9.383   3.695 -0.0947  0.1678 -0.1014
14586W        W32790  16.555  11.199  15.220  0.2241  0.0473 -0.0172
14587W        W32791  11.606  15.584   5.261 -0.0781  0.3145 -0.1632
14588W        W32792   4.389   1.402  15.082  0.3533 -0.1721 -0.3357
14589W        W32793  11.875   0.063   4.737 -0.0609 -0.1264  0.2003
14590W        W32794   4.517   3.280   3.343 -0.3129 -0.2162  0.1761
14591W        W32795  18.036  14.943  11.435 -0.1518  0.2671 -0.3192
14592W        W32796   1.447  14.568   2.136 -0.1704  0.1757  0.2418
14593W        W32797  11.432  14.410  15.223 -0.0305  0.0645 -0.0559
14594W        W32798   5.520   3.224  12.197  0.2549 -0.0739  0.0818
14595W        W32799  12.938   8.276  15.181  0.3265 -0.1137 -0.1686
14596W        W32800  14.725  15.757  11.509  0.0972 -0.1389  0.0748
14597W        W32801  17.340   5.648   1.781  0.1709  0.2045  0.0447
14598W        W32802   8.033   9.824  13.422 -0.0895  0.0548  0.2037
14599W        W32803   6.299  10.675   1.368 -0.0346 -0.0794  0.2316
14600W        W32804  11.160  18.282  11.637  0.3421 -0.0609  0.0109
14601W        W32805  17.094   8.856   0.105  0.2525 -0.1462 -0.0015
14602W        W32806  18.651   5.985  13.200 -0.1600  0.0601  0.0624
14603W        W32807  11.182   2.146   1.975  0.1951  0.0128  0.2897
14604W        W32808  12.285  10.213  12.765  0.0979 -0.0273 -0.0959
14605W        W32809   5.847  18.460  15.149  0.2043 -0.4575 -0.0842
14606W        W32810  12.864  17.993  14.164 -0.0970 -0.1141 -0.4796
14607W        W32811  17.515  11.475   0.176  0.2444 -0.2354 -0.0428
14608W        W32812   4.414   0.316   3.892  0.1472 -0.1616  0.2140
14609W        W32813   6.933   4.345  11.060  0.0424 -0.3299  0.0643
14610W        W32814  11.482  10.821   2.980 -0.1748  0.0675 -0.0063
14611W        W32815  13.247   4.429  12.730 -0.0830 -0.0366 -0.1792
14612W        W32816   6.619   8.225  11.448 -0.1710 -0.0540 -0.0608
14613W        W32817   1.650   1.458  15.261  0.2558  0.1482 -0.0676
14614W        W32818   5.066   3.581  14.550 -0.1193  0.1320 -0.3193
14615W        W32819   9.027   6.564   1.322 -0.0023  0.0936  0.2017
14616W        W32820   5.963  12.590   2.452  0.0280 -0.2064 -0.0897
14617W        W32821   6.502  11.861   2.091  0.2408 -0.0957 -0.5264
14618W        W32822  16.715  18.035   3.342  0.0028  0.3097  0.1273
14619W        W32823   8.341   0.129   0.133  0.0496 -0.2255  0.0769
14620W        W32824  14.234   1.519  14.201  0.2128 -0.2054 -0.2422
14621W        W32825  13.987  18.113   2.215 -0.2461 -0.1904 -0.1569
14622W        W32826  12.110  16.213  10.918  0.0790 -0.0130 -0.3285
14623W        W32827   7.739   6.325   3.595 -0.2917  0.1034  0.2117
14624W        W32828   1.343   8.286  14.045 -0.1191 -0.3614 -0.0465
14625W        W32829   5.277  16.545  11.433 -0.2154  0.0338  0.1301
14626W        W32830   7.687   1.865   4.261  0.0843  0.1582 -0.1475
14627W        W32831  15.505   0.274   4.742 -0.2634  0.1514  0.0438
14628W        W32832  12.829   4.780  11.564 -0.3362  0.0807 -0.1321
14629W        W32833   2.606  16.496   4.273 -0.0944  0.2261  0.0285
14630W        W32834  14.376   1.457  11.656 -0.1102  0.3635  0.3114
14631W        W32835   1.901   7.370  13.058 -0.5802  0.0459  0.0673
14632W        W32836  10.423  10.210  12.237  0.1126  0.5096  0.0194
14633W        W32837   8.844  10.371   0.888 -0.3196 -0.0450  0.0156
14634W        W32838  13.853   7.164   4.632 -0.0229 -0.0545 -0.2848
14635W        W32839  17.173  10.826   2.720  0.1025 -0.1530 -0.2663
14636W        W32840  17.656   3.770  15.123 -0.0294  0.0693  0.0144
14637W        W32841  17.028   7.034   4.640 -0.0565 -0.0871 -0.1330
14638W        W32842   6.843  17.676  12.063  0.2178 -0.4399  0.0935
14639W        W32843   6.830  13.651   0.604 -0.0480 -0.0830  0.0159
14640W        W32844  16.671  15.864   3.975 -0.3798  0.1145 -0.5223
14641W        W32845  16.863   8.266   4.120 -0.0261  0.0744 -0.2872
14642W        W32846   5.532  13.099  10.923 -0.1752  0.1756 -0.1367
14643W        W32847  16.613   5.790  13.369 -0.0798  0.3155 -0.1009
14644W        W32848  18.174  12.881   4.151 -0.0125  0.2237 -0.3030
14645W        W32849   8.893   9.915  12.527 -0.1442 -0.3071 -0.0796
14646W        W32850  14.115  11.556   3.523 -0.3344 -0.2308  0.1937
14647W        W32851  15.719  12.329  12.347 -0.0859 -0.0838 -0.1126
14648W        W32852  13.291  11.673   2.879 -0.2190 -0.0674  0.2813
14649W        W32853   5.192   8.109  14.500 -0.0043  0.1196  0.0840
14650W        W32854   4.131   0.943   4.188 -0.2021  0.1396  0.0605
14651W        W32855  11.762   6.834  12.043  0.0931 -0.1020 -0.0448
14652W        W32856   2.864   5.027   0.008  0.0463  0.1365  0.0970
14653W        W32857   6.765   7.709  12.488  0.0244 -0.2553 -0.0156
14654W        W32858   0.725   5.885  12.001 -0.0487 -0.1181 -0.2519
14655W        W32859   9.276   5.235   4.162 -0.2170  0.2541  0.1395
14656W        W32860   6.793  17.030  13.224  0.3382 -0.0647  0.0586
14657W        W32861  17.128   9.708   1.861  0.1122 -0.2867 -0.0932
14658W        W32862  13.040   8.801  11.715  0.1803 -0.1781  0.2364
14659W        W32863  17.923   9.494   1.976 -0.0121 -0.0189  0.2326
14660W        W32864  11.509  10.497   4.517 -0.2506 -0.1899 -0.0011
14661W        W32865   0.427   2.813   0.050 -0.2418  0.1310  0.2932
14662W        W32866   7.670  17.599  10.957 -0.2787 -0.1389 -0.0722
14663W        W32867   6.972   8.914  10.605  0.0823  0.2427 -0.0916
14664W        W32868   6.949   8.914   1.866 -0.1459 -0.1974 -0.1404
14665W        W32869  11.542  18.575  10.619 -0.0353  0.2627 -0.5172
14666W        W32870  12.613  13.847   1.694 -0.3125  0.0914  0.1159
14667W        W32871  13.848   1.506   2.825  0.3341  0.2258  0.4625
14668W        W32872   2.345   8.977  14.826 -0.2010  0.0041  0.0417
14669W        W32873  16.464  18.204   4.901  0.0866 -0.0067  0.0285
14670W        W32874  14.377   7.508   3.142  0.1358  0.0918 -0.1168
14671W        W32875  17.545   7.608   5.058 -0.0801  0.2096  0.0638
14672W        W32876   0.379  15.161   0.653 -0.0258 -0.3469  0.1220
14673W        W32877   8.444  18.670  11.932 -0.1274  0.2062 -0.3059
14674W        W32878   4.913  10.518  14.788 -0.1976 -0.2707  0.2489
14675W        W32879  11.931  11.033  12.450  0.2542 -0.3709 -0.0635
14676W        W32880  12.378   9.411   4.892  0.2550 -0.0076  0.0845
14677W        W32881  17.188   7.220  11.382  0.1246 -0.5119  0.0430
14678W        W32882   6.680   7.762   2.915  0.1039  0.1094 -0.1463
14679W        W32883  13.091   9.755   4.551  0.2667 -0.2766  0.1341
14680W        W32884  10.430   9.413  14.488  0.2274 -0.0891  0.0686
14681W        W32885   9.762  16.933  11.138  0.0158 -0.0965  0.4001
14682W        W32886   7.834  10.195  12.794  0.1863  0.2163  0.1199
14683W        W32887   0.654   8.616  13.308  0.1750  0.3272  0.1785
14684W        W32888   5.247   9.965   2.250  0.0818  0.0943 -0.0292
14685W        W32889  16.800  10.899   3.129 -0.1438  0.2907  0.3003
14686W        W32890  15.810   9.637   1.269 -0.1054  0.1246 -0.2855
14687W        W32891   8.629  13.820  15.318 -0.3017 -0.3299  0.3816
14688W        W32892  16.990   5.044   3.033 -0.1511  0.0421 -0.0839
14689W        W32893   6.685   8.801  12.324  0.1802 -0.0685  0.2958
14690W        W32894   6.716  14.736   0.505 -0.1576 -0.0483 -0.0739
14691W        W32895  14.025   7.505  12.864 -0.0566 -0.1091 -0.4046
14692W        W32896  15.426  12.464  12.777  0.1280 -0.0469  0.0648
14693W        W32897   4.774  15.604  11.688 -0.1299  0.0713 -0.1777
14694W        W32898   9.944  11.751  14.565  0.1017  0.0345  0.3440
14695W        W32899  14.919  14.066  11.065 -0.1196  0.0879  0.0117
14696W        W32900  10.969  10.752   1.218 -0.0003  0.0951 -0.0571
14697W        W32901   6.139  17.681  14.101 -0.3298 -0.0749  0.0562
14698W        W32902  16.982  15.547  12.018  0.4617 -0.0853 -0.1929
14699W        W32903   4.149  18.236  11.830 -0.3023  0.0615  0.2164
14700W        W32904  10.908  13.630  11.014  0.1548  0.1994  0.1456
14701W        W32905  10.842   4.128   4.561  0.1815 -0.0185 -0.0183
14702W        W32906   3.301  16.314   5.042 -0.1073  0.3142  0.2247
14703W        W32907   9.882   3.579   3.189  0.4349 -0.2727  0.0868
14704W        W32908   8.944   5.023  11.967 -0.2552 -0.1440  0.1302
14705W        W32909   8.763  10.103  11.522  0.0101 -0.0687 -0.0861
14706W        W32910  18.658   7.729  15.344  0.1675 -0.1823  0.1609
14707W        W32911   5.746  17.000   1.290 -0.0236  0.2069 -0.1695
14708W        W32912  12.943  16.275   1.076  0.1227  0.1502  0.4587
14709W        W32913   4.469  17.234  14.557  0.1537 -0.0125  0.1035
14710W        W32914   0.581  13.098   4.430  0.2691 -0.0789  0.1197
14711W        W32915  13.761   2.198  14.012  0.0280 -0.1542 -0.0426
14712W        W32916   7.069   7.890  15.309  0.0832 -0.4141  0.0245
14713W        W32917   2.544   9.917  15.368 -0.2681 -0.0140 -0.1221
14714W        W32918  12.338  11.274  12.261 -0.1685 -0.2468 -0.1851
14715W        W32919  11.947  15.398  12.856  0.2354  0.1346  0.1180
14716W        W32920   8.448  11.905  12.115 -0.1649 -0.0538 -0.1651
14717W        W32921  17.921  15.475   1.091  0.0569  0.1511 -0.2499
14718W        W32922   3.608   9.963   0.936 -0.3918  0.2365  0.0527
14719W        W32923   1.459   7.522   0.799 -0.1107 -0.0775  0.1157
14720W        W32924  15.739   6.497  12.034 -0.0049  0.5171 -0.0752
14721W        W32925   8.597   9.960   5.479 -0.3172  0.0468  0.1641
14722W        W32926  11.349   2.769  12.250 -0.2721 -0.3356  0.1151
14723W        W32927  17.101  18.673   1.826 -0.2773  0.2472 -0.2546
14724W        W32928  18.357  16.645  10.952 -0.1255  0.4002  0.0819
14725W        W32929  10.702   9.746  14.724 -0.0016  0.5896  0.2820
14726W        W32930  11.998  17.403  12.200  0.0000  0.2496 -0.1201
14727W        W32931   6.416   1.790  14.201  0.0094  0.1775  0.2453
14728W        W32932   3.022   2.805  14.975 -0.2311 -0.1365 -0.4814
14729W        W32933   2.342   6.605   2.387  0.0702  0.2729 -0.0645
14730W        W32934   8.010   3.237  11.623  0.1699 -0.0244 -0.2716
14731W        W32935  16.676  15.687  14.650 -0.2196  0.1862  0.1875
14732W        W32936  17.032   4.150   2.783  0.2583 -0.0883  0.2014
14733W        W32937   8.218   7.137   2.181  0.2775  0.2063 -0.0022
14734W        W32938  10.473   5.267  10.418 -0.1213  0.1524 -0.3114
14735W        W32939  10.382   8.380  12.965 -0.0132  0.1896 -0.3087
14736W        W32940   4.606  17.750  10.671  0.1690 -0.0088  0.0451
14737W        W32941   0.012   5.307   4.051 -0.0665 -0.1084 -0.0392
14738W        W32942   0.882  17.605  13.322  0.0740 -0.2079 -0.0741
14739W        W32943  13.320  14.726  11.484  0.3604 -0.0785 -0.0075
14740W        W32944   1.681   9.174   4.959 -0.3977 -0.2001  0.0391
14741W        W32945  13.256   2.192  11.589  0.0618  0.1634 -0.0763
14742W        W32946   7.747  11.130  11.432  0.1440 -0.0259  0.0368
14743W        W32947  18.369  18.048  14.662 -0.2100 -0.1123 -0.2890
14744W        W32948   5.142  12.640   2.702  0.0816  0.0029 -0.1982
14745W        W32949   3.884  18.516  12.671 -0.1001 -0.0022  0.2759
14746W        W32950   6.921  14.598   3.740 -0.2547 -0.1148 -0.2654
14747W        W32951  17.472   1.675  14.176  0.2716  0.1569  0.1320
14748W        W32952  15.442  10.723   2.497 -0.0831 -0.2665  0.4512
14749W        W32953  11.269  16.627  13.979 -0.1910  0.1918 -0.0898
14750W        W32954   8.485  17.411  14.647 -0.3280  0.2055 -0.0207
14751W        W32955   0.507   7.020  13.717  0.1261 -0.2522 -0.0086
14752W        W32956   1.434  12.223   0.289 -0.0018  0.0979  0.2333
14753W        W32957  10.537   0.800   2.908 -0.1169  0.0440 -0.1312
14754W        W32958  10.326  16.103  12.841  0.1738 -0.1419  0.0024
14755W        W32959   5.258   0.959  14.606 -0.0153  0.0084  0.0546
14756W        W32960  18.319   0.873   5.821 -0.0919  0.0181  0.3570
14757W        W32961   5.497  16.397  12.118  0.2729  0.3700 -0.2124
14758W        W32962  11.806   7.850   0.207  0.0817  0.0336 -0.0078
14759W        W32963  16.561  18.496  14.903  0.0341  0.0392  0.0314
14760W        W32964  10.438   7.875  12.724  0.0017 -0.1710 -0.0460
14761W        W32965  14.590  10.867  13.141 -0.3127  0.2237 -0.0043
14762W        W32966  14.647   8.416   9.928  0.1870  0.0974 -0.0896
14763W        W32967  15.708   5.653   3.214  0.3335  0.0798  0.3351
14764W        W32968  15.814   2.367   2.439  0.0254 -0.3428 -0.0643
14765W        W32969   3.648   9.207  12.731  0.0201 -0.1744  0.1552
14766W        W32970   6.518  16.868   0.446 -0.1677  0.1768  0.0755
14767W        W32971  15.448   3.002  12.718  0.2483 -0.1451 -0.2276
14768W        W32972   3.174  13.966   4.002 -0.1104  0.0756  0.3074
14769W        W32973   6.612   7.209   1.450  0.0774 -0.6121  0.0438
14770W        W32974   7.982  13.482  15.303 -0.0433 -0.2742  0.4017
14771W        W32975  11.562   8.367   2.494  0.2910 -0.1207  0.1408
14772W        W32976   2.303   8.575   0.291  0.1390  0.2725  0.0043
14773W        W32977  11.841  13.485  15.216  0.2458 -0.0208  0.0709
14774W        W32978   2.447   5.863   0.286 -0.3186 -0.0885 -0.5501
14775W        W32979   4.730   3.206  14.427  0.2273  0.2500 -0.0386
14776W        W32980  11.160  14.378  11.145  0.1339  0.1114 -0.0595
14777W        W32981  17.185  12.580  14.177  0.0066 -0.4134  0.1903
14778W        W32982  15.406  11.817  12.267 -0.2524  0.0978 -0.3596
14779W        W32983   6.776  13.107   5.069 -0.0079  0.0659  0.2550
14780W        W32984  16.559  12.394  14.893  0.1539 -0.2434  0.2338
14781W        W32985  17.034   0.796  13.390  0.2270 -0.1192 -0.0054
14782W        W32986   0.272   2.055  14.917  0.0986 -0.0537  0.0579
14783W        W32987   8.999  12.007  15.361  0.2188  0.0384 -0.1443
14784W        W32988   2.234   8.177   1.400 -0.0105 -0.2487 -0.2727
14785W        W32989   3.709  13.722  12.355 -0.0858  0.2315 -0.0453
14786W        W32990  14.200   8.841   4.927  0.1165 -0.0751 -0.0725
14787W        W32991   6.633  11.837   4.484  0.2242  0.0166  0.1550
14788W        W32992   8.343   8.510  12.834  0.1080  0.0029  0.0183
14789W        W32993  14.708  12.682   1.018  0.1368  0.0760 -0.2044
14790W        W32994   3.091   6.090  13.830 -0.2675  0.0165  0.1058
14791W        W32995  15.001   7.262   3.869  0.1077 -0.1518  0.3125
14792W        W32996   6.731   5.450   0.977  0.0012 -0.2930 -0.1467
14793W        W32997  14.263   7.070  11.419 -0.1656  0.0787 -0.0999
14794W        W32998   3.730   1.604  14.150  0.1596 -0.1217  0.0372
14795W        W32999  11.199  18.654  11.026 -0.1361 -0.1227 -0.3482
14796W        W33000   4.297   1.810   5.402 -0.1266  0.0138 -0.1859
14797W        W33001  15.928   3.599  13.218 -0.3092 -0.3924  0.0775
14798W        W33002  15.880  17.069   3.197  0.0925  0.0410 -0.0330
14799W        W33003   8.447   3.613  15.213  0.2630  0.1075 -0.0242
14800W        W33004  13.943   8.345  15.121 -0.0543 -0.1849  0.1722
14801W        W33005  12.997   2.736   4.348  0.2065  0.1585  0.0602
14802W        W33006   9.791   6.166   0.234  0.3951 -0.1261 -0.1262
14803W        W33007   6.397  10.042  13.337  0.0731  0.3796 -0.0708
14804W        W33008  13.532  17.507   2.353  0.0007  0.2505 -0.0892
14805W        W33009   4.438   4.831  12.774  0.1934  0.1545 -0.1252
14806W        W33010  15.088  17.186   1.544 -0.2680  0.0365 -0.3070
14807W        W33011  14.831   3.524  11.897 -0.0068  0.0261 -0.1486
14808W        W33012  12.469   0.045  14.909  0.0865  0.1775  0.2088
14809W        W33013   1.946  11.013  14.171  0.3779  0.0475 -0.2975
14810W        W33014   3.284   9.009  12.385  0.0538  0.1596 -0.0658
14811W        W33015   4.453   2.112  14.467 -0.3172  0.2208 -0.0102
14812W        W33016   2.647   4.413   0.397  0.0078 -0.1642  0.1137
14813W        W33017   9.561   2.342   0.337 -0.0767 -0.1890 -0.1519
14814W        W33018   0.030   1.378   3.902  0.0291  0.1610  0.0336
14815W        W33019  16.603  15.975   2.334 -0.0805  0.4751 -0.1143
14816W        W33020  18.440  13.369   4.976  0.1000  0.3814 -0.1015
14817W        W33021   2.142   7.960  14.953  0.1126  0.1145 -0.1371
14818W        W33022   4.516  11.725  14.326 -0.2899 -0.4343  0.1081
14819W        W33023   2.445   9.443  11.292 -0.1578 -0.0545 -0.0173
14820W        W33024  13.395  16.072  14.143  0.4677 -0.0555 -0.0300
14821W        W33025   6.850   1.011  11.338  0.1913  0.1448 -0.1853
14822W        W33026   2.433  15.674  14.072  0.1628  0.2381 -0.1126
14823W        W33027   0.587  13.796   0.665 -0.1309  0.0708  0.2533
14824W        W33028  17.662   8.429   3.450 -0.1049  0.2054  0.3422
14825W        W33029   6.394  17.102   0.935  0.0009  0.1348  0.0885
14826W        W33030  11.578   0.462  15.118 -0.2775 -0.3823  0.2668
14827W        W33031  10.220  17.040   1.185 -0.0581 -0.4550  0.1442
14828W        W33032  17.827  12.297   3.260 -0.0052  0.1655  0.0631
14829W        W33033   4.243   1.601  14.652  0.0654  0.2110  0.2715
14830W        W33034  14.842  11.451   4.038 -0.2212 -0.1554  0.1994
14831W        W33035   1.260   8.724  13.387 -0.0621 -0.0883 -0.0790
14832W        W33036  11.135   3.213  14.425 -0.4308 -0.0543 -0.2481
14833W        W33037   8.142   5.746   1.874  0.0448  0.3200 -0.1629
14834W        W33038  12.004   0.450   4.472 -0.2531  0.1190  0.0146
14835W        W33039  15.163  16.126  11.810  0.0426  0.0845  0.1266
14836W        W33040  18.003   2.978  11.720  0.2699 -0.4273 -0.0495
14837W        W33041  14.655   2.403   3.614 -0.3232  0.3043 -0.0090
14838W        W33042  15.156  15.541   3.795  0.0266 -0.1977 -0.3163
14839W        W33043  17.433  16.260  13.475  0.1061 -0.0392  0.2738
14840W        W33044   9.717  17.881  13.599 -0.1409  0.1215 -0.2463
14841W        W33045   3.582  16.750   2.623  0.0580 -0.1986  0.2063
14842W        W33046  15.201  17.728   4.428  0.0362 -0.0268 -0.4569
14843W        W33047   9.036   2.306  13.701 -0.1736 -0.2912  0.0643
14844W        W33048   9.162  14.516  11.695 -0.2276  0.0688 -0.0516
14845W        W33049   7.205   0.022  10.008  0.0727  0.0738 -0.1229
14846W        W33050   4.450   5.915  15.305  0.0508  0.1005  0.1802
14847W        W33051  12.741  15.986  13.094  0.3744  0.2574  0.1099
14848W        W33052   0.280   3.936  11.624  0.3374 -0.0248 -0.1149
14849W        W33053  14.343   4.950  14.581  0.0570 -0.3338  0.1278
14850W        W33054  10.640  13.254  12.399  0.1496 -0.0429  0.0317
14851W        W33055   2.597  10.691   4.632 -0.1310 -0.3318 -0.2018
14852W        W33056   2.486   2.244   3.050  0.0197 -0.0114 -0.0016
14853W        W33057   5.799   7.748   0.563  0.1166 -0.4048 -0.2167
14854W        W33058  10.008   0.782  10.745  0.0877  0.1110  0.0585
14855W        W33059   3.724   9.966   4.556  0.1237  0.1788 -0.2684
14856W        W33060   7.377  12.959  13.177 -0.0797  0.0974  0.0013
14857W        W33061  14.689  17.525   1.129  0.4999 -0.0812  0.2159
14858W        W33062  17.108  17.311  15.142  0.0792 -0.2255 -0.0382
14859W        W33063   5.427  12.698  12.954  0.0674 -0.3061 -0.3839
14860W        W33064  10.418   6.695  15.270  0.1461  0.0682 -0.1967
14861W        W33065   3.737   7.037  12.835  0.1414 -0.1485 -0.0020
14862W        W33066  11.237   8.192  13.805  0.1561  0.0945 -0.1430
14863W        W33067  11.436  17.965   1.265 -0.1726 -0.1298 -0.3755
14864W        W33068   1.636   1.531   0.883  0.1863 -0.3231 -0.4782
14865W        W33069   3.008  12.705  12.730  0.1357 -0.0209  0.1316
14866W        W33070  12.152  13.965   2.566  0.0882  0.1606 -0.1915
14867W        W33071   3.587  15.571   0.105 -0.1439 -0.0103 -0.2350
14868W        W33072  14.633  14.077   2.771 -0.1885  0.2177 -0.1654
14869W        W33073  12.575  11.436  15.388  0.1265  0.0997  0.0421
14870W        W33074   8.202  11.883   3.605 -0.0562 -0.2424 -0.2425
14871W        W33075  10.610  10.400  11.758 -0.0892  0.0427 -0.1819
14872W        W33076   3.155   4.395  11.341  0.1987 -0.1472 -0.0012
14873W        W33077  16.768  17.819  12.645  0.1345 -0.1089 -0.2651
14874W        W33078   0.398  15.843  11.651  0.3948  0.2182  0.0090
14875W        W33079  17.486  15.424   1.882  0.2886  0.1762  0.2639
14876W        W33080  11.579  10.570   3.387 -0.0811 -0.2156  0.1558
14877W        W33081  14.469   1.924   1.819 -0.3217 -0.0730 -0.0476
14878W        W33082   1.073  11.264   3.339  0.0942 -0.3192 -0.0307
14879W        W33083   5.397  18.338  15.063  0.0729  0.0130 -0.2550
14880W        W33084   8.037   5.600   2.801  0.0180 -0.2743 -0.4224
14881W        W33085  18.515   6.925   2.085  0.2118  0.0669  0.1807
14882W        W33086   2.547   1.721  13.395  0.0067  0.0719  0.0627
14883W        W33087   4.002  14.908   9.694 -0.0121  0.1590  0.3125
14884W        W33088   6.122  10.073   2.034  0.1150 -0.3304  0.0609
14885W        W33089  13.895  12.573   9.891 -0.0312  0.2260 -0.0631
14886W        W33090   9.576   1.183   3.847  0.1858 -0.1266 -0.0890
14887W        W33091   9.344   2.229   3.823  0.0532 -0.3582  0.0998
14888W        W33092  15.420  12.487   2.159  0.2494  0.2280 -0.0610
14889W        W33093  17.248   9.796   4.299 -0.1030 -0.3685 -0.1594
14890W        W33094   5.797  15.645  11.393  0.0633 -0.0057 -0.1078
14891W        W33095  16.792  16.859   4.722  0.0031  0.1704 -0.0433
14892W        W33096  12.149   7.204   3.109  0.0178 -0.1200  0.1798
14893W        W33097  12.636   3.918   3.229 -0.2707  0.1735 -0.0684
14894W        W33098  12.142   9.987  14.703  0.3464 -0.0053 -0.0639
14895W        W33099   4.630  11.307  13.017 -0.2456 -0.0603  0.1865
14896W        W33100   1.831   4.459   2.214  0.0339  0.1311 -0.0247
14897W        W33101   0.928  17.212   3.246  0.1112  0.3613  0.0211
14898W        W33102  17.426   3.135  11.998 -0.1029 -0.0724 -0.0679
14899W        W33103  10.948   0.355   2.166  0.3750  0.0661 -0.0976
14900W        W33104   2.657  14.661   2.856 -0.1110  0.3507 -0.2137
14901W        W33105   2.012   8.999   4.525 -0.1684 -0.0903 -0.1782
14902W        W33106  15.009   1.582  12.948  0.0934  0.1467  0.0519
14903W        W33107   3.722   9.607  14.968 -0.2220  0.0638  0.0666
14904W        W33108   3.125   2.972  12.196 -0.2607 -0.1660  0.0493
14905W        W33109   8.237   8.600   3.768 -0.2173 -0.0544  0.1866
14906W        W33110   1.528  10.892  12.372 -0.0669 -0.0286 -0.0888
14907W        W33111   6.517   0.504  15.072 -0.0024 -0.0867  0.3425
14908W        W33112  13.648  14.195  11.605 -0.0936  0.2449  0.0755
14909W        W33113  13.508   1.071   1.429  0.1004  0.4379 -0.0693
14910W        W33114   4.010  13.587   3.757 -0.0474 -0.0617  0.2572
14911W        W33115   5.842   3.940   4.508 -0.1528 -0.0620  0.3732
14912W        W33116   7.138   1.647   2.743  0.3244 -0.1519  0.0367
14913W        W33117  13.165  15.410  10.897 -0.2387  0.1152 -0.0986
14914W        W33118   0.429   3.758   4.658 -0.0254  0.2819 -0.0350
14915W        W33119  16.385   9.460   3.668 -0.2735  0.1769  0.0454
14916W        W33120   8.959   8.098   0.507 -0.2083 -0.0743  0.1680
14917W        W33121  10.988  15.203  10.560  0.4774 -0.1537 -0.0488
14918W        W33122  18.035  13.364   3.589 -0.1506  0.1925  0.1190
14919W        W33123   3.320  12.753   1.827  0.1589  0.0628  0.0001
14920W        W33124   7.025  17.197   3.435 -0.1742 -0.0742 -0.0054
14921W        W33125  17.692   0.182   4.671 -0.0761  0.1486 -0.0925
14922W        W33126  11.154  16.236   0.395 -0.3155 -0.1231 -0.3843
14923W        W33127  14.372  10.578   4.995 -0.0808 -0.0805 -0.0263
14924W        W33128  10.707   1.376   2.236 -0.0882  0.0305  0.1380
14925W        W33129   4.049   3.395  11.378  0.1098  0.2887 -0.2617
14926W        W33130   9.546  10.766   4.785 -0.0127 -0.2946 -0.3657
14927W        W33131  17.680  18.657   1.665 -0.0996  0.1214 -0.0205
14928W        W33132  11.344   6.492   3.998  0.0608 -0.3229 -0.2823
14929W        W33133   9.586  10.472   1.613  0.0069  0.1573  0.1292
14930W        W33134  10.087   6.003   1.581 -0.0980 -0.2960  0.0710
14931W        W33135  15.708  17.530  11.492  0.3742 -0.0734 -0.3070
14932W        W33136   7.986   0.755  14.802 -0.1188 -0.0270  0.0274
14933W        W33137  15.214   6.297  13.181 -0.0417 -0.0935  0.3134
14934W        W33138   8.895   3.842   0.240  0.1574 -0.0736 -0.1029
14935W        W33139  15.833   7.340  13.903 -0.0436 -0.0494 -0.1061
14936W        W33140  16.901   5.750  11.613 -0.1354  0.1387 -0.1750
14937W        W33141   2.014   1.831   1.377 -0.2011 -0.1465 -0.3916
14938W        W33142   3.429  18.298  15.323 -0.3120  0.0046 -0.2124
14939W        W33143  14.421   9.539  13.083  0.2143  0.1949 -0.2256
14940W        W33144  15.872   3.756   4.722  0.1532 -0.0490 -0.0179
14941W        W33145   7.467   9.012  14.390  0.1333 -0.0329 -0.1607
14942W        W33146   9.082  12.882   3.947 -0.0516 -0.2140 -0.1227
14943W        W33147   9.939  13.696  11.240 -0.2385  0.0971 -0.1427
14944W        W33148   0.468   2.779   3.278  0.3797 -0.1323  0.0137
14945W        W33149   9.801  18.568  12.843  0.0061 -0.1704  0.1188
14946W        W33150   2.673  14.145  13.833 -0.2178 -0.1769 -0.0016
14947W        W33151  10.845   4.792  13.237  0.0268 -0.0231 -0.0870
14948W        W33152   6.185   2.018  13.396  0.2358 -0.1640  0.1158
14949W        W33153   2.811   8.004   3.922 -0.2196 -0.1865  0.2221
14950W        W33154   3.491   0.274   5.322 -0.0826  0.1828  0.4886
14951W        W33155  15.876   1.713   1.772  0.3499 -0.0031 -0.1579
14952W        W33156  13.514   6.523  14.713  0.2326  0.0386 -0.2074
14953W        W33157   6.024  12.888  12.520 -0.0797  0.1446  0.1668
14954W        W33158   2.461   4.301  10.380  0.1051  0.2583 -0.2659
14955W        W33159   0.980   4.391   4.875 -0.1084  0.2219 -0.1208
14956W        W33160   9.379  17.984   3.807  0.0169  0.0025  0.5453
14957W        W33161  16.569  12.136   4.413 -0.0674 -0.0204  0.0741
14958W        W33162  17.519   3.670   0.950 -0.1672  0.0385 -0.0923
14959W        W33163  16.210  12.247  14.616  0.0036  0.0012 -0.2208
14960W        W33164  15.069  16.147   1.628  0.0368  0.2183  0.0470
14961W        W33165   5.997  17.036   4.128 -0.0373  0.0745  0.4390
14962W        W33166  17.942   5.180   1.169 -0.2339 -0.3746  0.0571
14963W        W33167   8.364   1.874  12.346 -0.0688  0.0158  0.0745
14964W        W33168   1.867   0.588  14.227 -0.0395 -0.1057  0.1143
14965W        W33169   2.813  14.957   3.222 -0.2863  0.0093  0.1757
14966W        W33170  13.037  16.964  14.945  0.1900 -0.1082 -0.2374
14967W        W33171   7.284   8.570   1.970  0.2863 -0.2449  0.0990
14968W        W33172   4.746   2.599   0.845  0.1872 -0.0968 -0.0728
14969W        W33173  18.452   7.354   1.489 -0.1902 -0.2997 -0.0318
14970W        W33174   2.923   9.771   3.262  0.0182 -0.2003  0.1231
14971W        W33175  10.465   0.024  12.151  0.0856  0.0305  0.2073
14972W        W33176  16.059  14.969   3.673 -0.0789  0.4165 -0.2317
14973W        W33177  16.108  13.659  12.443  0.1801 -0.2686 -0.3336
14974W        W33178   0.935   5.144  12.973 -0.0306 -0.2376  0.4144
14975W        W33179   0.137   9.733  12.074  0.0401 -0.0130 -0.2503
14976W        W33180  18.665  14.889  11.994 -0.0183 -0.3973  0.2693
14977W        W33181  14.307   5.259  13.864 -0.0019  0.1898  0.0751
14978W        W33182   1.923   8.254   0.911 -0.0807 -0.1279  0.0341
14979W        W33183  14.624   6.653  14.669 -0.1855  0.0738 -0.0940
14980W        W33184   7.702   5.699   3.783 -0.0821 -0.0879 -0.0156
14981W        W33185   0.824   8.765   0.961 -0.3300 -0.0652 -0.1064
14982W        W33186  11.445  11.694   2.066  0.3035 -0.0553 -0.1960
14983W        W33187  16.411   4.409   3.583  0.0466 -0.1928 -0.2767
14984W        W33188   6.353  11.947   0.719  0.1278 -0.0828 -0.1336
14985W        W33189   3.640  18.508   2.525 -0.1007  0.1086  0.1791
14986W        W33190  14.314   3.082  14.635  0.0035 -0.1510 -0.1133
14987W        W33191  18.420  17.398   6.055 -0.0340  0.1076  0.1199
14988W        W33192   1.170   5.174   4.288 -0.0488  0.5020 -0.0446
14989W        W33193  15.999   1.690   4.402 -0.0049 -0.4069  0.2701
14990W        W33194  16.098   4.630  11.764  0.0892  0.0280 -0.2629
14991W        W33195  14.472   4.423   2.805  0.1635  0.3087  0.0069
14992W        W33196  11.714  14.696  12.662 -0.0274  0.1358  0.1415
14993W        W33197  15.552   6.521   4.787  0.4062  0.1345  0.0064
14994W        W33198   5.474  12.887   2.377 -0.1253 -0.0438 -0.3750
14995W        W33199  17.152  17.782  12.147  0.0649  0.1958 -0.0603
14996W        W33200  17.164  13.932   4.109 -0.0885 -0.0847  0.1905
14997W        W33201   1.899   3.247   4.563 -0.0401 -0.1334 -0.4338
14998W        W33202   5.355  14.968  11.806 -0.3439 -0.0754  0.0879
14999W        W33203   5.449   8.635   3.125  0.1835 -0.1891 -0.3222
15000W        W33204   3.054  17.243  13.303 -0.0698 -0.0066  0.2154
15001W        W33205  10.883  15.941  11.305 -0.2336 -0.2956 -0.2637
15002W        W33206   1.889   4.248   1.663  0.0301 -0.0832  0.0431
15003W        W33207   2.277  12.066  13.167 -0.1500 -0.0960  0.1601
15004W        W33208   9.771   3.996  15.306  0.3302  0.1741 -0.1264
15005W        W33209   8.294  12.588  13.874  0.1294  0.1848 -0.1190
15006W        W33210   8.064  17.402   1.434  0.0773 -0.3146 -0.2855
15007W        W33211   4.974   9.625  13.747  0.0589 -0.1169 -0.0685
15008W        W33212   4.477  14.303   1.358 -0.1283 -0.0128  0.0604
15009W        W33213  11.495  18.657  11.881  0.1601  0.1486  0.1079
15010W        W33214  18.089  15.640  13.197  0.1232 -0.0316  0.0626
15011W        W33215   0.994  15.936  14.451  0.3772 -0.3353 -0.1616
15012W        W33216  15.689  18.469  11.896  0.1165  0.1399 -0.1760
15013W        W33217  16.568  16.161  14.683  0.0688 -0.2190  0.0722
15014W        W33218  12.523   5.308   2.295 -0.0549 -0.2036  0.3393
15015W        W33219  13.201  18.350   4.775 -0.1055 -0.1498  0.1219
15016W        W33220  11.153   9.685   2.591  0.0237  0.3736 -0.3853
15017W        W33221   5.156  16.680  14.090 -0.1927  0.0139 -0.0186
15018W        W33222   7.802  14.949  11.036  0.0233 -0.1182  0.2449
15019W        W33223  18.460  14.029   0.779  0.1293 -0.2877  0.1118
15020W        W33224  13.057   3.928  11.263  0.2645 -0.1369  0.1205
15021W        W33225  12.775   3.083  12.554  0.3224 -0.0665  0.0118
15022W        W33226   8.253  15.870  12.960 -0.1443  0.1440  0.2851
15023W        W33227  14.738   6.044  15.297 -0.0255  0.0564  0.0105
15024W        W33228   5.566   3.711   2.603  0.0092  0.1537  0.0372
15025W        W33229  16.372   1.160   1.479  0.0741 -0.0263  0.2339
15026W        W33230   9.740   2.227   3.480 -0.1002  0.0085 -0.1854
15027W        W33231  12.333   2.580   3.063 -0.1119 -0.0589 -0.1981
15028W        W33232   9.311  16.334   4.714 -0.1693  0.2077 -0.2380
15029W        W33233   4.678  17.738  12.780 -0.0038 -0.2079  0.0829
15030W        W33234   0.181  12.035   3.221  0.1075 -0.3198  0.1684
15031W        W33235   5.387  12.075   0.653 -0.2589 -0.0079 -0.1161
15032W        W33236   1.935  11.157   3.360  0.1445  0.0724 -0.0858
15033W        W33237   2.981  13.372  12.948 -0.1144 -0.3957  0.0539
15034W        W33238   1.379  15.130  14.728 -0.0821  0.1925  0.2837
15035W        W33239   4.992  14.050   2.919 -0.1392  0.1077  0.0167
15036W        W33240   4.050  11.261   1.400  0.1876  0.0400  0.2907
15037W        W33241  14.287   6.547  11.664  0.0414 -0.0527 -0.0197
15038W        W33242  12.623  16.802   3.434  0.1554 -0.0795 -0.1139
15039W        W33243   2.855   1.182   1.623  0.0989  0.5845  0.0750
15040W        W33244   6.291   7.244  11.430  0.1805  0.1335  0.0307
15041W        W33245  14.345   2.240  10.817 -0.0473  0.0798  0.0024
15042W        W33246   5.231  11.232   0.714 -0.3043 -0.2822 -0.1785
15043W        W33247  16.850   4.575   3.137 -0.1523 -0.0700 -0.0481
15044W        W33248  16.015  14.509   4.427 -0.0092 -0.0349 -0.3293
15045W        W33249  14.582  16.083   4.372  0.0784  0.0066  0.0951
15046W        W33250  13.280   9.103  12.246  0.0248  0.1154 -0.1742
15047W        W33251  11.924  15.125   3.286  0.2523 -0.2804 -0.3319
15048W        W33252  11.985   2.742   3.802  0.0442 -0.1133  0.0038
15049W        W33253  11.847  17.765   0.861  0.0417  0.0247 -0.3061
15050W        W33254  11.172   5.936   4.582 -0.3007  0.1814 -0.2375
15051W        W33255   0.644  16.052   2.151  0.0542  0.2309 -0.0936
15052W        W33256   7.645   0.821  12.507  0.0524 -0.1001  0.0860
15053W        W33257  10.417   0.449   3.700 -0.0979  0.2060  0.0347
15054W        W33258   9.652  16.592  11.535  0.0217 -0.0434  0.0286
15055W        W33259  11.842  10.855  11.398 -0.1928 -0.4612 -0.1993
15056W        W33260   0.746  12.634  12.626 -0.1243  0.2510  0.1201
15057W        W33261   1.583   9.476  13.156  0.0625 -0.2471  0.0739
15058W        W33262  10.868   4.438   2.494 -0.1060  0.1398 -0.1503
15059W        W33263   3.658  18.478   4.085 -0.0602 -0.0733  0.1243
15060W        W33264   1.604   7.912   1.110  0.1040 -0.0616  0.1264
15061W        W33265  10.303   7.170   3.132 -0.3562  0.1009  0.1923
15062W        W33266  11.011   5.299   2.142 -0.3093  0.1471  0.0548
15063W        W33267  17.338   9.842  13.257 -0.0734  0.3119 -0.1983
15064W        W33268   0.637  16.305  11.642 -0.1261 -0.0906 -0.0043
15065W        W33269   7.425   3.508   3.204  0.0227 -0.3103 -0.2376
15066W        W33270   8.041  11.615  15.108  0.0630  0.0515  0.0462
15067W        W33271  13.716   7.851  15.101  0.3106  0.0400  0.1978
15068W        W33272  11.863  15.671   3.276  0.0379 -0.1834 -0.0392
15069W        W33273  17.574   8.388   1.291  0.0333 -0.1743  0.2303
15070W        W33274  13.188   7.827  15.231 -0.0449  0.3378  0.1256
15071W        W33275  12.464   8.947   1.992 -0.0468  0.1962 -0.0568
15072W        W33276   5.108   1.757  10.559 -0.0403  0.5538  0.0502
15073W        W33277   8.783   4.917  14.458 -0.0110 -0.0067  0.0340
15074W        W33278  17.866   8.443  11.558 -0.0232  0.3405 -0.2026
15075W        W33279   0.057  12.004  13.986 -0.0856 -0.2693 -0.1576
15076W        W33280  10.048   0.777   1.681 -0.1444  0.0776  0.2944
15077W        W33281   3.104   5.627  11.351 -0.1552  0.0276 -0.0587
15078W        W33282  16.778  11.241   2.767 -0.0257  0.0374 -0.1195
15079W        W33283  15.079   8.915   1.933  0.0754 -0.0003 -0.3365
15080W        W33284  11.587  18.209   2.615 -0.2235 -0.1419 -0.1580
15081W        W33285  17.998   7.645   2.075 -0.0727  0.0773 -0.2269
15082W        W33286  18.018   6.390   4.856 -0.0394 -0.3295 -0.1459
15083W        W33287   3.175   7.858   1.047 -0.1400  0.2859 -0.1648
15084W        W33288   8.028   9.607  10.823 -0.1412 -0.4946 -0.1132
15085W        W33289  14.789  17.566  13.135  0.1147  0.0714  0.1181
15086W        W33290   0.025   6.235  15.266 -0.1307  0.1719 -0.0717
15087W        W33291  15.018   2.840   4.307 -0.3619  0.1932 -0.0729
15088W        W33292   4.043   6.760   0.962 -0.1483  0.0073 -0.0585
15089W        W33293   8.544  11.624  13.691 -0.0035 -0.3653 -0.0769
15090W        W33294   3.608  15.216   3.695 -0.2118  0.1071  0.1008
15091W        W33295   6.231  15.007  12.605 -0.0345 -0.0671  0.0409
15092W        W33296   3.194  15.678   4.302  0.1103  0.0078 -0.0870
15093W        W33297   5.395   2.200   5.586 -0.0003 -0.2237  0.1521
15094W        W33298  11.449   6.449  13.979  0.2988  0.0596  0.0334
15095W        W33299  10.124  13.723  13.175  0.2489 -0.2837 -0.1675
15096W        W33300  13.902  18.639  13.792 -0.0185 -0.0147 -0.2006
15097W        W33301   1.987  16.105   3.028  0.0140 -0.0589 -0.0940
15098W        W33302   0.299   8.426  14.266 -0.0479 -0.1813  0.1493
15099W        W33303  17.882   2.811   1.762  0.0927  0.2781 -0.1142
15100W        W33304  12.066  16.923  11.926  0.1180  0.2449 -0.1306
15101W        W33305   5.672   9.104  12.786  0.1224 -0.2802 -0.0543
15102W        W33306  13.332  16.123   3.967  0.0942 -0.1257 -0.1467
15103W        W33307   7.523   0.030   3.954 -0.6198 -0.0963 -0.2528
15104W        W33308  15.354  18.323  14.236  0.2316 -0.1046 -0.2049
15105W        W33309  13.384   5.598   1.638  0.4100  0.2913 -0.0096
15106W        W33310   1.716   7.872  13.873 -0.3622 -0.4629 -0.3227
15107W        W33311   0.765   8.915  15.225 -0.1376 -0.2280  0.0355
15108W        W33312   4.268   9.904  11.024 -0.2117  0.1718  0.1552
15109W        W33313  14.117  15.809  14.701 -0.0286 -0.1339  0.0573
15110W        W33314   6.596  10.262   1.356 -0.1254 -0.2009 -0.0959
15111W        W33315  15.595   6.708   1.422 -0.0787  0.0003  0.0370
15112W        W33316   0.183  18.039  11.206  0.0471 -0.1497 -0.1528
15113W        W33317  17.379  14.072  14.698 -0.0090 -0.0659  0.1973
15114W        W33318   4.227  12.781   3.035 -0.1835  0.1801  0.1128
15115W        W33319   1.965   3.279   2.046 -0.2396 -0.1093 -0.3083
15116W        W33320   5.259  17.725   3.891 -0.2049 -0.0487 -0.0176
15117W        W33321   5.264   7.466  15.358 -0.0834  0.1182 -0.2505
15118W        W33322   7.940   3.953  14.513 -0.0421 -0.0761 -0.2742
15119W        W33323   6.039  12.201  15.383 -0.0171 -0.0870 -0.0188
15120W        W33324   9.417  13.541   3.837  0.1397  0.0753  0.2011
15121W        W33325   3.658   4.119   3.492  0.0701  0.0751  0.2695
15122W        W33326   1.350  13.060   5.093  0.1239  0.2873 -0.1376
15123W        W33327   7.746   0.477  13.263  0.3296 -0.0559  0.0409
15124W        W33328   4.160   4.542  11.552  0.1346  0.1397  0.0114
15125W        W33329  11.582  17.683  13.254  0.0826 -0.1060 -0.3016
15126W        W33330  10.413   9.830  13.506  0.0215 -0.0760  0.0762
15127W        W33331   0.334  11.577  11.391 -0.2195 -0.0659 -0.0916
15128W        W33332  15.090   6.647  11.299 -0.0072  0.0081 -0.1767
15129W        W33333  17.448   3.467  12.485  0.2505  0.2853 -0.3239
15130W        W33334   5.848  13.420  11.677 -0.2600 -0.0331 -0.0357
15131W        W33335  13.490   7.170  11.823  0.1397  0.1146  0.1316
15132W        W33336   7.870   6.674  10.148 -0.1259 -0.0399 -0.2730
15133W        W33337  16.562  18.549  13.558 -0.1445  0.1514  0.2190
15134W        W33338   3.301  15.646   3.415 -0.1437 -0.2136  0.0050
15135W        W33339   4.123  17.217   0.410  0.1678 -0.0518 -0.1951
15136W        W33340  18.507   5.064   0.315 -0.0199 -0.1136  0.1473
15137W        W33341   1.821   4.608   2.662 -0.2335  0.3912  0.4549
15138W        W33342   2.382   6.905   1.220  0.1593  0.2743  0.5126
15139W        W33343   0.682  17.139  15.061  0.2765  0.1078 -0.0116
15140W        W33344   4.932   7.017  15.446  0.2552 -0.0075  0.0165
15141W        W33345  14.597   2.538   4.134 -0.2761 -0.2894  0.1188
15142W        W33346  16.862   0.122  14.709 -0.1070  0.1211 -0.2535
15143W        W33347   6.821   0.423   0.007 -0.1870 -0.1120  0.0942
15144W        W33348  14.626  18.448   3.405  0.1495 -0.2796  0.0160
15145W        W33349   9.709  11.183   2.454  0.1520  0.3634 -0.0553
15146W        W33350  15.913   6.414  14.576 -0.0540 -0.1667 -0.4677
15147W        W33351  10.861  17.126   2.955  0.0215  0.1176 -0.4012
15148W        W33352   7.230   2.849  11.069  0.0278  0.1625  0.0336
15149W        W33353  12.371   6.246  15.415 -0.3708 -0.0008 -0.3550
15150W        W33354  11.028  11.788  11.455  0.2340  0.0687 -0.0198
15151W        W33355   9.009   1.651   1.933  0.1648 -0.1247 -0.0359
15152W        W33356  11.852   7.598   1.274  0.2224 -0.0598  0.0909
15153W        W33357   8.174   7.782   0.044 -0.0001  0.1142  0.1080
15154W        W33358   2.883   6.316   9.928  0.3089  0.1720 -0.1557
15155W        W33359  16.036  12.469   3.155  0.1343  0.1368 -0.0424
15156W        W33360   7.777  11.538   0.103  0.2585 -0.0567  0.1410
15157W        W33361  12.845   9.017   5.679  0.1097 -0.2859  0.3024
15158W        W33362   7.123   8.535  11.500  0.1559 -0.2246 -0.0673
15159W        W33363   2.049   7.518  12.034  0.0043 -0.0401 -0.1760
15160W        W33364  13.912   8.559  11.770 -0.1015  0.1328 -0.1658
15161W        W33365   4.628   1.237   1.825  0.3258  0.1258 -0.2599
15162W        W33366   6.630   5.387   1.481  0.0020 -0.0894 -0.1496
15163W        W33367  11.819   4.237   0.116  0.0462  0.2058  0.0204
15164W        W33368   9.667  16.795   0.041 -0.0754  0.0145  0.0400
15165W        W33369   7.711  15.795  13.665 -0.1614 -0.1806  0.1257
15166W        W33370   5.090   4.284   1.938 -0.2909  0.0291  0.0050
15167W        W33371  10.670  18.264   3.483 -0.0261  0.1122 -0.3628
15168W        W33372  13.255  17.736  13.824  0.0994 -0.0362 -0.0266
15169W        W33373  10.490   6.410   1.808 -0.1440  0.0864  0.0128
15170W        W33374  15.371  13.291   4.302 -0.0424  0.0160  0.0437
15171W        W33375   1.899   0.817   1.700  0.1143  0.0504  0.0143
15172W        W33376   9.592  12.516  12.861 -0.0668  0.0691 -0.0531
15173W        W33377   7.341  16.674  14.666  0.1493 -0.3900  0.2953
15174W        W33378  11.555   0.135   0.776 -0.2373 -0.1996 -0.1465
15175W        W33379  11.796   7.468  15.284 -0.2545  0.4544  0.2085
15176W        W33380  12.846  14.967  15.441 -0.0662  0.0089  0.2850
15177W        W33381   1.570  13.626   2.264  0.0565 -0.2080  0.2093
15178W        W33382  17.933   4.316  14.425  0.2101 -0.1982 -0.0125
15179W        W33383   9.426   3.133  10.909 -0.0343 -0.0503 -0.0659
15180W        W33384   1.721  18.670   3.077 -0.2774 -0.0382 -0.0660
15181W        W33385  17.564   2.442   5.136  0.2381 -0.1101 -0.0031
15182W        W33386   3.371   4.701  13.791  0.1799 -0.3496 -0.2371
15183W        W33387   7.832  12.831  12.603  0.0447  0.0049  0.1157
15184W        W33388   4.884  11.602  13.378 -0.0041  0.2800  0.0935
15185W        W33389  15.223   5.362  12.700  0.0784 -0.2316  0.0879
15186W        W33390  16.365  11.063   1.940 -0.0985  0.2324 -0.1703
15187W        W33391   8.106   5.364   2.284 -0.2507  0.0467  0.1512
15188W        W33392   6.910  11.249  13.885 -0.1704 -0.1488  0.0808
15189W        W33393   8.125  17.045   1.769  0.1066 -0.1073 -0.1642
15190W        W33394   0.985   8.173   2.393 -0.0608 -0.0019  0.2197
15191W        W33395   4.866   6.304   0.321  0.2915  0.3027  0.0175
15192W        W33396   2.391   3.239  11.077  0.2165  0.1620  0.0094
15193W        W33397   5.929   8.698  15.291  0.0139 -0.0977  0.0967
15194W        W33398   5.812   2.118   1.648 -0.2044  0.0047  0.1984
15195W        W33399   9.916  11.358  14.922  0.0947 -0.1311  0.2692
15196W        W33400   5.672  11.507  14.822  0.1881  0.2095 -0.1782
15197W        W33401   2.541   9.485  13.554  0.0526  0.0676  0.4667
15198W        W33402   3.880  13.838   0.802  0.3938 -0.1802  0.0566
15199W        W33403   5.034   6.072   1.155 -0.0456 -0.0142 -0.0408
15200W        W33404   6.709   7.597   3.838  0.0628  0.0401  0.1255
15201W        W33405  17.040  17.364  12.421 -0.2159  0.2524  0.3066
15202W        W33406   9.463  11.592   2.198 -0.2563 -0.1606 -0.2093
15203W        W33407   9.315  12.910   2.593  0.4103 -0.2121 -0.0709
15204W        W33408  15.782  14.213  13.146  0.0622  0.2129 -0.0291
15205W        W33409  18.451  15.245   4.614 -0.1969 -0.1779  0.1616
15206W        W33410   2.565  11.782  11.834 -0.3212  0.0266 -0.0301
15207W        W33411  11.558   4.617  11.394 -0.0841 -0.1145 -0.2161
15208W        W33412   6.433  12.357   2.340  0.0748  0.1715 -0.1731
15209W        W33413   3.303  12.367  13.924  0.3775 -0.1013  0.1890
15210W        W33414  10.468   4.627   1.417 -0.2558  0.1357 -0.0675
15211W        W33415  15.616  18.522   3.587 -0.0320  0.1438 -0.0350
15212W        W33416   1.610  15.159   1.471  0.2088  0.2296  0.3380
15213W        W33417  13.895  16.587  13.601  0.2684  0.0249  0.0789
15214W        W33418   7.447  15.399   1.587  0.0166 -0.1228 -0.1722
15215W        W33419   6.686   0.939  14.180  0.0270  0.0198  0.3326
15216W        W33420  15.778  18.018  14.091  0.4773 -0.0411  0.0047
15217W        W33421  12.364  16.137   4.533 -0.1548  0.0609 -0.1538
15218W        W33422   9.585  15.756  11.385 -0.0651  0.3680 -0.0739
15219W        W33423  17.005   0.716  12.463 -0.0028 -0.1405  0.2230
15220W        W33424   9.064   2.871  11.279  0.0920  0.0528  0.0679
15221W        W33425  12.709  13.440   2.058 -0.2600  0.0330 -0.3049
15222W        W33426  13.403  13.248  12.401 -0.0288  0.1404  0.2312
15223W        W33427   2.693   0.082  11.732  0.4155  0.0841 -0.0428
15224W        W33428   0.469  11.171  11.094 -0.3434 -0.0275 -0.0075
15225W        W33429  17.782   0.168  15.137  0.0309 -0.1371  0.3438
15226W        W33430  15.897  14.820  12.952  0.2237 -0.1216 -0.0202
15227W        W33431   6.117   8.157   3.628  0.0992  0.0739  0.3638
15228W        W33432   6.712  15.829   1.073 -0.0245  0.0974 -0.1581
15229W        W33433   1.934  12.021   3.287  0.1478  0.3238  0.1908
15230W        W33434   6.391  14.265   0.101 -0.0840 -0.0760  0.0425
15231W        W33435  11.211   8.148  13.255 -0.0160 -0.0222  0.0070
15232W        W33436   4.337  13.718  15.399 -0.0542 -0.4026 -0.1528
15233W        W33437  13.668  11.248  12.378  0.3301  0.2723 -0.0547
15234W        W33438  17.795  12.041   3.716 -0.0003 -0.0086 -0.0033
15235W        W33439  18.526   2.820   2.572  0.0015 -0.0890 -0.2388
15236W        W33440   1.248  14.504  11.216  0.1402 -0.1625 -0.0226
15237W        W33441  11.576  17.092  13.869 -0.1224 -0.8184 -0.0597
15238W        W33442   0.938   0.827  11.319 -0.3986 -0.0216 -0.4101
15239W        W33443  11.991   4.103  13.458 -0.1782  0.0825  0.1257
15240W        W33444   9.055   8.629   3.711  0.0913 -0.1373  0.0013
15241W        W33445   6.228   9.581   4.735  0.1130 -0.0247  0.0287
15242W        W33446   0.309   9.568   1.388 -0.0111 -0.0521  0.0592
15243W        W33447  13.547   3.927   3.775  0.1873  0.1295  0.0639
15244W        W33448   8.599  12.390  11.445 -0.2146  0.0123 -0.0004
15245W        W33449  12.504   9.601   0.555  0.3368 -0.0029 -0.0801
15246W        W33450   1.322  14.675   3.062  0.0276 -0.0464 -0.3070
15247W        W33451   4.924   9.990  12.379 -0.0062 -0.0383  0.1524
15248W        W33452   3.535   4.565   2.128 -0.1916 -0.1188  0.2499
15249W        W33453   5.520   9.526   3.343 -0.0130 -0.4326  0.0340
15250W        W33454   1.015   0.432  12.623  0.1509  0.1918  0.0844
15251W        W33455  11.662  13.387   0.683  0.0223  0.1902  0.0785
15252W        W33456   9.655  14.358  11.501  0.0922 -0.1464 -0.1797
15253W        W33457   5.984   9.059   4.809  0.0587  0.1379 -0.1345
15254W        W33458   6.648   9.644  13.281 -0.2271 -0.2344 -0.0157
15255W        W33459   2.823   5.606   1.388  0.1636  0.1696  0.0398
15256W        W33460  11.999   5.679   4.819 -0.3430  0.1029  0.0587
15257W        W33461   7.388  10.557  14.410  0.0199 -0.0838 -0.7825
15258W        W33462  11.232   8.505   3.135  0.1838  0.1345 -0.0839
15259W        W33463  10.758   3.897  14.977 -0.0389  0.0045 -0.1665
15260W        W33464  12.773   3.299   0.521 -0.0389 -0.2506 -0.2581
15261W        W33465   7.154  14.856  13.217 -0.0598 -0.0947  0.0670
15262W        W33466   0.466  17.382  14.691 -0.1291 -0.0947  0.1621
15263W        W33467  17.280   7.237  13.217 -0.1787  0.2113  0.0647
15264W        W33468   7.232   8.974   3.898 -0.2504 -0.0810  0.1155
15265W        W33469  14.139   4.421  13.339  0.0448  0.2547 -0.0568
15266W        W33470   4.626   0.975  10.806  0.1869  0.1271 -0.0082
15267W        W33471  11.725   4.294  12.416  0.3280 -0.1401 -0.0325
15268W        W33472   6.356  18.044   1.219  0.0542  0.0977  0.2387
15269W        W33473   0.624  17.634   4.656  0.1161  0.0892  0.0338
15270W        W33474   9.547   9.652  13.760 -0.0408 -0.2944 -0.0393
15271W        W33475   2.769  10.336   1.100  0.5701  0.0506 -0.0545
15272W        W33476   3.366  14.761   4.200  0.2806 -0.1496  0.0021
15273W        W33477   9.496  11.606  14.690 -0.1410  0.1918  0.1016
15274W        W33478  11.992  12.103  13.917  0.1404 -0.0917  0.1974
15275W        W33479  12.279   2.439   3.592  0.0371  0.0726 -0.0032
15276W        W33480   7.657  18.681  14.481  0.1081 -0.1461  0.1476
15277W        W33481  12.289   7.776   1.923  0.0856  0.3335  0.0559
15278W        W33482  18.369  11.621  10.718 -0.0921 -0.0001 -0.2156
15279W        W33483  18.097  11.103   1.055  0.1156 -0.1348  0.1639
15280W        W33484  15.049   3.228   1.141 -0.2147 -0.0974 -0.1547
15281W        W33485  12.467   5.765   5.876  0.1572  0.1152 -0.1664
15282W        W33486  11.097   8.840  14.989 -0.3051 -0.3321  0.0011
15283W        W33487   8.313  15.178   1.236  0.3444  0.0705  0.2836
15284W        W33488   1.786   0.920   4.661  0.0624  0.0428 -0.0577
15285W        W33489   8.708   8.040   0.888 -0.0058  0.2581 -0.4000
15286W        W33490   7.084   7.361  15.197  0.0647 -0.3414  0.4763
15287W        W33491   9.523   0.288  14.499 -0.0915  0.0259  0.1928
15288W        W33492   4.870  14.525  14.628 -0.1890  0.2217  0.2650
15289W        W33493  17.323  10.369  11.407  0.1289  0.1486 -0.0331
15290W        W33494  18.017  10.992   0.401  0.0795  0.3772 -0.1314
15291W        W33495  13.121  12.108   2.663 -0.1993 -0.1088 -0.0484
15292W        W33496  18.272   4.274   1.876 -0.0977 -0.0447 -0.2758
15293W        W33497   8.856  17.809  11.615 -0.2189  0.1233 -0.2031
15294W        W33498  17.248   7.260   3.324  0.3222 -0.2525  0.2092
15295W        W33499  14.735   5.187  12.554 -0.0865  0.1545  0.0582
15296W        W33500   8.617   1.532   2.814 -0.0926  0.0249  0.1720
15297W        W33501   1.875   4.169  13.958 -0.0012 -0.2782 -0.1347
15298W        W33502  17.546   1.520   4.601  0.2397  0.0517 -0.1487
15299W        W33503  14.835  13.916  12.022  0.0431 -0.2781 -0.0385
15300W        W33504   6.305  17.632   2.925  0.0964 -0.0550 -0.2983
15301W        W33505  10.653  17.771   0.797  0.0371 -0.0815 -0.0686
15302W        W33506   6.600   1.370  11.993  0.2183  0.0720  0.0520
15303W        W33507  16.023  10.934  13.020 -0.0619 -0.0282  0.1667
15304W        W33508  11.514  14.820   0.125 -0.1446  0.0753  0.0400
15305W        W33509  12.309  17.995   1.593  0.2132  0.0922  0.1817
15306W        W33510  18.370  15.030   4.095  0.0780  0.2304  0.0005
15307W        W33511   2.335  13.262   0.994  0.0336  0.2259  0.0112
15308W        W33512  16.497  18.507   3.440 -0.3397 -0.2177  0.0948
15309W        W33513   1.211  16.667  10.979  0.1029  0.0187  0.0180
15310W        W33514   9.772  14.406  13.483 -0.0927  0.2623 -0.1374
15311W        W33515   5.715   8.540   4.845  0.3040 -0.0663  0.1867
15312W        W33516   9.900   0.551   4.927 -0.2311  0.1934 -0.2040
15313W        W33517  16.202   2.203   1.223 -0.0307  0.4222 -0.1687
15314W        W33518   0.207  14.156  15.071 -0.1483 -0.0386 -0.1823
15315W        W33519  15.498  17.010  13.655  0.0138  0.1269 -0.0251
15316W        W33520  13.900  13.685   1.696  0.0767  0.0881 -0.1786
15317W        W33521   0.371  17.367   1.559  0.0936  0.1115  0.0795
15318W        W33522   5.080  10.428  13.163  0.2223  0.3172  0.4384
15319W        W33523  18.080   4.755  13.326 -0.0114 -0.2032  0.1105
15320W        W33524   2.134   7.695   4.450 -0.2066 -0.1127 -0.2697
15321W        W33525  13.823  10.240   2.461  0.0184 -0.1704 -0.0950
15322W        W33526   9.101  13.252   3.540 -0.1460 -0.2409  0.3129
15323W        W33527   4.975   4.703   1.532 -0.0550 -0.2181  0.1160
15324W        W33528  11.173  13.029   2.576 -0.0853  0.1147  0.1128
15325W        W33529  11.938   0.237   0.003 -0.3478  0.0554 -0.0332
15326W        W33530   7.566   5.043  13.233 -0.0713  0.2252 -0.0838
15327W        W33531  14.297  13.591   3.558  0.1576  0.1509  0.0032
15328W        W33532   8.955  14.571  10.222  0.1963 -0.1358 -0.0505
15329W        W33533   2.879   6.280   1.682 -0.1562 -0.0489 -0.3332
15330W        W33534   5.236   9.795  11.407 -0.1721 -0.2915 -0.0293
15331W        W33535   3.240  17.948  11.450  0.4604 -0.4085 -0.0293
15332W        W33536  12.734  17.311  14.632 -0.0932  0.3653 -0.0131
15333W        W33537   5.684  12.262   3.713 -0.2736  0.1181  0.0313
15334W        W33538  12.290  13.155  14.993  0.1773 -0.0512 -0.1681
15335W        W33539   5.956   8.884   1.605 -0.2200 -0.0991  0.0444
15336W        W33540   5.688   2.397   0.371 -0.2693 -0.1964  0.1101
15337W        W33541   4.836   3.816  10.887  0.0852 -0.0110  0.2576
15338W        W33542   1.111  12.065   2.994 -0.1667 -0.1173  0.2349
15339W        W33543  13.484   1.180   0.312 -0.4004  0.2638 -0.2712
15340W        W33544   7.327   4.082  14.400  0.1747 -0.0278 -0.0429
15341W        W33545   1.789  11.868  14.522 -0.0956  0.1202  0.2404
15342W        W33546   9.925  15.114   2.637  0.1861  0.2729  0.1456
15343W        W33547   0.674   8.165   5.597  0.0994  0.0291 -0.0379
15344W        W33548  17.085  17.514   2.601 -0.0738  0.1742  0.0453
15345W        W33549  17.663   0.999   4.315 -0.2479 -0.1864 -0.1827
15346W        W33550   3.505   6.518   3.751 -0.0286 -0.0348 -0.1231
15347W        W33551   4.600   2.337   3.689 -0.1557 -0.1071 -0.3141
15348W        W33552   3.626   0.092   4.857  0.3693  0.4474 -0.0620
15349W        W33553  13.493   2.310  14.850  0.0296 -0.2496 -0.2539
15350W        W33554   1.021   8.593   3.418  0.1221 -0.1157 -0.0180
15351W        W33555  14.987   8.753  11.470 -0.0944  0.1616  0.1366
15352W        W33556   4.843   8.602  12.621 -0.1616 -0.2078 -0.2460
15353W        W33557  16.511  18.611  11.266 -0.0455  0.3172  0.1081
15354W        W33558   2.872   7.586  11.000  0.0725  0.1831 -0.0035
15355W        W33559   8.609  13.134   3.684 -0.2106 -0.2137  0.0301
15356W        W33560   4.206  15.645   3.712  0.4169 -0.1603 -0.0638
15357W        W33561  18.655   1.887   3.729 -0.0569 -0.0134 -0.1754
15358W        W33562   6.666   8.795   3.707  0.4449  0.3591 -0.2065
15359W        W33563  11.061   4.993   4.544  0.0346  0.3566  0.2454
15360W        W33564  16.093   1.696  15.448  0.3969  0.1144 -0.1050
15361W        W33565  16.948   3.215   2.652 -0.0566 -0.2592 -0.2396
15362W        W33566   8.404  12.751   0.480 -0.1623 -0.1149 -0.0076
15363W        W33567  15.833   2.048   3.931  0.0959  0.2425 -0.2903
15364W        W33568   5.537  15.784   4.094  0.0911  0.0431  0.0842
15365W        W33569  15.511  16.482  11.942 -0.3696 -0.0887 -0.0094
15366W        W33570   9.994  13.591   0.363 -0.0866  0.4460 -0.0135
15367W        W33571  14.674   4.928   4.188  0.0639  0.1695  0.2399
15368W        W33572   6.077  11.164   1.143  0.1929 -0.0923  0.1868
15369W        W33573  10.182   9.963   4.853  0.0527 -0.2209 -0.0003
15370W        W33574  13.309   6.589  14.091 -0.3338  0.0527  0.0977
15371W        W33575  15.361   2.443  13.291 -0.0140 -0.2615 -0.0223
15372W        W33576   4.314   7.863   1.870  0.0437 -0.1150 -0.0037
15373W        W33577  17.005   0.372  14.208 -0.1958 -0.2095 -0.0096
15374W        W33578   9.475  13.834  11.409 -0.0458 -0.1065  0.0277
15375W        W33579  11.326  17.732  15.080  0.0632 -0.1159  0.0800
15376W        W33580  16.670  17.081  11.788 -0.2898  0.2695  0.2197
15377W        W33581  14.226   2.287  13.739  0.1119  0.0145  0.1781
15378W        W33582   7.008   8.339  12.855  0.1457 -0.1507 -0.2644
15379W        W33583  15.443   5.462   2.462  0.1635  0.0494 -0.2742
15380W        W33584   5.942  10.928   0.520 -0.1153 -0.2355 -0.0218
15381W        W33585   2.829   1.154   4.634 -0.0642  0.1439  0.1776
15382W        W33586   5.445  15.449  13.699 -0.0871  0.1880  0.1549
15383W        W33587  17.473  17.140  13.935 -0.0153  0.0640 -0.1240
15384W        W33588  12.095   6.309   4.215  0.3186 -0.0955 -0.1161
15385W        W33589   0.618   6.397   3.800  0.0600 -0.1242  0.1169
15386W        W33590   5.704   3.984   2.175  0.1057 -0.0840 -0.1221
15387W        W33591  16.779  18.063   5.931 -0.1033 -0.3574  0.1317
15388W        W33592   7.850  11.193  13.404 -0.1213  0.1289 -0.2771
15389W        W33593  12.651   0.868   4.642  0.2648 -0.0601  0.1273
15390W        W33594   2.381  12.790   0.027 -0.0420 -0.1338 -0.5451
15391W        W33595  18.639   4.887  13.147 -0.1330 -0.0838  0.1375
15392W        W33596  10.192   0.236   1.501  0.0160 -0.0344 -0.2206
15393W        W33597  17.960  18.277   3.954 -0.0794 -0.0261 -0.3165
15394W        W33598   8.606   3.988  13.206 -0.1094 -0.4253  0.1815
15395W        W33599   5.856   5.116  13.967  0.0251 -0.1175  0.1709
15396W        W33600   1.147  11.426   1.189  0.0010  0.0882 -0.0854
15397W        W33601  16.295  18.251   2.533  0.0710 -0.0165  0.0304
15398W        W33602   6.937   7.698  14.837 -0.2912 -0.3826 -0.3635
15399W        W33603   2.122   0.095  13.494 -0.1859 -0.3375 -0.0472
15400W        W33604  15.277   9.468  14.921  0.0182 -0.0287  0.1100
15401W        W33605  15.532  11.303   3.592  0.1324  0.2307 -0.1042
15402W        W33606  10.695   7.527  12.405  0.1073  0.0737 -0.0479
15403W        W33607  10.225   3.231   0.886  0.0009 -0.2738  0.2522
15404W        W33608   4.688   2.990  13.976 -0.2356 -0.0466  0.3064
15405W        W33609  12.917  11.618   4.825 -0.1743 -0.1712  0.0334
15406W        W33610  11.197  13.835  15.442  0.1895  0.0352 -0.0463
15407W        W33611  16.880  11.701   4.159  0.0570 -0.0216 -0.0603
15408W        W33612   0.488   1.684  12.044 -0.0969  0.2294 -0.0411
15409W        W33613   9.068   7.624  13.424  0.0165 -0.3085 -0.2204
15410W        W33614   0.997  18.192   2.777 -0.1598 -0.1055  0.0682
15411W        W33615   4.209   2.528  10.915 -0.1864 -0.0819 -0.1712
15412W        W33616  17.173  14.373   1.943  0.1837 -0.2906 -0.0523
15413W        W33617   5.334   2.166  12.670 -0.1138  0.1518  0.1016
15414W        W33618  12.988   8.395   0.258 -0.4374  0.1170 -0.0569
15415W        W33619   7.278   6.314  14.800 -0.0163  0.2124 -0.2746
15416W        W33620  10.612  13.385   2.723  0.3775 -0.0386  0.0087
15417W        W33621   0.699   3.486   4.249 -0.0569  0.1360 -0.1360
15418W        W33622  18.468  18.565   5.404  0.3708 -0.3684 -0.1895
15419W        W33623   2.079   3.103   2.545  0.1620  0.0891 -0.0663
15420W        W33624   4.021   1.866   1.435  0.2957 -0.0014 -0.1127
15421W        W33625   1.768  14.224   1.089  0.2104 -0.0915 -0.0441
15422W        W33626  11.750  15.889   1.276 -0.1211 -0.1317 -0.1724
15423W        W33627  14.712   5.401  14.232  0.2886  0.2614 -0.3356
15424W        W33628   7.640   2.289  12.430  0.3159  0.1542 -0.0309
15425W        W33629   2.564   4.851   3.805 -0.0317  0.0623  0.1159
15426W        W33630   7.600  14.051   0.878 -0.1096 -0.1460 -0.0224
15427W        W33631  13.969   1.267  12.263 -0.4481 -0.3667 -0.3101
15428W        W33632   5.036  11.457   1.267 -0.2479  0.2694  0.1234
15429W        W33633   0.302  18.028   0.339  0.2051  0.2275 -0.1558
15430W        W33634   1.471   9.719  13.607  0.0851  0.3365 -0.0547
15431W        W33635  16.309  14.781   2.052 -0.2041 -0.0362  0.0944
15432W        W33636  16.979  14.408  14.507  0.0578  0.1630  0.1485
15433W        W33637   4.053   2.490   1.451  0.1066  0.1238  0.0138
15434W        W33638  10.083   6.188  14.595  0.1816 -0.0119 -0.0773
15435W        W33639   6.651   7.939  11.029 -0.0538 -0.1189 -0.0120
15436W        W33640  10.335   9.400   3.220  0.0172 -0.0357  0.0090
15437W        W33641   3.348  11.691  13.602  0.1543  0.0703 -0.0750
15438W        W33642   4.354  11.385  13.427 -0.1683  0.0070  0.0146
15439W        W33643  12.605   9.121  14.195 -0.0642  0.3155 -0.1023
15440W        W33644   8.587  13.238   0.500 -0.3381 -0.3467 -0.2539
15441W        W33645   1.849   7.563  14.809  0.0589  0.1258  0.0472
15442W        W33646   5.838   2.817   3.452 -0.1276 -0.0512 -0.1264
15443W        W33647  17.817   7.050  13.289  0.1152  0.1997  0.0254
15444W        W33648  15.639  16.441  11.391  0.4772 -0.0185 -0.2705
15445W        W33649  11.600   1.483   1.106  0.1102  0.1420 -0.2101
15446W        W33650  11.594   9.642  14.089  0.4710 -0.1237  0.0234
15447W        W33651   9.400   3.567   2.890  0.3416 -0.1044 -0.1250
15448W        W33652  11.760  17.282   3.616 -0.2012 -0.1207 -0.0669
15449W        W33653   1.089  10.921   1.093 -0.3721  0.4156  0.0900
15450W        W33654  16.545  12.452  11.725 -0.0213  0.1471  0.2549
15451W        W33655  13.551  17.744   0.255  0.2016  0.0798  0.0729
15452W        W33656   7.343   8.123   2.751  0.0247 -0.0211 -0.1206
15453W        W33657   0.790   6.148  14.845 -0.1428  0.0814  0.2204
15454W        W33658  14.860  15.214  12.803  0.1083  0.0224  0.1293
15455W        W33659   0.492   4.924   1.377 -0.0008  0.0030 -0.0549
15456W        W33660   6.289  15.345   0.691 -0.0910 -0.0760  0.1509
15457W        W33661  12.395   3.338  12.326 -0.0374 -0.3104  0.1119
15458W        W33662   0.054   8.788  14.454 -0.0961  0.0129  0.1466
15459W        W33663   5.170   6.185   1.602  0.4244 -0.0288  0.0459
15460W        W33664  16.810   2.846   4.079  0.0504  0.2425 -0.1528
15461W        W33665  13.280   4.500   3.920  0.2113 -0.0617  0.1390
15462W        W33666  10.309  12.457   4.020  0.1345  0.0296 -0.3350
15463W        W33667   6.350   3.767   3.650  0.0192 -0.1169 -0.1997
15464W        W33668  17.218  12.676  11.099  0.2947 -0.0083 -0.1931
15465W        W33669   9.069  14.430   1.692  0.1112  0.0372 -0.1598
15466W        W33670  11.016  12.913   0.054  0.1683  0.1659 -0.2567
15467W        W33671  14.472   6.433   3.464 -0.1968  0.2027  0.0219
15468W        W33672   7.421  10.124  13.591 -0.0255  0.0312 -0.1527
15469W        W33673  13.645   0.731   2.071 -0.1950  0.3249  0.1196
15470W        W33674  15.715  12.955   0.865 -0.0153  0.1657 -0.1075
15471W        W33675   3.393  11.964   3.821 -0.1410  0.1584  0.0493
15472W        W33676   7.377   7.945   0.388  0.1154 -0.0079  0.0875
15473W        W33677   0.315   6.993   4.736  0.1213  0.0384  0.0416
15474W        W33678  12.525   0.855  12.166 -0.2358 -0.0295  0.0476
15475W        W33679   9.956  15.751   3.186  0.0616 -0.0680 -0.1178
15476W        W33680  13.122   0.171  14.194 -0.0642  0.1940  0.4052
15477W        W33681   0.325  11.890  14.884  0.0564  0.1553  0.1003
15478W        W33682  10.293   0.622  11.179  0.1638  0.0699 -0.0522
15479W        W33683   9.370   4.867   0.626  0.2486  0.1324  0.0380
15480W        W33684  15.243  10.228  14.246  0.0878 -0.0683 -0.1671
15481W        W33685   8.165   7.222   3.856  0.0043  0.0576  0.0654
15482W        W33686   5.121   9.324  11.533 -0.0537  0.0200 -0.0338
15483W        W33687   3.348   3.205   4.636  0.0193  0.0905 -0.2875
15484W        W33688   3.858   1.569  10.802 -0.2883  0.0921  0.1147
15485W        W33689  12.868  15.777  11.623 -0.0342  0.1354  0.3780
15486W        W33690   5.770   0.488   2.218  0.1916  0.0836 -0.3615
15487W        W33691  10.489  15.425   3.141  0.0531 -0.1110  0.1509
15488W        W33692  10.795  16.740  14.176 -0.2387  0.0723  0.0121
15489W        W33693  12.439  14.167   4.792 -0.0594  0.0207 -0.4242
15490W        W33694  10.051   7.035  15.069 -0.4390  0.0791  0.0238
15491W        W33695   0.224  13.906   3.440 -0.1823 -0.1602  0.0116
15492W        W33696   7.213  10.870  14.050  0.0479  0.2296  0.1577
15493W        W33697   0.443   7.741  11.271 -0.1239 -0.2223  0.1347
15494W        W33698  16.666   9.250   1.732 -0.0458 -0.1043  0.4451
15495W        W33699   9.544  17.416  13.827 -0.1756  0.4419  0.5060
15496W        W33700   5.571   8.828   1.914 -0.0842  0.0070 -0.0263
15497W        W33701   2.880  12.898  14.821 -0.1235  0.0440 -0.2161
15498W        W33702  16.190  15.784   2.478 -0.0446  0.0377 -0.1100
15499W        W33703   5.218  11.769   3.398  0.0555  0.2188 -0.0708
15500W        W33704  16.484   7.521  12.155  0.0565 -0.2347 -0.1043
15501W        W33705  11.528   5.815   0.484 -0.3750  0.1432  0.0198
15502W        W33706   7.469  13.542  14.618 -0.2996 -0.3368  0.0090
15503W        W33707   4.559   9.223  14.555  0.3311  0.2862 -0.0040
15504W        W33708   5.021  11.349  14.272 -0.0309  0.0870  0.0315
15505W        W33709   6.930   8.852  13.585  0.4259 -0.0371 -0.1138
15506W        W33710  11.403  17.076   3.053  0.1000 -0.0972 -0.1341
15507W        W33711   2.104  14.909  15.405 -0.0409  0.1309 -0.0290
15508W        W33712   0.178   1.579  11.041 -0.1841 -0.2032  0.1320
15509W        W33713   3.701  10.468  14.739  0.1635  0.0881 -0.0270
15510W        W33714   1.334  13.752  14.313 -0.0294 -0.1224  0.0455
15511W        W33715  13.498   6.308  12.774  0.1188  0.1661  0.1015
15512W        W33716  18.569   8.649   0.273 -0.2230  0.0976 -0.1142
15513W        W33717  16.135  14.499  10.930  0.0742 -0.0594 -0.0404
15514W        W33718   5.479   4.126  12.299  0.3321 -0.2587  0.1976
15515W        W33719  17.358   1.657   2.354  0.1662 -0.0900  0.4185
15516W        W33720  14.159   5.293  12.921  0.0698  0.0748 -0.2646
15517W        W33721  15.306   3.061  13.226  0.1861 -0.0192 -0.2367
15518W        W33722  14.575   4.512   1.447  0.2140 -0.2791  0.1321
15519W        W33723   7.522  13.480  15.099  0.1134 -0.0528  0.1468
15520W        W33724  16.608   1.600  13.876 -0.0036 -0.0093  0.1461
15521W        W33725   0.753  13.410  14.279  0.2337 -0.0959 -0.4146
15522W        W33726   9.068   9.350  11.340  0.0363  0.3415 -0.0084
15523W        W33727  10.482   1.364  13.208 -0.0373  0.2343 -0.2770
15524W        W33728   6.937   8.581  11.013  0.4294  0.0011  0.2240
15525W        W33729  12.832   3.867   1.015 -0.0489 -0.2272 -0.5205
15526W        W33730   6.933   7.592  12.023 -0.3519  0.4584 -0.2356
15527W        W33731   9.969  13.231  13.327 -0.0664 -0.2975  0.0971
15528W        W33732  10.984   5.214  10.202  0.1358  0.4353 -0.2895
15529W        W33733  15.496  14.557   0.359 -0.2960  0.3951 -0.0942
15530W        W33734   9.849   9.442   1.291 -0.1316  0.0912 -0.0287
15531W        W33735  14.219   9.028   3.494 -0.0124  0.0290 -0.0143
15532W        W33736  11.597  13.093  11.318  0.2025 -0.0182 -0.1158
15533W        W33737   7.105   2.263   4.164  0.0674  0.0332  0.0196
15534W        W33738  15.991  10.709   1.785 -0.0662  0.0351 -0.1516
15535W        W33739   8.233   8.794  12.362  0.0347 -0.2816  0.3074
15536W        W33740   1.260   8.638   1.350 -0.0692 -0.0437  0.1007
15537W        W33741   2.292  15.863  11.970  0.1299  0.0674 -0.4057
15538W        W33742   5.413  14.457  11.109  0.0747 -0.2487 -0.1027
15539W        W33743   7.336   6.662  12.941  0.0027  0.0505  0.2370
15540W        W33744  11.973   2.577  13.524 -0.1323  0.1258  0.0672
15541W        W33745   5.138   1.396   1.976 -0.0849 -0.0254 -0.3037
15542W        W33746  13.656  18.386  15.179 -0.3617  0.1324  0.1031
15543W        W33747   1.731   7.139  12.237 -0.0722 -0.2117 -0.0215
15544W        W33748   3.519   7.064  11.381  0.2103  0.2039 -0.2059
15545W        W33749  18.093  11.463  11.552 -0.0761  0.4224  0.1182
15546W        W33750   4.719  10.958  15.452  0.0967 -0.0896 -0.0877
15547W        W33751   0.881   0.061   3.440  0.0013  0.1844  0.0882
15548W        W33752  16.377   5.592   1.780 -0.0223 -0.2852 -0.1663
15549W        W33753   0.135   2.541  13.305  0.0114 -0.0765 -0.0888
15550W        W33754  16.483  17.038  10.394 -0.2007 -0.0307 -0.0613
15551W        W33755  14.943  11.029   4.302  0.3064  0.1499  0.0556
15552W        W33756  16.006   9.714   3.288  0.2995  0.0917 -0.0546
15553W        W33757  16.859  16.638   2.208  0.3718 -0.2376 -0.4066
15554W        W33758  16.706   8.317  14.934  0.2413  0.3793  0.3512
15555W        W33759   6.816   5.294   4.181 -0.1032 -0.1951 -0.3188
15556W        W33760  11.074   2.857   2.815 -0.0207  0.0531  0.1848
15557W        W33761  11.268   3.376  13.558  0.1101  0.0273  0.4188
15558W        W33762   1.813  13.127   2.911  0.1370 -0.0238 -0.0540
15559W        W33763   2.264   4.094   3.579 -0.2347 -0.0295 -0.1485
15560W        W33764   2.159   8.803  15.368  0.2321  0.1747 -0.3781
15561W        W33765   9.524  18.022   3.246 -0.0196  0.0798 -0.0983
15562W        W33766  10.307   9.347  15.125  0.1340 -0.2653 -0.1598
15563W        W33767   0.045   4.880  10.789  0.0716  0.2160 -0.0781
15564W        W33768   3.954   8.382  12.556  0.0808 -0.0049 -0.0449
15565W        W33769   4.179   6.949  10.664  0.3574 -0.0608  0.1202
15566W        W33770  17.863  18.002  13.207 -0.0009  0.0816  0.0396
15567W        W33771  16.489   1.898   1.981 -0.2144  0.0588  0.1088
15568W        W33772   9.991   4.487  11.897 -0.2512 -0.2122 -0.0596
15569W        W33773   2.894  11.375   2.025  0.1310 -0.0443  0.1257
15570W        W33774   7.834   4.115  13.113 -0.0910  0.1453 -0.2596
15571W        W33775  18.277   2.012   0.743 -0.3520 -0.1456  0.1846
15572W        W33776   6.260  17.616  10.512 -0.2210 -0.0398 -0.1478
15573W        W33777   9.880  15.880  14.583 -0.1999  0.0485  0.0836
15574W        W33778   4.515   2.355   4.769 -0.2029 -0.0763  0.0262
15575W        W33779   0.444   5.601  11.484  0.2396 -0.2214  0.3243
15576W        W33780  11.895  18.219   1.355 -0.3038 -0.0088 -0.1586
15577W        W33781   1.829  12.989   3.781  0.1206  0.0806 -0.2205
15578W        W33782  10.273  13.644  12.575  0.0720  0.0622  0.2541
15579W        W33783   9.252   3.017  13.023 -0.0636 -0.1091  0.1072
15580W        W33784   1.596   2.389  11.771 -0.0583  0.2012  0.0388
15581W        W33785  10.797   2.571   3.119  0.0645 -0.2461 -0.2542
15582W        W33786   9.024  13.280  10.806 -0.1904  0.0737 -0.1558
15583W        W33787  12.606  14.682   3.719  0.4860 -0.1234  0.0675
15584W        W33788  18.476  15.487  12.950  0.2000  0.0194  0.0741
15585W        W33789  18.672  17.073   1.704 -0.0692  0.2082  0.2301
15586W        W33790  15.621   9.332   3.089 -0.2369 -0.4997 -0.1033
15587W        W33791  14.650  13.280   1.933 -0.1673  0.1593  0.3010
15588W        W33792   4.228  14.666   1.195  0.0754 -0.0496  0.2739
15589W        W33793   8.750   3.017  13.126 -0.1243 -0.3704 -0.0740
15590W        W33794  15.899  15.549   1.517 -0.0711 -0.1049  0.3671
15591W        W33795   6.166  16.519   4.751  0.1297  0.1206 -0.0157
15592W        W33796   3.949  15.861  15.247 -0.0047 -0.1801  0.2220
15593W        W33797  17.001   6.021  10.973  0.0115  0.1603  0.0780
15594W        W33798   3.801  17.719  15.455  0.1280  0.0884 -0.1302
15595W        W33799   9.768  15.714  13.678 -0.0530 -0.0801  0.0567
15596W        W33800   2.972  15.966  10.633 -0.0456 -0.1173 -0.3875
15597W        W33801  12.676   6.309  11.269 -0.2185 -0.1694  0.1419
15598W        W33802   1.729  15.856   2.592  0.5031 -0.0363  0.1385
15599W        W33803   9.455   8.158   3.119 -0.2294  0.1753  0.0343
15600W        W33804   1.852   1.952  13.581 -0.0764  0.1054  0.2597
15601W        W33805   7.679   1.286  12.702  0.6966  0.2850  0.0988
15602W        W33806   5.860   3.226  15.266  0.0873 -0.2747  0.0491
15603W        W33807   3.416   3.116   1.873  0.1851  0.2213  0.0917
15604W        W33808  10.899   2.439  11.614 -0.1140  0.3922 -0.1331
15605W        W33809  16.272   8.530   4.057 -0.4159 -0.2220  0.1716
15606W        W33810  17.776   8.795   3.151  0.1042 -0.0596  0.2617
15607W        W33811   9.644  17.706   1.725 -0.1370  0.2377  0.2473
15608W        W33812   7.551   0.415   0.959  0.1691  0.0356 -0.0445
15609W        W33813   8.941  12.645   0.471  0.0328  0.0049  0.2832
15610W        W33814  16.468  17.614   0.848 -0.1837 -0.3573  0.0333
15611W        W33815   2.423   8.504  13.319  0.0636  0.2285  0.0406
15612W        W33816   9.925   4.755  13.242 -0.0965  0.1241  0.2577
15613W        W33817   8.796   6.138  14.170  0.0839  0.1992  0.0132
15614W        W33818  10.329   4.077  11.335  0.1811  0.0813  0.0621
15615W        W33819  15.709   5.287  11.893  0.0370  0.0317 -0.2127
15616W        W33820   6.267  15.400   2.986  0.1462  0.2012  0.0128
15617W        W33821  13.895   9.711   1.427  0.4673  0.1760 -0.1389
15618W        W33822  13.791   6.495   2.123 -0.3035 -0.2628  0.2435
15619W        W33823   0.046  14.142   1.619 -0.4070 -0.2105  0.1819
15620W        W33824   6.797   5.956  14.142  0.2385  0.3245 -0.1242
15621W        W33825   6.774  16.641  14.914  0.2019 -0.1629  0.1016
15622W        W33826  13.708  12.623   3.970 -0.3807 -0.1028 -0.0557
15623W        W33827   1.761   6.526  14.912  0.1368  0.2364 -0.2059
15624W        W33828  11.909  10.505   4.814 -0.1579 -0.3061 -0.2172
15625W        W33829   5.828  12.727  13.303  0.3984  0.1735  0.3658
15626W        W33830  12.427  13.419   3.284  0.0276  0.1097 -0.2189
15627W        W33831  10.409   9.788   1.858 -0.0332 -0.1165 -0.1330
15628W        W33832   2.271  16.127   2.656 -0.2664 -0.0578  0.0852
15629W        W33833  14.895   4.190   1.054  0.2201 -0.0736 -0.1084
15630W        W33834   3.634  16.710   0.128  0.0222  0.0987  0.1088
15631W        W33835   2.709   0.344  12.783 -0.3370 -0.0453  0.1390
15632W        W33836   1.400   0.422   1.511  0.0987 -0.3279 -0.2950
15633W        W33837  15.544  12.559   2.835  0.4840  0.0653  0.0940
15634W        W33838   0.315  14.429   3.382 -0.0169  0.2178  0.0332
15635W        W33839  17.719  13.081  13.816  0.2413 -0.1349 -0.1211
15636W        W33840  17.196  15.354  13.685 -0.1156 -0.1002  0.1807
15637W        W33841   5.622  15.801   3.149  0.0902  0.1469 -0.1106
15638W        W33842   8.350   7.151  14.023  0.1584 -0.3387  0.3689
15639W        W33843   0.165  13.678  12.363  0.2045 -0.1553 -0.2067
15640W        W33844   0.558   0.308   2.190  0.4094  0.3284 -0.2745
15641W        W33845  12.754   7.167  13.677  0.0239 -0.3849 -0.0446
15642W        W33846   4.563  10.250  11.728 -0.0206  0.0912 -0.1700
15643W        W33847   7.073   7.092  12.076 -0.1910 -0.5018 -0.0134
15644W        W33848   3.927  14.284   1.368 -0.1460 -0.2088  0.0621
15645W        W33849   1.939  13.146   0.129  0.3050 -0.0002  0.0317
15646W        W33850  14.245   1.012  11.877 -0.0786  0.0012  0.0033
15647W        W33851  11.444   8.533   2.005 -0.5494 -0.1824 -0.1654
15648W        W33852  11.072  14.476  13.449 -0.3519  0.0653  0.2228
15649W        W33853   8.875   5.658   3.300 -0.1813 -0.0287  0.1839
15650W        W33854   5.851   0.021   1.277 -0.1019 -0.2057  0.0258
15651W        W33855  14.461  13.448   1.423 -0.0379 -0.2180 -0.0633
15652W        W33856   9.593   7.660   1.222 -0.2031  0.2821  0.3248
15653W        W33857  12.244  12.768   4.230  0.0207 -0.1075  0.0429
15654W        W33858   5.776  17.869   2.363 -0.0595 -0.1926 -0.0436
15655W        W33859  15.180   8.877   4.863 -0.2393 -0.0058  0.5281
15656W        W33860  12.765   9.605  11.698  0.2015  0.0429  0.1980
15657W        W33861  11.892  11.482  11.994 -0.0815  0.1953 -0.2103
15658W        W33862   9.962  14.358   1.234  0.2552  0.0568 -0.2811
15659W        W33863   1.475  18.395   4.093  0.0069  0.1258 -0.2445
15660W        W33864  16.292  18.275  14.592  0.1201  0.0550  0.4163
15661W        W33865   5.429  11.354   1.683 -0.1798 -0.1967 -0.0539
15662W        W33866   6.237  13.891  12.730 -0.3330  0.1250  0.1535
15663W        W33867  12.799  16.896  12.925 -0.1254  0.0704  0.2023
15664W        W33868   5.906   1.032  13.731  0.0979  0.3092 -0.0545
15665W        W33869  14.996   8.104   2.739 -0.0428 -0.0778  0.1241
15666W        W33870  11.588   8.196   0.470 -0.0973  0.0093  0.0893
15667W        W33871   3.982   2.878   0.699  0.0216  0.0531 -0.0368
15668W        W33872   0.759  12.513   1.673  0.0691 -0.2643  0.0755
15669W        W33873  10.475   7.926  12.200  0.0353 -0.0781  0.3723
15670W        W33874  12.301  16.771  12.875  0.0957 -0.1180 -0.0323
15671W        W33875   6.402   1.342   2.687  0.0264  0.3065 -0.1114
15672W        W33876  15.148   9.596   0.677 -0.0438  0.2015 -0.2585
15673W        W33877   4.964  10.472   4.622  0.2900 -0.0543  0.5301
15674W        W33878  16.722   6.078   3.951  0.0142 -0.0754  0.0103
15675W        W33879  17.051  15.322  11.277  0.1744 -0.2315  0.0940
15676W        W33880   1.337  15.542   1.599 -0.0317  0.0219  0.2066
15677W        W33881   3.691   2.632   1.046 -0.1611 -0.0652 -0.0938
15678W        W33882  16.564   4.989  13.575  0.0693  0.0390  0.0350
15679W        W33883  15.389  16.657  13.264 -0.1114  0.0828 -0.2416
15680W        W33884   7.523   3.205  15.241  0.4797 -0.2184  0.1605
15681W        W33885  12.650  14.565   2.848 -0.0527  0.3397 -0.2850
15682W        W33886  15.631  17.692   4.164  0.1989  0.0566  0.2974
15683W        W33887  17.681   8.684  11.106  0.3213  0.2229  0.3072
15684W        W33888   7.503   0.520  14.059  0.1122  0.3001 -0.0613
15685W        W33889  18.663   6.716   0.993  0.0665  0.4735 -0.1981
15686W        W33890  12.511  11.315   3.756  0.0477 -0.1336  0.0606
15687W        W33891  12.071  12.774   0.278  0.2058  0.3829  0.2192
15688W        W33892   3.209   8.735  14.017  0.1756 -0.2766  0.1860
15689W        W33893   4.077  10.696  15.089 -0.0387  0.0812 -0.1382
15690W        W33894   1.032   3.982   0.955 -0.1647 -0.1243 -0.4079
15691W        W33895   5.946  10.381   5.053  0.1987 -0.0513  0.1551
15692W        W33896  17.762  15.035  12.339 -0.0771  0.2370  0.0047
15693W        W33897   2.258   4.177  13.148 -0.1369 -0.0236 -0.1883
15694W        W33898  14.311   9.718  14.438 -0.1937  0.0667 -0.1201
15695W        W33899  10.764  13.438   1.824  0.0653  0.0478  0.0677
15696W        W33900  15.562  10.315   4.420 -0.0660  0.0443  0.0739
15697W        W33901   0.356   9.222   0.557  0.3763 -0.1587  0.1190
15698W        W33902   1.723  15.130   3.997 -0.0624  0.0009  0.0276
15699W        W33903   0.460  12.186  12.518 -0.0610 -0.0262 -0.1296
15700W        W33904  17.205   2.560   4.786  0.0813  0.1738 -0.0260
15701W        W33905  11.748  11.975   3.248  0.0363 -0.0875 -0.2474
15702W        W33906  15.073  12.783   5.066 -0.1248  0.1390  0.3927
15703W        W33907  15.701  12.213   2.518  0.5257 -0.3083 -0.2309
15704W        W33908  13.550   2.088  12.997  0.2141 -0.2368 -0.3787
15705W        W33909  18.506   1.638   1.015 -0.0912 -0.1455  0.0408
15706W        W33910  15.529   4.285  15.314  0.0361 -0.0202 -0.2347
15707W        W33911   1.459  13.286   3.490  0.0203 -0.2673 -0.1614
15708W        W33912  18.485  18.184   4.603 -0.2416  0.0822  0.0463
15709W        W33913   7.666   0.043   2.293 -0.1311  0.0858 -0.0883
15710W        W33914   0.402   6.994  14.195 -0.0842 -0.0862 -0.2251
15711W        W33915   8.903   1.782   2.425  0.1697 -0.2045  0.1745
15712W        W33916  18.302   0.858   1.285  0.3215 -0.0465 -0.2053
15713W        W33917  17.018  16.153  13.297 -0.2259 -0.2675 -0.2068
15714W        W33918  18.436  12.318   3.020 -0.1973  0.1904 -0.0525
15715W        W33919  11.403   5.335   4.749 -0.1667 -0.0296 -0.0736
15716W        W33920   7.130  11.398  15.260  0.0031 -0.3365  0.1920
15717W        W33921   1.595   5.989  11.765 -0.0350 -0.1032  0.0022
15718W        W33922   2.482   6.367  12.270 -0.0297 -0.0165 -0.3688
15719W        W33923   2.558   6.189   2.188  0.1686 -0.3679 -0.1085
15720W        W33924   9.301  11.022   0.074 -0.1106  0.0610  0.1402
15721W        W33925   2.255   8.839  12.963 -0.3492  0.3966 -0.2073
15722W        W33926  13.029   3.552  14.128  0.0935  0.0750 -0.1361
15723W        W33927   2.587  10.541   3.110  0.0719 -0.2419  0.2251
15724W        W33928   9.683  17.753  13.080 -0.0849 -0.2333 -0.0437
15725W        W33929   2.640  18.232   2.057  0.1712 -0.1719  0.1135
15726W        W33930   8.133   6.589  14.781  0.0486  0.0920 -0.3609
15727W        W33931   2.199  16.929   3.396 -0.0745 -0.1271  0.0497
15728W        W33932   2.780  16.010  12.169  0.0685  0.0612 -0.3435
15729W        W33933  10.534   7.598   0.338 -0.2292  0.0673  0.0235
15730W        W33934  15.313  17.230   4.474 -0.2245 -0.1341  0.0602
15731W        W33935  15.887  16.512  15.410 -0.1720  0.0242 -0.0909
15732W        W33936   4.627   4.971   0.589  0.0516 -0.0969 -0.1460
15733W        W33937   2.253  10.254  12.135 -0.0392 -0.0353 -0.0175
15734W        W33938   0.158  16.712   0.394 -0.3661 -0.0774  0.0910
15735W        W33939  16.880   8.409  12.496 -0.0388 -0.3149 -0.3773
15736W        W33940  12.204  17.811   0.557 -0.1335  0.1022  0.1182
15737W        W33941  18.233   1.766  11.798 -0.3730 -0.0901  0.0989
15738W        W33942   7.717   3.687  12.787 -0.2686  0.0167 -0.1405
15739W        W33943  11.860  11.684  13.003  0.1471  0.1213 -0.2819
15740W        W33944   1.307  12.733   3.714  0.2976  0.0008  0.1471
15741W        W33945   5.784  12.789  14.396  0.1794 -0.2445  0.1992
15742W        W33946   8.735  16.517   0.555  0.0264  0.0078  0.0778
15743W        W33947  11.788  12.372  14.304  0.3435  0.1514 -0.1278
15744W        W33948   0.742   2.371   3.353  0.0294  0.0065 -0.1114
15745W        W33949   6.421  14.298   2.343  0.2610  0.0388 -0.2181
15746W        W33950  10.535   7.245   1.385 -0.1372 -0.3268 -0.0889
15747W        W33951  18.114  13.721   3.009 -0.0715  0.1246 -0.0151
15748W        W33952   8.529  18.213  12.108 -0.1424 -0.0437  0.5190
15749W        W33953   3.906  12.586   0.255 -0.2373  0.0325  0.4183
15750W        W33954   1.264  12.158  11.536 -0.1465 -0.1335 -0.0044
15751W        W33955   4.225   5.092   2.544 -0.0162  0.2892 -0.0339
15752W        W33956   2.853   1.909   3.040 -0.0189  0.0856  0.1746
15753W        W33957  18.597  15.971  13.119 -0.0817 -0.1749 -0.0763
15754W        W33958  15.856   8.291  11.732  0.2730  0.0360 -0.1120
15755W        W33959   4.793   6.179   2.509  0.5557  0.1912  0.4413
15756W        W33960  16.336   3.944  13.292  0.1383 -0.0612  0.2601
15757W        W33961  13.355   7.464   1.506 -0.1217 -0.0457  0.0806
15758W        W33962   8.428   7.297  11.779  0.1351 -0.2310 -0.0901
15759W        W33963  10.309  14.748   2.713  0.2077  0.1203 -0.0210
15760W        W33964   6.402  12.185   2.910  0.0880 -0.0426 -0.2757
15761W        W33965   9.716   4.766  14.183 -0.2117 -0.0141 -0.1049
15762W        W33966  12.927  13.396   3.507  0.0213  0.2338  0.0894
15763W        W33967  17.684   2.700  12.080  0.2377 -0.0143  0.2669
15764W        W33968   7.269  13.068   4.600  0.2303 -0.0888  0.0789
15765W        W33969  18.162  15.583   4.227 -0.1257  0.3532  0.2336
15766W        W33970   5.620  14.610   3.184 -0.0495  0.0991  0.0301
15767W        W33971  11.040   4.076   1.055 -0.0512  0.1836  0.1481
15768W        W33972   2.327  10.421  11.251 -0.1334 -0.0347  0.1633
15769W        W33973   6.935  17.104   3.896 -0.1340 -0.0445  0.3827
15770W        W33974   6.827   8.362   4.038 -0.0751  0.3571 -0.0157
15771W        W33975   8.210   0.962  11.266  0.1578 -0.1691 -0.2007
15772W        W33976  16.686  15.063   3.453  0.1631  0.3707 -0.1509
15773W        W33977   7.195  16.325   1.097  0.1323 -0.0950  0.1046
15774W        W33978  13.069  17.439   0.119 -0.1701  0.2199 -0.0781
15775W        W33979  16.271  14.469   2.469 -0.0116  0.0036  0.1268
15776W        W33980   0.110   9.558   0.906 -0.0804 -0.1256  0.0156
15777W        W33981  10.779   8.122  10.951  0.0282  0.1357 -0.3506
15778W        W33982   5.727  12.805   0.546 -0.0406  0.0296 -0.0143
15779W        W33983   9.553   1.246   2.828 -0.1635  0.2652 -0.0470
15780W        W33984   5.455   0.880  12.534  0.1897 -0.0548  0.2139
15781W        W33985  10.936  17.547  12.527 -0.0250 -0.2249  0.1848
15782W        W33986   2.487  14.776  14.559  0.2388  0.1173  0.0225
15783W        W33987  13.268   9.890  12.497 -0.0027 -0.0057  0.0482
15784W        W33988   5.534   8.168   9.960 -0.2604 -0.0650 -0.0147
15785W        W33989  13.535  15.205   1.341  0.2332  0.1606 -0.0754
15786W        W33990   7.237   8.939  11.040 -0.4228 -0.2857 -0.0476
15787W        W33991  17.342  17.211   3.536  0.1512  0.1599 -0.2073
15788W        W33992  11.855   5.671  12.700 -0.3795 -0.3673 -0.3175
15789W        W33993  16.564  11.175   1.034  0.0386 -0.0506  0.0540
15790W        W33994   0.984   4.201  12.119  0.0030 -0.3122  0.4857
15791W        W33995  13.274  17.175   2.597 -0.2894  0.1092 -0.2183
15792W        W33996   6.880  16.247  13.078  0.0642 -0.0297 -0.0624
15793W        W33997  10.321  12.373  15.098  0.2862 -0.0828  0.0614
15794W        W33998   4.074   6.233   2.979  0.0283 -0.4848 -0.0686
15795W        W33999   1.660  16.041  14.935 -0.0198 -0.0427  0.0738
15796W        W34000  11.927   2.454  12.996  0.0826 -0.3820  0.2918
15797W        W34001   5.611   9.619  13.648  0.0037 -0.1565 -0.2480
15798W        W34002   2.381  12.096  14.828  0.0341  0.1360 -0.2195
15799W        W34003  12.386  10.762  13.970 -0.2139 -0.2848 -0.1581
15800W        W34004   4.837   1.325  12.285 -0.1702 -0.2875  0.4838
15801W        W34005  14.123   2.180   3.632  0.2213 -0.0396 -0.0795
15802W        W34006  12.507   8.518   2.814  0.2414 -0.1640 -0.0551
15803W        W34007   0.993   7.772   0.061 -0.1846 -0.1912  0.1822
15804W        W34008   5.859  15.240  15.163  0.0097  0.1434 -0.0431
15805W        W34009   0.497  16.505  14.898  0.0856 -0.0875  0.4329
15806W        W34010  12.279  18.553   1.231  0.1200  0.0896  0.4054
15807W        W34011   6.686   9.970   3.958 -0.1781 -0.0929 -0.1568
15808W        W34012  14.539  14.743   4.179 -0.1108  0.0079 -0.0263
15809W        W34013  15.916  11.149   2.931  0.0570  0.0817 -0.0956
15810W        W34014   0.237  16.829   4.762 -0.1117  0.2617  0.1115
15811W        W34015   4.013   1.383   2.933  0.3366 -0.1553 -0.0852
15812W        W34016  10.711  12.032   2.464  0.0235 -0.3614 -0.2194
15813W        W34017  10.404   2.747   0.792 -0.1149  0.1488  0.0271
15814W        W34018   7.684  17.262  13.592  0.0990  0.0962  0.2005
15815W        W34019   6.825   0.904  13.570 -0.1690  0.1291 -0.0597
15816W        W34020  17.107   3.040   4.823  0.0508 -0.3292 -0.2792
15817W        W34021  12.292   3.655  13.695  0.0792 -0.3295  0.1064
15818W        W34022   4.649  15.414  12.170 -0.1066  0.0163  0.2830
15819W        W34023   1.884   8.466   2.128 -0.1999  0.0513 -0.1782
15820W        W34024   6.768  16.718   4.184  0.4015 -0.0023 -0.2152
15821W        W34025   1.568  15.361  13.696 -0.2502 -0.1543 -0.1977
15822W        W34026  16.474  13.548  13.262 -0.0691 -0.2411  0.1151
15823W        W34027  13.901   6.602   0.680  0.0194 -0.0154 -0.1165
15824W        W34028  11.655   1.689  14.886 -0.2237 -0.0889 -0.1278
15825W        W34029   2.899  11.360  13.530  0.2145  0.2383 -0.4727
15826W        W34030  10.743  15.067  11.485  0.3176 -0.1171  0.1305
15827W        W34031   6.271  17.798  14.950  0.1209  0.1381 -0.2297
15828W        W34032  11.641   7.822  10.295 -0.3417 -0.0527 -0.1911
15829W        W34033   7.925   8.292   4.754 -0.1769  0.1014 -0.0491
15830W        W34034   0.942  15.230  13.765 -0.2678 -0.1649  0.1805
15831W        W34035  11.439   8.154   3.522  0.1464 -0.0818 -0.1067
15832W        W34036   5.490   1.541  10.951 -0.4071 -0.1667 -0.1119
15833W        W34037  16.214   4.691  15.194 -0.0535  0.0818 -0.1223
15834W        W34038  13.078  16.163   3.460  0.0841  0.0591 -0.2590
15835W        W34039   0.258   8.095  12.694  0.1052 -0.2223 -0.0110
15836W        W34040   0.578  12.837   3.094  0.3969 -0.1664  0.1235
15837W        W34041  14.042  12.244  10.944 -0.2928  0.2210 -0.0613
15838W        W34042   0.139  16.783   4.204  0.1582  0.0938  0.2379
15839W        W34043   5.440  17.631   2.067 -0.0797 -0.2349 -0.1855
15840W        W34044   4.546   2.615  12.991  0.0982 -0.0202 -0.0354
15841W        W34045  14.148  15.426   2.378 -0.2960 -0.1033 -0.0420
15842W        W34046  10.249   0.180   4.121 -0.1374  0.1604 -0.1284
15843W        W34047   6.005   7.263   3.380 -0.0468 -0.0542  0.0059
15844W        W34048   7.592  18.249  12.732  0.0706  0.0825  0.1495
15845W        W34049   4.766  18.661   0.441  0.1781 -0.1110  0.2021
15846W        W34050  17.661  15.423  14.540 -0.1170 -0.3344 -0.1732
15847W        W34051  14.210  17.534   3.086 -0.0913 -0.1804 -0.0141
15848W        W34052   6.954   4.854   3.939 -0.1299 -0.0543  0.0388
15849W        W34053  11.776  16.964   4.428  0.0371  0.0247 -0.0449
15850W        W34054  11.569  13.373  12.084  0.1130 -0.0947 -0.2665
15851W        W34055  16.159   8.251  11.351  0.0291  0.1299  0.0941
15852W        W34056   6.229  11.779  12.031 -0.1969 -0.1923  0.0106
15853W        W34057   6.021  10.429  13.112  0.0554  0.0013 -0.0619
15854W        W34058  11.405   2.477  11.845  0.1717  0.1492 -0.0029
15855W        W34059  12.949   6.345  12.833 -0.1844  0.2988  0.5085
15856W        W34060  13.067   3.871   1.466 -0.4018  0.1784 -0.4846
15857W        W34061  11.707   6.118   1.052 -0.0083 -0.3331  0.1343
15858W        W34062  12.873  11.939   0.701 -0.3382  0.1587 -0.1151
15859W        W34063   4.817   8.728   0.731  0.0851 -0.0230 -0.2409
15860W        W34064   7.120   4.051   3.006 -0.1884  0.0299 -0.0170
15861W        W34065  10.294   4.586  13.489  0.1786  0.1698  0.1840
15862W        W34066   0.312  12.233  11.846  0.0135 -0.1235 -0.2560
15863W        W34067   5.730  17.466   4.022  0.0331  0.0003  0.0191
15864W        W34068  18.135   2.636   4.321 -0.2082  0.1851  0.0274
15865W        W34069  17.703   6.876  11.311  0.3726  0.0118 -0.1188
15866W        W34070  15.325   1.166  11.769 -0.2875  0.0777  0.2166
15867W        W34071  10.101  12.696  13.241  0.0184 -0.2548  0.1581
15868W        W34072   6.451  16.852  11.962 -0.0447  0.2073  0.3413
15869W        W34073   8.170   5.967   3.513  0.3512  0.0299  0.1385
15870W        W34074  15.880  12.519  10.700  0.1845 -0.1974  0.6716
15871W        W34075   1.914  15.162   2.981  0.2840  0.0417 -0.2636
15872W        W34076   7.124   7.887  13.684  0.2605 -0.6064 -0.0026
15873W        W34077  12.615   3.868   1.680 -0.1698 -0.0558 -0.1180
15874W        W34078  11.523  11.847   1.099 -0.0932 -0.0979  0.1498
15875W        W34079   0.114   4.392   2.028  0.0060  0.1287  0.0432
15876W        W34080   7.865   3.553   3.737  0.3756  0.0146  0.3774
15877W        W34081  13.512  10.034   3.157  0.0157 -0.1745 -0.2645
15878W        W34082   0.961  17.285   2.738  0.1554  0.2128 -0.3798
15879W        W34083  11.032  14.487   3.158 -0.4544  0.1549 -0.0993
15880W        W34084  16.740   2.379  11.675  0.0127 -0.0046 -0.1466
15881W        W34085   4.846   7.188  14.585 -0.0905 -0.1558  0.0969
15882W        W34086  13.643  13.898   1.176  0.3224 -0.0220 -0.0229
15883W        W34087  15.850  10.032  14.488  0.2501 -0.0323 -0.0688
15884W        W34088   0.129  15.279   2.271 -0.2485 -0.1541  0.3468
15885W        W34089   2.358  16.439   3.147 -0.3271  0.0756  0.1012
15886W        W34090  16.503  10.497   3.975  0.1635  0.2600 -0.1512
15887W        W34091  17.387   9.368  11.489 -0.0056 -0.0934 -0.1051
15888W        W34092   8.340  15.895   2.803  0.2629  0.3093  0.2222
15889W        W34093   3.817  17.572  12.905  0.1566  0.0349  0.0277
15890W        W34094   6.155  10.157  11.290  0.2210  0.0536  0.1846
15891W        W34095   3.043  13.790   5.461 -0.1973  0.4633  0.0486
15892W        W34096   1.507   1.808  11.743  0.0675 -0.0945  0.2298
15893W        W34097  11.294  10.706  11.389 -0.4649  0.0729 -0.1485
15894W        W34098  18.661  18.007   1.665 -0.1340 -0.2410 -0.0416
15895W        W34099   4.554  17.046  15.444 -0.0122  0.1215  0.0276
15896W        W34100  15.933   0.353  11.583 -0.1657  0.2020  0.1062
15897W        W34101  10.169   6.624   5.862  0.0746 -0.2885  0.0682
15898W        W34102   8.398   1.809   3.878 -0.0416 -0.1983 -0.0696
15899W        W34103  13.082  13.538  14.937  0.0471 -0.0695 -0.3305
15900W        W34104   1.618   1.601  11.263  0.1045 -0.4133  0.2016
15901W        W34105  13.844  13.102  14.086  0.1881  0.0900  0.2337
15902W        W34106  16.303   0.647   4.448  0.1178 -0.2278 -0.0540
15903W        W34107  11.132   0.641   0.825 -0.1624  0.1574  0.2402
15904W        W34108  10.165   1.775  14.957 -0.1792  0.1262 -0.3171
15905W        W34109  14.253  15.745   2.923  0.0080 -0.0341  0.1505
15906W        W34110  10.480  15.601  12.590 -0.0520 -0.0901 -0.0400
15907W        W34111  15.316   5.414   2.964 -0.1456  0.4184  0.0570
15908W        W34112  10.336  15.609  12.125 -0.1060  0.0261  0.2968
15909W        W34113   4.586  13.078   3.250  0.0194  0.0636  0.1709
15910W        W34114  14.996  10.598  10.339 -0.0885 -0.2594 -0.0008
15911W        W34115   8.104   9.877   4.567  0.1882 -0.3470  0.1048
15912W        W34116   3.417  10.091   0.479  0.0907 -0.2563  0.2105
15913W        W34117  16.829   4.099  12.831 -0.1097 -0.0259 -0.1124
15914W        W34118  12.622   1.546   1.833 -0.2344  0.1061 -0.0096
15915W        W34119   8.351  16.845  12.537 -0.1543 -0.0364 -0.2863
15916W        W34120   3.953   0.505   4.112 -0.0877 -0.0809  0.3464
15917W        W34121   5.834   1.650  13.303 -0.2193 -0.1809  0.0853
15918W        W34122   5.012   7.875   0.667 -0.0738 -0.0749  0.0604
15919W        W34123   1.519  11.355   0.667 -0.1325 -0.4083  0.0720
15920W        W34124   1.613  16.179  10.583 -0.1514 -0.3296 -0.0137
15921W        W34125   7.807  14.804   2.592  0.0167 -0.2507  0.0044
15922W        W34126  12.849   8.536  14.370 -0.1010 -0.3366 -0.0410
15923W        W34127  17.940   2.985   2.948  0.2312  0.0180  0.0487
15924W        W34128  15.240  13.136   4.720 -0.2166  0.1246 -0.0344
15925W        W34129   1.475   0.753  14.573 -0.0534  0.1623  0.1182
15926W        W34130   3.407   9.632  11.814 -0.1779 -0.1068  0.2928
15927W        W34131   1.610   7.622   2.079  0.0680 -0.0359 -0.0915
15928W        W34132   9.416  11.954   0.165  0.2778 -0.1422 -0.0741
15929W        W34133   9.094   7.880   1.314 -0.0881  0.3253 -0.0852
15930W        W34134   1.309   8.283   3.813  0.0233  0.0952  0.1213
15931W        W34135   4.656   4.837   3.855 -0.1011  0.4127  0.0893
15932W        W34136   2.730  16.211   2.880  0.0438  0.0128  0.4316
15933W        W34137  13.867  14.717  11.571  0.1722 -0.1845 -0.1289
15934W        W34138   3.772   6.641   1.858 -0.1637 -0.0508  0.2377
15935W        W34139  14.659  12.070   2.835 -0.1408 -0.0987 -0.1967
15936W        W34140  11.635  13.699  13.258 -0.0527 -0.0158  0.2765
15937W        W34141   4.940   7.939  11.316  0.2233  0.3508  0.1801
15938W        W34142   0.015  16.503   1.807 -0.1313 -0.0781 -0.3173
15939W        W34143   7.518   0.088  14.917 -0.0280 -0.1950 -0.2736
15940W        W34144   3.536   4.065   4.418 -0.1753 -0.0817 -0.2629
15941W        W34145  13.058  16.791  13.437 -0.1759 -0.0111  0.2674
15942W        W34146  11.189  17.776   4.515  0.1167 -0.0895  0.0895
15943W        W34147   5.920   9.421   3.721  0.1500 -0.0549 -0.4827
15944W        W34148   3.772  16.297   4.155  0.1075  0.1237  0.0617
15945W        W34149  12.015   9.845  12.035  0.1485 -0.1919  0.0580
15946W        W34150   3.132   7.235  15.245 -0.0692  0.0180  0.2273
15947W        W34151   5.474  18.479   3.948 -0.1618  0.4144  0.0629
15948W        W34152   1.541   8.440  14.499  0.0731  0.2076  0.1735
15949W        W34153   8.148   7.306  14.864  0.1611 -0.0008  0.0637
15950W        W34154  16.687  12.446   1.605  0.1003  0.1790  0.3293
15951W        W34155  10.024   7.152  13.162 -0.2086 -0.2545 -0.1656
15952W        W34156  13.295  17.662   2.776 -0.1077  0.0496 -0.0178
15953W        W34157  10.680   1.676  11.058  0.1779  0.3602 -0.1320
15954W        W34158   2.797   4.773   0.756  0.2378  0.0688 -0.0961
15955W        W34159  14.535  17.940   2.773  0.0792  0.1287  0.0839
15956W        W34160   9.308  16.611  11.077 -0.0726  0.2216  0.3896
15957W        W34161   6.060  15.401  14.127  0.1725  0.0410  0.0821
15958W        W34162  15.833  12.943   3.039  0.1504  0.0726  0.1249
15959W        W34163   1.077   4.469  14.196 -0.1514  0.1274  0.4725
15960W        W34164   1.947  16.512   2.646 -0.1873  0.3596 -0.0261
15961W        W34165   7.225   6.721   1.879  0.0042  0.0577  0.1934
15962W        W34166   9.246  14.696   5.279  0.0509 -0.1283 -0.3026
15963W        W34167   6.240  17.124   1.947 -0.0513 -0.1565 -0.5586
15964W        W34168  14.226   8.041   1.075  0.0656  0.0507 -0.2561
15965W        W34169   8.705  13.714   0.334  0.5131  0.1155  0.0523
15966W        W34170  11.344  14.421  13.882 -0.2577 -0.1623  0.0317
15967W        W34171  16.884   9.173  11.655  0.2279 -0.0409  0.0396
15968W        W34172   6.453  14.896   2.975  0.4021  0.3135 -0.0774
15969W        W34173  10.536   7.078   0.364  0.4989  0.4826 -0.3332
15970W        W34174  16.597  17.731   2.912  0.0571  0.1563  0.1774
15971W        W34175   2.804   0.951   2.065  0.1168 -0.1038  0.2115
15972W        W34176  13.160   5.621  13.978  0.3043  0.3074 -0.2172
15973W        W34177   7.238  14.929   3.450 -0.1457 -0.1104 -0.4864
15974W        W34178  11.671  16.828  11.628  0.0313 -0.0988 -0.2410
15975W        W34179   1.704  18.606   4.442 -0.1128  0.1231 -0.0537
15976W        W34180  11.040   6.338  13.678  0.0950  0.0193  0.1149
15977W        W34181  14.972  13.423   1.462  0.0729  0.1643  0.1478
15978W        W34182   2.717   0.615   0.916  0.1535  0.0333  0.2193
15979W        W34183   1.791  18.637  13.015 -0.0600 -0.0256  0.5252
15980W        W34184   6.465  13.442  14.766 -0.2199  0.3114  0.0971
15981W        W34185   1.262   7.782   2.499 -0.2867  0.1324 -0.2917
15982W        W34186   4.406   9.438   4.356 -0.3561 -0.0901  0.0343
15983W        W34187   9.628   9.717  10.388  0.1945  0.0345 -0.1169
15984W        W34188  16.705  14.456  11.452  0.1537  0.0917  0.1493
15985W        W34189  11.752  13.386   2.097 -0.0749 -0.0252  0.1397
15986W        W34190  16.188   5.481   3.163  0.1001  0.1081 -0.0168
15987W        W34191  15.896  12.574   1.154  0.1714 -0.1128  0.0883
15988W        W34192  15.996   5.060  13.271  0.0805  0.0401 -0.3508
15989W        W34193   8.287   9.822   3.766  0.2878  0.1807  0.1777
15990W        W34194  16.837   1.221  14.707 -0.0138  0.0901  0.0621
15991W        W34195  17.566  14.518  13.841 -0.1613  0.2500 -0.0262
15992W        W34196   9.346   8.315   1.484  0.1714  0.1476 -0.0739
15993W        W34197  11.362   9.265  15.141  0.0940 -0.1057  0.0246
15994W        W34198   9.578  11.621   0.796 -0.6146  0.3401  0.3850
15995W        W34199   5.126   8.345   0.480 -0.0215  0.2182 -0.1119
15996W        W34200   3.166  13.247   0.518 -0.2263 -0.1832  0.5400
15997W        W34201  12.005  17.241   3.042 -0.0777 -0.2706 -0.0137
15998W        W34202  15.774   9.430  13.025  0.0098  0.1392  0.0163
15999W        W34203  18.259   0.993   1.797 -0.3408  0.0235 -0.1342
16000W        W34204  12.191   6.875  14.611 -0.1180  0.3853 -0.0604
16001W        W34205  13.068   6.681  12.405  0.1601  0.2193 -0.5492
16002W        W34206   3.176  13.702   3.594  0.2981  0.0785  0.2107
16003W        W34207   6.925  12.157   2.533 -0.0476  0.0278 -0.0151
16004W        W34208   3.245  12.882   2.267 -0.1032 -0.0434  0.0915
16005W        W34209   5.811  17.255  10.443 -0.2753  0.1653  0.0686
16006W        W34210   4.755   6.637   2.235  0.0003 -0.1296 -0.0032
16007W        W34211   3.244   6.462   1.285  0.1729  0.1590 -0.3590
16008W        W34212  14.820   6.922  12.507 -0.0910 -0.0893 -0.0262
16009W        W34213  18.627   3.648  13.909  0.2353  0.1506  0.1095
16010W        W34214  12.506   2.042   3.875  0.1504 -0.1586 -0.2819
16011W        W34215  13.220   8.799  12.645 -0.0159 -0.1413 -0.0283
16012W        W34216  18.371   9.928   2.250  0.0833 -0.1537  0.1454
16013W        W34217   8.065  15.973  14.768 -0.0613  0.2271  0.0359
16014W        W34218   4.528  16.725   1.949 -0.2857  0.1685  0.2500
16015W        W34219   6.591   0.881   1.116 -0.0421  0.0553  0.0072
16016W        W34220  15.043   3.226   0.624 -0.1665 -0.1510 -0.4150
16017W        W34221  12.214  18.408  11.339 -0.0622  0.1071  0.1389
16018W        W34222  11.611   8.091  10.907 -0.1986  0.2391  0.1869
16019W        W34223  11.596  10.821   2.503  0.0540 -0.1681  0.5007
16020W        W34224  17.548   3.210   1.823  0.0881 -0.0502 -0.0270
16021W        W34225   2.152   0.022  15.400  0.0867 -0.0950 -0.0582
16022W        W34226  14.620   8.139   2.378  0.0737 -0.0692  0.0371
16023W        W34227  12.773   2.691  14.669 -0.0334 -0.0768  0.5357
16024W        W34228   2.832  18.315  11.518 -0.4639 -0.0270  0.1932
16025W        W34229  15.576  13.862  13.382  0.2381  0.5629 -0.0241
16026W        W34230  12.692   9.826  11.226  0.0011 -0.1354 -0.1684
16027W        W34231  14.868  10.586  15.314  0.4525  0.0141  0.0965
16028W        W34232  13.958  14.598  15.125  0.0220 -0.0889  0.0572
16029W        W34233   0.411   7.479   0.627 -0.1208  0.3740 -0.0868
16030W        W34234   6.452   4.584   3.986  0.1113  0.1006 -0.1161
16031W        W34235   7.530   5.287  10.614  0.0308 -0.1978  0.0621
16032W        W34236  14.949   1.839  15.427  0.2313  0.0463 -0.0260
16033W        W34237   5.125   1.598   0.178  0.0963  0.1932  0.1182
16034W        W34238   0.685   4.001  11.332  0.2492 -0.1588  0.0394
16035W        W34239  13.982   1.880  12.912 -0.2023 -0.0793  0.1104
16036W        W34240   9.225  13.706   3.130 -0.1637  0.0510  0.0430
16037W        W34241   5.030  16.750  15.413  0.0793 -0.2463 -0.1660
16038W        W34242   3.795  14.544  12.687 -0.2343 -0.2126 -0.1046
16039W        W34243  11.772  15.236  11.124  0.3332 -0.1197 -0.2410
16040W        W34244   1.114  12.381   4.600  0.2433 -0.0386 -0.0721
16041W        W34245  16.777  10.552  13.735  0.2467  0.0204  0.0847
16042W        W34246  15.744   0.249   2.556 -0.1289 -0.0402 -0.1067
16043W        W34247  18.473  11.932   0.148 -0.2723 -0.0320  0.1117
16044W        W34248  11.096   6.308  12.666  0.1329  0.0725 -0.3864
16045W        W34249   6.226  13.433   2.760 -0.1781 -0.3383  0.0959
16046W        W34250  10.313   1.675   1.256  0.2890 -0.2927  0.0467
16047W        W34251  11.977  14.812   0.289 -0.3066 -0.0158 -0.2457
16048W        W34252  11.260   8.587  11.705  0.2391  0.0443  0.1006
16049W        W34253  12.733   7.851  10.820  0.0142  0.0414 -0.2143
16050W        W34254  18.163   3.371  11.939 -0.1372 -0.3004  0.1773
16051W        W34255  10.440   8.350   4.846  0.2530 -0.1140 -0.1160
16052W        W34256  11.397   3.364  10.398 -0.0165  0.0007 -0.1218
16053W        W34257  18.528   1.212   2.265 -0.0024  0.2065  0.2488
16054W        W34258   0.765  14.752   1.584 -0.3251 -0.0325 -0.1822
16055W        W34259   9.315   2.014   1.720 -0.1580  0.1895  0.1926
16056W        W34260  17.916   5.661  12.560  0.1941  0.3897  0.1726
16057W        W34261  16.408  17.204  15.058  0.0932 -0.4216  0.0817
16058W        W34262   1.333   5.202  13.745 -0.1801  0.0707  0.1362
16059W        W34263  18.622   4.188  12.410  0.1937 -0.1437 -0.1734
16060W        W34264   1.359  12.597  11.232  0.0243  0.2638  0.0524
16061W        W34265   6.659  18.462  14.469  0.0148  0.2242  0.0929
16062W        W34266   1.439   6.428  11.562 -0.0995 -0.0360 -0.1172
16063W        W34267  18.366  11.411  10.037 -0.0373  0.1454 -0.2311
16064W        W34268   8.812  14.403   1.247 -0.2599  0.0055 -0.3080
16065W        W34269   5.122   5.557  13.103  0.0664  0.0075  0.2423
16066W        W34270   4.001  10.736  12.040 -0.0794 -0.0153 -0.1854
16067W        W34271   4.773  10.864   2.725 -0.1694 -0.0947  0.0064
16068W        W34272  14.365  10.971  11.684 -0.0874 -0.2924  0.0739
16069W        W34273   8.062  17.504   4.757 -0.1024 -0.1215 -0.0761
16070W        W34274  18.292   0.034   4.078  0.2088 -0.0073 -0.0850
16071W        W34275  13.434  13.071  14.471 -0.2554  0.1119  0.1515
16072W        W34276   9.823   7.546  13.357 -0.2441 -0.0631 -0.0488
16073W        W34277  16.630   7.985  10.848 -0.1448 -0.1274  0.4555
16074W        W34278   7.500   6.969   0.101 -0.2710 -0.0224  0.1136
16075W        W34279  10.548   8.694  15.036 -0.0479 -0.1405 -0.2023
16076W        W34280  13.775   6.304  14.285  0.2740 -0.2448 -0.1129
16077W        W34281  14.405   7.424  14.950  0.1543 -0.1438  0.0175
16078W        W34282  13.233  17.814  12.823 -0.2171  0.0752  0.0261
16079W        W34283  15.644  11.613  15.024  0.0751 -0.3619  0.1495
16080W        W34284   5.577  17.707  13.222 -0.0812 -0.0244  0.0226
16081W        W34285   2.686   4.272  13.806  0.2928  0.2428 -0.0699
16082W        W34286   7.609   9.861  10.957  0.0562 -0.0788  0.0833
16083W        W34287   3.822  17.402  12.070 -0.2270 -0.0090  0.2121
16084W        W34288  13.637   3.223   2.131 -0.1932  0.2904 -0.3173
16085W        W34289   7.970  12.117   2.654 -0.0011 -0.1124 -0.0877
16086W        W34290  12.619   8.110   1.424 -0.1787  0.1597 -0.0581
16087W        W34291   5.809  17.471  15.112  0.0388  0.0229  0.4271
16088W        W34292  10.030   3.839  14.442  0.1168  0.1290  0.2371
16089W        W34293  15.750   9.428   0.739 -0.2828 -0.1462 -0.1950
16090W        W34294  18.576  16.027  14.017 -0.0430  0.0557  0.0731
16091W        W34295   8.363   3.688  12.433 -0.1151 -0.0412  0.1360
16092W        W34296   0.832  11.601  11.501 -0.1390  0.2793  0.0915
16093W        W34297   0.088   6.599   0.232  0.0498 -0.1862  0.1083
16094W        W34298  16.259  14.302   2.995  0.1942 -0.1249  0.0795
16095W        W34299  12.061  10.564  13.083  0.1428 -0.0296 -0.0053
16096W        W34300   0.414   8.984  13.661  0.0190 -0.1811  0.0635
16097W        W34301   2.364   2.104  13.610 -0.3077 -0.1057  0.3712
16098W        W34302   3.394   7.414   3.162  0.0139  0.0218 -0.1223
16099W        W34303   5.380  13.460   1.902 -0.1704 -0.1848 -0.0874
16100W        W34304   7.457   7.118   1.768 -0.1671  0.0683  0.1810
16101W        W34305   1.012  18.187  14.427 -0.0140 -0.2158  0.1570
16102W        W34306  17.267  10.795   3.286  0.2511  0.0318  0.1130
16103W        W34307  16.044   5.165  15.303  0.1989  0.0238  0.0030
16104W        W34308   8.675  13.110  14.494 -0.1642 -0.2281  0.2980
16105W        W34309  15.341   0.713  12.075 -0.0728  0.1088 -0.2639
16106W        W34310   9.427  17.909  12.650  0.2596 -0.1600 -0.0843
16107W        W34311  17.805  14.309   2.093  0.1018 -0.0031  0.3093
16108W        W34312  12.091  16.861  14.214  0.2268  0.1701 -0.3212
16109W        W34313  13.816   1.406   9.771  0.1933 -0.2114  0.0781
16110W        W34314  10.704  17.012   0.724 -0.0153 -0.2591 -0.0047
16111W        W34315   7.339   4.620  10.115 -0.2340  0.0280 -0.1556
16112W        W34316  15.389   7.780  14.194  0.1633  0.1130 -0.0578
16113W        W34317  10.452   9.672   0.543  0.0099 -0.2882 -0.2419
16114W        W34318   8.160   0.616  12.344  0.1025 -0.0126  0.0354
16115W        W34319  18.176  12.498  11.413 -0.1893 -0.3939 -0.2579
16116W        W34320  12.224   9.398   1.711  0.1060 -0.3179  0.1493
16117W        W34321  12.231  15.230  11.950  0.2402  0.2550  0.1603
16118W        W34322   3.819   2.166   4.254  0.2171  0.0424  0.0874
16119W        W34323  14.739   8.687   2.640 -0.0772 -0.0896  0.2514
16120W        W34324   0.348   8.205  11.178  0.0284 -0.1701 -0.4408
16121W        W34325  14.781  15.075  13.556  0.1774 -0.4192  0.2531
16122W        W34326  10.049   0.632   3.964 -0.1697  0.1755 -0.0508
16123W        W34327  10.881  10.670   2.989  0.0000  0.0676 -0.1601
16124W        W34328  17.654  12.815  14.294  0.2031 -0.0284 -0.0231
16125W        W34329   6.287   2.643  12.445 -0.5318  0.0919  0.1658
16126W        W34330   7.259  12.625  12.761 -0.1020 -0.0932  0.1355
16127W        W34331  14.256   1.457   1.646 -0.1187 -0.1742 -0.0888
16128W        W34332   0.695   1.988  13.715  0.2764  0.1520  0.3031
16129W        W34333  11.283   5.727  11.982  0.0718  0.0446 -0.1662
16130W        W34334  14.528  10.184  15.171 -0.2912  0.2625  0.1452
16131W        W34335   7.278   1.401   2.257 -0.4587 -0.1706  0.0511
16132W        W34336   9.159   5.672  12.828 -0.1988  0.0799 -0.0069
16133W        W34337  15.809  12.056  14.904  0.2285 -0.1055 -0.2580
16134W        W34338   5.053  17.313   3.287  0.0368 -0.0751  0.2448
16135W        W34339  18.688  15.551   4.249  0.0963  0.0654  0.2082
16136W        W34340  17.278   6.451  11.306  0.1286  0.1371  0.2425
16137W        W34341  18.587  13.169  15.033 -0.0481 -0.0322 -0.0080
16138W        W34342  10.061   9.580   4.009 -0.0083 -0.1901  0.1162
16139W        W34343  10.746   0.636  11.434 -0.1359 -0.0797  0.0378
16140W        W34344  15.553   8.315  13.067  0.1704 -0.1211 -0.4493
16141W        W34345  10.880   8.359   2.765 -0.4679 -0.0939  0.0686
16142W        W34346   5.062  14.653  11.540 -0.0055 -0.0202 -0.1052
16143W        W34347  16.650   2.345  10.760 -0.2178  0.1880  0.1821
16144W        W34348  16.592   5.090   1.023  0.0849 -0.0546  0.0477
16145W        W34349  16.743   9.049  12.793  0.0272  0.1393 -0.0819
16146W        W34350  10.729  12.615  15.203  0.2820 -0.4181 -0.0142
16147W        W34351  15.824   7.428  12.704  0.0079  0.0113 -0.2444
16148W        W34352   3.734  15.382  12.068 -0.0368  0.0479  0.1314
16149W        W34353   8.966  18.411  10.316 -0.0887  0.1045 -0.0833
16150W        W34354   4.404   3.621  11.649  0.4790 -0.1572  0.0191
16151W        W34355  11.337  14.802  10.298 -0.0556  0.0117 -0.0820
16152W        W34356   2.357  18.018  14.550  0.0759 -0.1566 -0.3304
16153W        W34357   3.850   2.814  11.664 -0.0397 -0.4104  0.0705
16154W        W34358  10.901  17.827   1.839 -0.0579 -0.0515  0.2033
16155W        W34359  13.328   0.635   1.628 -0.1328 -0.3008 -0.0226
16156W        W34360  15.233   5.664   4.529 -0.2362  0.1753  0.0529
16157W        W34361  18.597  11.330   5.818 -0.0948  0.0795 -0.0440
16158W        W34362  17.680   1.690   1.371  0.2991 -0.0162 -0.0095
16159W        W34363  13.509   0.651  15.102  0.1813  0.4547 -0.1629
16160W        W34364  18.684   2.696  15.276  0.0690 -0.0538 -0.3634
16161W        W34365  18.140   9.876   4.609 -0.0854 -0.1925 -0.1855
16162W        W34366  16.706  16.167   0.568  0.0027 -0.1894 -0.0193
16163W        W34367  16.512   0.729  13.567 -0.0560  0.2874 -0.2748
16164W        W34368  13.197   4.749  12.390  0.0867 -0.0817 -0.1863
16165W        W34369  17.689  10.963   3.012 -0.2275 -0.1509  0.1151
16166W        W34370   8.174  15.253   0.552 -0.1680 -0.2342 -0.1671
16167W        W34371  12.374   5.628  12.690  0.0538 -0.0255  0.0992
16168W        W34372   3.803  15.100  12.515 -0.0023 -0.6059  0.1066
16169W        W34373   3.193  11.477   2.498  0.0224 -0.1649  0.2813
16170W        W34374   9.862  13.264   2.264 -0.1774 -0.0986 -0.1384
16171W        W34375   7.822   5.771   0.452 -0.1662  0.3136  0.1296
16172W        W34376  15.561   7.372   6.084 -0.2543  0.1711  0.0576
16173W        W34377  12.243   3.879   4.409 -0.2541  0.3308 -0.1714
16174W        W34378  11.255  11.800   3.351 -0.1405  0.1759  0.2459
16175W        W34379   0.075   3.780   1.314  0.0975 -0.0235  0.0835
16176W        W34380   8.193   9.139  11.061 -0.1802  0.1529 -0.1362
16177W        W34381   9.961   7.553   2.427 -0.0101 -0.3224  0.1877
16178W        W34382  16.467  15.890   4.772 -0.1951 -0.2488  0.1100
16179W        W34383  14.085   2.465   0.414 -0.1732  0.0483  0.0006
16180W        W34384  18.038   7.539  12.498  0.2986 -0.1251  0.1672
16181W        W34385   6.393  11.696   0.240  0.2267 -0.2458  0.1562
16182W        W34386  17.955  13.476  11.895 -0.3916  0.1443 -0.0814
16183W        W34387   0.090  18.428   3.919  0.0736 -0.0465  0.1170
16184W        W34388   6.762  13.159   0.778  0.1269  0.1597  0.0172
16185W        W34389   8.183   4.598   9.774 -0.3180 -0.0833  0.0016
16186W        W34390   4.613  12.698  14.406  0.0602  0.0058  0.0693
16187W        W34391  17.799  16.961  13.536 -0.0280  0.1021 -0.1974
16188W        W34392  10.229  14.021   4.547  0.0861  0.1701  0.0224
16189W        W34393  12.461   1.481   3.915 -0.0492  0.0125 -0.1374
16190W        W34394  18.507  11.725   2.682 -0.3195 -0.0948 -0.5469
16191W        W34395   4.541  12.948   1.421 -0.1118  0.1919 -0.0569
16192W        W34396   9.325   2.015   3.368 -0.0244 -0.2261 -0.0198
16193W        W34397  12.507  17.512   0.776 -0.3041 -0.1622  0.0114
16194W        W34398   8.053  12.130  15.086  0.1647  0.0112 -0.0939
16195W        W34399   7.651  15.580   4.320 -0.0907  0.0554 -0.2553
16196W        W34400  14.939   0.720  15.326 -0.0702 -0.1357  0.2231
16197W        W34401   5.741   2.611  10.896 -0.0916  0.1288  0.2605
16198W        W34402  11.638   2.999   4.115 -0.2883 -0.0528  0.0105
16199W        W34403  12.594  14.273  14.637  0.2024  0.0239 -0.1995
16200W        W34404   7.282   7.215   3.327 -0.0060  0.1350  0.1432
16201W        W34405  13.836   3.730   1.957  0.1293  0.2097  0.2695
16202W        W34406  10.804   5.290   0.388 -0.0788 -0.4678  0.3280
16203W        W34407   6.620  12.566  14.688  0.1224  0.0185 -0.1747
16204W        W34408   1.136   8.484   4.880  0.0221  0.0756  0.1931
16205W        W34409  16.602  13.371   3.350  0.1410 -0.1295 -0.2214
16206W        W34410   4.131   8.360  15.004 -0.3262  0.1529 -0.0899
16207W        W34411  12.243   5.710   3.138 -0.1246  0.0209  0.0819
16208W        W34412   9.025  15.598   0.215  0.2113  0.0526 -0.1034
16209W        W34413   2.107  17.581  11.669  0.1984  0.1441  0.2228
16210W        W34414  12.564   0.756   0.667  0.3222  0.0573  0.0182
16211W        W34415   3.237   1.726  12.647  0.1546 -0.0251 -0.1257
16212W        W34416   5.455   4.901   2.941 -0.2471  0.1069 -0.5345
16213W        W34417   3.616   7.143   0.044 -0.1401 -0.2100 -0.0230
16214W        W34418  11.578   6.668   0.964 -0.0191  0.1561  0.0528
16215W        W34419   1.767   6.593   5.032  0.1010 -0.3243 -0.1503
16216W        W34420   2.221   9.192  14.367 -0.0396  0.3665 -0.1988
16217W        W34421  14.466  17.177  13.179 -0.1002 -0.1853  0.2179
16218W        W34422  16.689  16.668   0.349 -0.1213  0.1109 -0.0517
16219W        W34423   7.435   6.535  12.069  0.0123 -0.2606  0.0158
16220W        W34424  18.602  17.031  11.153 -0.2492  0.0461  0.1177
16221W        W34425   8.147   2.418  14.275  0.0951 -0.2736  0.1604
16222W        W34426  10.304   9.551   2.235  0.1342  0.0519  0.1374
16223W        W34427   8.390   4.966  14.918  0.3019  0.1642 -0.0622
16224W        W34428   8.088   9.138   4.507 -0.1967 -0.2057  0.1511
16225W        W34429   6.741  18.080   1.605 -0.1349 -0.2279 -0.2321
16226W        W34430   2.842   2.617  13.083  0.0536 -0.0169  0.0178
16227W        W34431   8.233   0.814   1.131  0.0030  0.0339 -0.2785
16228W        W34432   2.183   5.614   3.344 -0.1103  0.0116 -0.0975
16229W        W34433  17.453  12.733   1.409  0.1491 -0.0026 -0.1025
16230W        W34434   4.483   6.730  12.465  0.2455 -0.0909  0.3954
16231W        W34435  15.613   9.533  14.565 -0.1040 -0.1415  0.1135
16232W        W34436   5.975   8.310  11.270  0.1753  0.1875 -0.2243
16233W        W34437  14.648  12.433   0.577 -0.3091  0.0886  0.1267
16234W        W34438  10.804  17.052  12.770 -0.2071 -0.3748 -0.0381
16235W        W34439  18.008   0.093   2.517  0.0527 -0.1400  0.0841
16236W        W34440   1.966   5.126  14.831  0.1687  0.0617  0.0246
16237W        W34441   8.953   5.114  11.432  0.2882  0.0649 -0.0752
16238W        W34442   6.146  15.780   3.449  0.3883 -0.1185  0.2153
16239W        W34443  15.880  14.640   3.239  0.1100 -0.2953 -0.0995
16240W        W34444  17.471   6.181  14.442  0.1934 -0.1255 -0.1093
16241W        W34445  17.423   6.933  11.699  0.3481  0.1591 -0.1880
16242W        W34446   8.882   2.261   3.480  0.1056 -0.1431 -0.1064
16243W        W34447   0.288   4.027   4.274 -0.0024  0.0276 -0.1578
16244W        W34448   3.379   9.231  10.563  0.0738 -0.0454  0.0133
16245W        W34449   7.874  10.740   0.971 -0.0676  0.1597 -0.0130
16246W        W34450  10.855  10.059  15.092  0.1413  0.0438 -0.0810
16247W        W34451   0.570  15.836  13.169  0.2529 -0.1153  0.0782
16248W        W34452  18.216  18.559   1.636 -0.0069 -0.0359  0.4105
16249W        W34453   8.483   9.423   0.776 -0.1377  0.0349 -0.1957
16250W        W34454   9.172   6.872   0.100  0.0109  0.0339 -0.0190
16251W        W34455   3.676   8.405   1.556  0.0087 -0.0372 -0.4187
16252W        W34456  13.971  17.114  11.129 -0.4780  0.2740 -0.0526
16253W        W34457  10.917   4.720  12.257  0.0714  0.1004  0.0090
16254W        W34458  16.021   7.328   0.724  0.1842 -0.0266  0.2830
16255W        W34459  12.646   1.187   4.230 -0.0506 -0.2337 -0.1083
16256W        W34460  17.215   3.906  10.259 -0.1111  0.3041  0.0460
16257W        W34461  16.429   1.040   2.814  0.1632  0.1184  0.1175
16258W        W34462  16.700  10.397  11.469 -0.0438  0.0122 -0.0881
16259W        W34463   7.817  16.286  10.723 -0.0266  0.1538 -0.1885
16260W        W34464  10.969  10.799   2.424 -0.2199  0.0470 -0.1985
16261W        W34465   4.465  10.923   1.534 -0.0054 -0.0437  0.3255
16262W        W34466   3.412  16.333  13.472  0.1502  0.1586 -0.0468
16263W        W34467  18.192  11.955   4.033  0.1173  0.2029 -0.5034
16264W        W34468   2.236  18.508   4.449  0.1203 -0.2850 -0.1097
16265W        W34469   3.363  17.486  11.354  0.2811 -0.1821 -0.2219
16266W        W34470  15.146  11.603  11.874 -0.3491 -0.0425  0.0119
16267W        W34471   2.691   6.580   1.005  0.2008  0.0136  0.0886
16268W        W34472  11.938  12.606  11.870  0.4927 -0.0104 -0.0152
16269W        W34473   8.817   4.037   1.723 -0.2533  0.1453  0.1132
16270W        W34474   0.703   5.171   0.836 -0.0000 -0.0586  0.2222
16271W        W34475  14.408   1.696   2.894  0.1646 -0.0190  0.0377
16272W        W34476  14.701   0.493  11.294  0.1095 -0.0237 -0.1828
16273W        W34477   1.683   6.965   2.302  0.3187  0.1363  0.0622
16274W        W34478  18.206   7.348  13.029  0.0017 -0.0457 -0.4496
16275W        W34479  16.608  13.721   0.502 -0.0747 -0.0010  0.0284
16276W        W34480  16.170   9.331   1.926 -0.2224 -0.0352 -0.1271
16277W        W34481   8.918  10.220  14.799 -0.0877  0.0050 -0.1777
16278W        W34482  11.292   4.813   3.573  0.0876 -0.1779  0.1422
16279W        W34483  11.824  18.290  13.954 -0.1453  0.2463 -0.0787
16280W        W34484  16.296   4.133   0.892  0.0628 -0.0858 -0.3519
16281W        W34485  11.698   5.290  13.007  0.1103  0.0487 -0.0735
16282W        W34486  12.882   6.505   4.955  0.1654  0.0889  0.0139
16283W        W34487  12.366   6.724  11.929  0.0385 -0.2837 -0.0393
16284W        W34488   3.161   8.304  12.002  0.1748 -0.2376 -0.1867
16285W        W34489   9.428   5.104  14.464  0.0755  0.2925  0.1775
16286W        W34490  15.866   0.465   1.038  0.1480  0.2443 -0.1000
16287W        W34491   6.491   3.439  13.617 -0.0639  0.0839 -0.2185
16288W        W34492   1.501   1.205   5.316  0.2414 -0.2092 -0.0305
16289W        W34493   8.388  10.271   1.069  0.3547  0.3184  0.1320
16290W        W34494  11.517  16.586   4.208  0.1152  0.1354  0.0716
16291W        W34495  18.193   8.953   1.177 -0.2402  0.1938 -0.0758
16292W        W34496   4.125  10.623  10.233 -0.0915  0.1018  0.1993
16293W        W34497  10.747   5.058   1.229 -0.0288  0.2111 -0.2718
16294W        W34498  17.352   0.977  14.726  0.1735  0.0078  0.0407
16295W        W34499   0.484   8.526  10.841 -0.0032  0.1245 -0.0157
16296W        W34500  17.288  11.783  15.303  0.0807 -0.0337  0.0538
16297W        W34501  13.746  10.807   3.523  0.3784  0.1575 -0.0340
16298W        W34502   7.540  17.456   1.562 -0.1385  0.3280 -0.2826
16299W        W34503   4.988   0.987   1.618  0.0664 -0.2440  0.0271
16300W        W34504  18.223   5.341  11.973  0.1575  0.2934 -0.1251
16301W        W34505   6.454  12.805   0.366  0.2098  0.3776 -0.1111
16302W        W34506   9.348   4.473   2.177  0.1431 -0.0631 -0.0886
16303W        W34507   1.704  15.881  10.132  0.0463  0.0159 -0.2228
16304W        W34508   3.903   5.015  13.020  0.0378  0.1284  0.0675
16305W        W34509  14.839   1.019  12.786  0.2604  0.0831 -0.1605
16306W        W34510   9.080   7.344  12.485 -0.0491 -0.0016  0.0066
16307W        W34511  16.184  16.084  14.186  0.1460 -0.1160 -0.0548
16308W        W34512   0.224  13.573   1.883 -0.0240  0.1569 -0.0997
16309W        W34513  12.409   8.615   4.311 -0.0149 -0.0566 -0.5019
16310W        W34514  18.562  12.567  10.590  0.2372 -0.0505  0.1504
16311W        W34515   8.167   8.514  14.207 -0.2063  0.1370 -0.2174
16312W        W34516  14.189  10.334   0.789  0.1356  0.2352 -0.0186
16313W        W34517  14.136   3.900   0.257  0.1396 -0.2455  0.2365
16314W        W34518   5.377   5.960   0.371 -0.0837 -0.2205 -0.0394
16315W        W34519  17.212   4.279  11.754 -0.0785  0.2176 -0.3083
16316W        W34520  12.170   0.677   1.436  0.1547 -0.1625 -0.1480
16317W        W34521   0.862  10.720   2.366  0.0964  0.5282  0.0300
16318W        W34522  11.336   8.987  14.386 -0.0146  0.0391 -0.3941
16319W        W34523  11.682   7.591  12.898  0.1342 -0.0895 -0.2019
16320W        W34524  11.997  12.583   0.994 -0.0963 -0.3709  0.1134
16321W        W34525  16.592   8.872  12.260 -0.3271  0.0646 -0.5178
16322W        W34526   3.330  16.693  13.856  0.2645  0.1250 -0.1331
16323W        W34527  12.355   7.490  14.863 -0.0900  0.0726 -0.0824
16324W        W34528   1.652   7.173   1.814 -0.2372  0.1636  0.2943
16325W        W34529   2.266  12.594   3.888  0.3584 -0.0054 -0.1580
16326W        W34530   5.111   8.008  13.980  0.0904  0.1238  0.1003
16327W        W34531  14.053   3.668   1.275  0.1955 -0.4461  0.1520
16328W        W34532  10.043   7.429   0.019  0.1395 -0.2537  0.2958
16329W        W34533   9.951   0.182  14.781  0.0623  0.1353  0.1291
16330W        W34534  10.085  15.620  11.609 -0.0144 -0.0246  0.1875
16331W        W34535  14.547  12.279  10.895  0.1820  0.0138 -0.1035
16332W        W34536  16.906  14.819  11.139 -0.1223 -0.0922 -0.1339
16333W        W34537   3.486  18.510   0.359 -0.2761 -0.0474 -0.0777
16334W        W34538   0.806  16.398  14.245 -0.0875 -0.1530 -0.1776
16335W        W34539   7.316  12.385   4.022 -0.1673  0.0820 -0.0845
16336W        W34540  12.178  14.990   1.346 -0.2149 -0.0923 -0.0037
16337W        W34541  17.174   8.197   5.298 -0.0400  0.1397  0.0918
16338W        W34542  18.281  18.481  11.736  0.1718 -0.0992  0.1040
16339W        W34543  14.798   7.324   3.282  0.1354 -0.1372  0.2056
16340W        W34544   7.678  13.517  11.735 -0.0569 -0.1915  0.0343
16341W        W34545   9.024   2.344   2.505  0.3263  0.0223 -0.0771
16342W        W34546  18.204   0.495   2.712  0.2081  0.0710  0.0385
16343W        W34547   9.443  10.046   1.381 -0.2342  0.1203 -0.3929
16344W        W34548   8.111  12.043   4.928  0.4207 -0.4105  0.3332
16345W        W34549   5.548  13.151  13.315 -0.1489 -0.0704  0.0791
16346W        W34550   3.671  18.446   3.573 -0.3945  0.2757 -0.2808
16347W        W34551   2.704   2.174  12.199  0.1766 -0.2148  0.1069
16348W        W34552   4.493  10.372  13.031  0.0382 -0.0189 -0.1129
16349W        W34553   9.012   1.109  10.172  0.0172 -0.0094 -0.0535
16350W        W34554   8.477   7.737  11.529 -0.1456  0.0882  0.1923
16351W        W34555   9.370  17.763  15.318 -0.0777 -0.3398  0.0939
16352W        W34556   5.716   5.030   1.219  0.0200 -0.1416 -0.1175
16353W        W34557   2.568   2.400   4.122  0.1417  0.3588  0.0083
16354W        W34558  13.372  14.752   1.242  0.2207  0.0373 -0.1841
16355W        W34559   4.243  13.160   3.777  0.1756 -0.0965  0.0191
16356W        W34560  11.918  13.261  11.693 -0.2019  0.1720  0.1047
16357W        W34561   9.216   3.164  13.512  0.3034  0.0501 -0.0646
16358W        W34562  13.586   2.759   4.495 -0.0555  0.5083 -0.2275
16359W        W34563  14.810  15.181   4.004 -0.0285 -0.2532  0.2445
16360W        W34564  14.413   7.734   2.600 -0.0142  0.1512  0.2322
16361W        W34565   0.884  11.210   0.753 -0.0552 -0.4536  0.2654
16362W        W34566  13.611   1.030  11.249 -0.0167  0.2023  0.4393
16363W        W34567   8.893   3.649  12.091  0.0455  0.3120 -0.0838
16364W        W34568  14.491   0.194  10.935  0.4290  0.1409  0.1504
16365W        W34569   7.700  18.063  13.210 -0.1802 -0.1268  0.0929
16366W        W34570  11.432   0.171  11.480 -0.0025 -0.0427 -0.1031
16367W        W34571   8.325   8.964   0.286 -0.0437 -0.0596  0.1053
16368W        W34572  17.530   0.616  13.434  0.2657 -0.1114 -0.0008
16369W        W34573  18.150  10.801  12.651  0.3088 -0.1138 -0.0164
16370W        W34574  12.918   5.992   2.331 -0.0847  0.1503 -0.0591
16371W        W34575   3.504  12.947  11.878 -0.0246 -0.0817  0.1153
16372W        W34576  13.459  15.329   4.447  0.1913 -0.0933 -0.2722
16373W        W34577   1.638   7.986   4.250 -0.0024  0.4246  0.1413
16374W        W34578  17.517  17.020  15.213 -0.2194  0.2726 -0.0651
16375W        W34579  10.003   5.215  15.172  0.1397 -0.2525 -0.1110
16376W        W34580  11.211  12.130  12.411  0.1705 -0.1282 -0.2180
16377W        W34581   9.524   4.262   2.723 -0.1064  0.0500 -0.1886
16378W        W34582   3.577  10.845  15.044 -0.0025  0.2437 -0.2517
16379W        W34583  10.122   6.592   4.867  0.2093 -0.1969 -0.1853
16380W        W34584  11.116  15.890  14.331  0.3877  0.1215  0.0130
16381W        W34585   9.663  16.217  12.666 -0.0828  0.0603 -0.0055
16382W        W34586  13.754   0.582  11.138 -0.1583  0.0377  0.0832
16383W        W34587   2.684  11.959   2.689 -0.4094  0.3205 -0.1323
16384W        W34588  13.276  11.019   5.834 -0.2851  0.2408  0.4415
16385W        W34589  16.321   6.729  14.451  0.0439  0.0366 -0.1423
16386W        W34590  15.330  10.987   5.172  0.1217  0.2125 -0.1173
16387W        W34591   3.765  12.545   4.346  0.1392 -0.2989  0.1445
16388W        W34592   0.391   5.224   2.607 -0.0386  0.1074  0.1599
16389W        W34593  15.696   5.649  12.638  0.1586 -0.0775 -0.1875
16390W        W34594  15.204   9.913   1.524 -0.1460  0.3512 -0.3757
16391W        W34595  17.539   0.905  11.497  0.1450  0.0059  0.1211
16392W        W34596  17.795  12.460   1.829  0.2534  0.0284 -0.5566
16393W        W34597  18.509   8.382  12.649 -0.1181 -0.0451 -0.0185
16394W        W34598  12.028   2.277   0.201  0.0347  0.0151 -0.1135
16395W        W34599   5.868  16.176   4.858  0.1810  0.0042 -0.2276
16396W        W34600   6.356   0.930  12.215 -0.0238 -0.2118  0.0422
16397W        W34601  12.969   8.788   4.218  0.0316  0.3196  0.3123
16398W        W34602  14.821   3.889   3.404  0.0025 -0.3879 -0.3512
16399W        W34603   2.421   0.099   3.819  0.2353  0.0405  0.1115
16400W        W34604  13.259   5.403   3.613 -0.1927  0.1642 -0.0903
16401W        W34605   7.274  15.701  13.159 -0.2676  0.2383 -0.4354
16402W        W34606  14.678   1.005  13.532  0.0681 -0.0497  0.0533
16403W        W34607   4.109  16.049  14.001 -0.1583  0.0966 -0.0241
16404W        W34608   0.575   5.363  12.080 -0.0939  0.3038 -0.0887
16405W        W34609   2.228   0.646  12.672  0.1254  0.3829 -0.1531
16406W        W34610  10.618   3.685  11.616 -0.1104  0.0343 -0.2349
16407W        W34611  12.700  17.064  15.397  0.3050 -0.3103  0.1584
16408W        W34612   6.913  11.825  12.283 -0.4684 -0.0946 -0.0605
16409W        W34613   9.062  15.819  14.873 -0.1118  0.0375 -0.1681
16410W        W34614   7.284   2.252  10.951 -0.0444  0.0165  0.0582
16411W        W34615  15.499   8.436   2.019  0.0124  0.0899  0.0973
16412W        W34616  10.427  14.168  12.695 -0.0103  0.4129 -0.2742
16413W        W34617  14.889   1.240  15.253 -0.0865 -0.3478 -0.0531
16414W        W34618   4.924  15.240   3.727  0.0860 -0.2061 -0.2686
16415W        W34619   0.601  14.834  15.292  0.0693  0.0958  0.1453
16416W        W34620   1.092  16.393  12.472  0.0466 -0.2829 -0.1549
16417W        W34621  14.898  14.092   0.936  0.1054  0.1118  0.1596
16418W        W34622  10.636   7.101   3.622 -0.3299 -0.1021 -0.3340
16419W        W34623  16.557   6.983  12.134  0.2551  0.0518  0.1783
16420W        W34624  17.281   9.766   5.810 -0.0455 -0.0169  0.1393
16421W        W34625   5.506  15.047   0.453  0.2032 -0.2263  0.3173
16422W        W34626   9.053   8.662   1.732 -0.2898 -0.3436 -0.0095
16423W        W34627   1.480  16.257  12.782 -0.0322  0.0536 -0.2032
16424W        W34628   9.635   2.951   9.999 -0.0916 -0.1829  0.2724
16425W        W34629  14.283   8.737   0.378 -0.4331 -0.0554 -0.3312
16426W        W34630  14.873   6.679  10.795  0.2021 -0.0858  0.1379
16427W        W34631  12.719  14.065  12.345 -0.1934 -0.0437 -0.2932
16428W        W34632  10.460   8.009  11.617  0.2249 -0.1820  0.0452
16429W        W34633  15.871  12.413   0.014  0.1803  0.2406  0.0194
16430W        W34634  13.151   3.042   1.462  0.2305 -0.1493 -0.0719
16431W        W34635   9.615  17.440  11.362  0.2296 -0.3415 -0.2904
16432W        W34636  12.519   0.263  14.203 -0.0940 -0.1306  0.0174
16433W        W34637   7.265   1.390  10.112  0.1098  0.2338 -0.1179
16434W        W34638  16.363   8.952   3.513 -0.2327 -0.0908  0.3391
16435W        W34639   4.366   4.794  14.224 -0.1656 -0.1760  0.1417
16436W        W34640   3.467  10.975   3.599  0.2267 -0.1814 -0.1589
16437W        W34641  16.849  16.758  10.742 -0.1473 -0.0789 -0.2312
16438W        W34642   5.880  11.749  12.380  0.1031  0.3097 -0.2515
16439W        W34643   4.676   6.403   1.738  0.1844  0.2228 -0.1224
16440W        W34644   5.318  15.348   3.960 -0.1471  0.0029  0.1992
16441W        W34645  17.879  12.962   1.798 -0.0933 -0.1814  0.0839
16442W        W34646   8.593  13.470   4.882 -0.4607  0.3120 -0.0190
16443W        W34647   2.575  14.846  11.282 -0.3343  0.1992  0.0887
16444W        W34648   7.974   7.233   2.646  0.0309  0.0033  0.3725
16445W        W34649   9.559  16.208  14.376 -0.0766 -0.0576 -0.1334
16446W        W34650   4.518  10.445   2.352  0.2681  0.1255 -0.1392
16447W        W34651   9.303   3.245   4.587  0.0805 -0.2765 -0.1695
16448W        W34652  15.773  18.296   2.316  0.0152  0.1275 -0.1026
16449W        W34653   5.050   3.305  14.970  0.1891  0.2951  0.3949
16450W        W34654  12.958  16.462  11.320 -0.3894  0.0105  0.0772
16451W        W34655   6.425  16.130  10.902 -0.0640  0.3386 -0.2002
16452W        W34656   3.960   8.121  14.604 -0.0426  0.1186  0.0637
16453W        W34657   6.350   0.323  11.481 -0.0007  0.0326 -0.1644
16454W        W34658   9.508  14.929  14.779  0.0766  0.0322 -0.5827
16455W        W34659   4.969   5.199   4.065  0.0759 -0.1284 -0.0098
16456W        W34660   5.082  18.348   2.753 -0.0294  0.0369 -0.1414
16457W        W34661   4.962  10.620  11.403 -0.1405 -0.1873 -0.0430
16458W        W34662   2.790   5.867  11.697 -0.1996 -0.1296  0.2717
16459W        W34663   8.678   2.417  14.079 -0.0408 -0.1447 -0.0950
16460W        W34664  14.924   8.124   3.243  0.1764  0.2096 -0.0458
16461W        W34665  16.738   8.530   3.131  0.0204  0.0034 -0.1127
16462W        W34666  18.361  10.612   0.415 -0.4170  0.0609 -0.1726
16463W        W34667  15.923  16.458   4.484  0.0481 -0.2320  0.0900
16464W        W34668  13.807  10.130   0.344  0.1197  0.0921 -0.3253
16465W        W34669   6.583   2.387   2.744 -0.0762  0.0781  0.0828
16466W        W34670   2.739  10.902   0.852  0.3760  0.2376 -0.1923
16467W        W34671  11.848  11.714  12.441  0.1936  0.1940 -0.0288
16468W        W34672  17.155   4.637   3.929 -0.0712 -0.3561  0.0229
16469W        W34673   2.141   4.524   0.671  0.1685 -0.0700 -0.0953
16470W        W34674  13.404  14.665  12.297 -0.1560  0.1600 -0.0710
16471W        W34675  17.152   5.627   2.296  0.1452 -0.0298 -0.1512
16472W        W34676  12.817  15.517  11.181  0.0567 -0.0835  0.1394
16473W        W34677  13.727   2.889  15.415  0.1359 -0.2945 -0.0871
16474W        W34678   4.442  15.264  14.506 -0.0330  0.4457 -0.1546
16475W        W34679   5.501  12.658   1.382  0.1300  0.4212  0.0356
16476W        W34680  14.823  16.380   2.497  0.0691 -0.2555 -0.0633
16477W        W34681   3.220   7.397  13.901  0.5323 -0.1141 -0.2484
16478W        W34682   7.841   1.604   2.158 -0.1140 -0.1316 -0.1151
16479W        W34683  11.861   4.024   3.223  0.1897 -0.4344  0.0254
16480W        W34684   9.372   2.902  11.674  0.1688  0.0811  0.0756
16481W        W34685   6.834  11.783   1.725 -0.0317 -0.3143 -0.1391
16482W        W34686   1.719  17.636   0.334 -0.0102 -0.3286  0.0229
16483W        W34687  14.861  16.719  12.471  0.1448 -0.0034  0.4188
16484W        W34688  12.983  17.846  14.687  0.1478  0.1823 -0.1257
16485W        W34689   5.674  13.913  11.907 -0.2062 -0.0611  0.1820
16486W        W34690   9.582   6.216  11.590  0.0267  0.0375 -0.0776
16487W        W34691   0.859  11.109   1.533 -0.1470 -0.0631 -0.1533
16488W        W34692  10.812   4.316   2.027  0.1761  0.1304 -0.4140
16489W        W34693   7.873  18.493   0.269  0.0734  0.0737  0.0882
16490W        W34694   0.518   9.866   9.970  0.0869 -0.1249  0.1175
16491W        W34695   8.439  16.390   1.245  0.2347 -0.1735 -0.0850
16492W        W34696   1.399  11.056  15.006 -0.0999  0.0874 -0.0892
16493W        W34697  11.997  10.572   2.181  0.3134  0.0841 -0.2106
16494W        W34698  13.553   5.651   0.730 -0.0840 -0.0990 -0.0176
16495W        W34699  16.852   1.620   1.584 -0.0745  0.2041 -0.0009
16496W        W34700   0.424  17.959  14.560  0.0051 -0.0195  0.2530
16497W        W34701  18.384  17.476   2.896  0.0024 -0.0111  0.2418
16498W        W34702  13.074  18.514   1.890  0.1351 -0.0107  0.0361
16499W        W34703   5.388  17.040   1.625  0.2441  0.0076  0.0911
16500W        W34704  14.658   3.955  11.754  0.4985  0.0664 -0.1849
16501W        W34705   2.816   5.162   4.393 -0.0555  0.0821 -0.1344
16502W        W34706   9.472  11.940   3.059  0.2160  0.1817 -0.1224
16503W        W34707   7.776   7.057  14.606 -0.2447  0.0994 -0.1158
16504W        W34708  13.780  14.085   2.456  0.1974 -0.3766 -0.0223
16505W        W34709  16.881   5.750   3.582 -0.1081  0.1306  0.2989
16506W        W34710  15.147  16.287  14.277  0.0398 -0.0027  0.0705
16507W        W34711  15.066  12.990   3.879 -0.3874  0.0774  0.2148
16508W        W34712   3.988  10.808   1.599  0.3466 -0.4122  0.1714
16509W        W34713   8.113  11.529   3.203  0.0815  0.1594  0.2342
16510W        W34714   9.985  18.196   3.166  0.0420 -0.1779  0.1362
16511W        W34715   8.987  10.879   0.923 -0.1299  0.0642  0.1568
16512W        W34716   9.014  10.766   4.576  0.1927  0.4997  0.0838
16513W        W34717   6.923   6.382  12.847  0.1667 -0.1393 -0.0179
16514W        W34718   3.807  14.715   1.598 -0.1148 -0.1047 -0.3113
16515W        W34719   8.954   3.320  10.965  0.1722  0.0039 -0.1838
16516W        W34720   3.572   9.779   4.100 -0.2114  0.0230 -0.2843
16517W        W34721   0.773  14.397  11.508  0.1381  0.6732  0.0273
16518W        W34722   9.666  13.950  13.206  0.0203  0.0961  0.2639
16519W        W34723   3.469  12.876   4.144  0.4541  0.0771 -0.1919
16520W        W34724  16.652   7.772   2.608 -0.2363  0.0132  0.0598
16521W        W34725   5.665   1.055   1.099  0.0550 -0.2047 -0.0146
16522W        W34726  17.558   9.595   3.258 -0.1907  0.2666  0.0957
16523W        W34727   2.507  10.619   3.568 -0.0538 -0.2311 -0.3690
16524W        W34728   6.581  16.006   3.518  0.0531  0.3758  0.0189
16525W        W34729   1.703  14.015   3.877  0.3207  0.2884 -0.1155
16526W        W34730   2.351  13.291  11.093  0.0487 -0.0690 -0.1667
16527W        W34731   3.263  15.564   1.198  0.6957 -0.0369 -0.3385
16528W        W34732  13.220   2.054   2.462 -0.0528  0.2126 -0.0717
16529W        W34733  12.806   3.679  11.602  0.1278  0.1000  0.1784
16530W        W34734   2.095  11.417   4.260 -0.1934  0.0488 -0.1655
16531W        W34735   7.336  15.521  13.637 -0.2166  0.1520 -0.0107
16532W        W34736  16.008  13.017   3.523 -0.1297 -0.0187 -0.0850
16533W        W34737   4.508  16.316   5.441  0.0995  0.0078  0.0647
16534W        W34738   2.561  17.074  14.536  0.0807 -0.0818 -0.1087
16535W        W34739   2.965  14.981  13.709 -0.0810 -0.0385  0.0114
16536W        W34740   7.607   4.550  12.998 -0.0428  0.0990 -0.0594
16537W        W34741   8.666  17.478   0.667  0.1610  0.0681  0.3790
16538W        W34742   9.559  14.276   4.400  0.2742  0.0514  0.1819
16539W        W34743   8.523   5.581   2.122 -0.1125 -0.1607 -0.2722
16540W        W34744  17.187  13.699  15.102  0.2669  0.0290  0.0036
16541W        W34745  12.571   5.148  11.928  0.0824  0.0711  0.0598
16542W        W34746  10.371   5.562   1.873 -0.0657  0.4854  0.1868
16543W        W34747  10.970  15.431  13.385 -0.0737  0.1624 -0.0334
16544W        W34748   3.346   6.892   2.994  0.0849  0.0797 -0.1580
16545W        W34749  10.036  17.277  10.907 -0.2077  0.0616  0.3952
16546W        W34750  14.176   9.362   1.654 -0.1329  0.1031  0.0252
16547W        W34751   8.475   2.342   1.870 -0.1101 -0.0323 -0.2976
16548W        W34752   2.980   7.115  12.255  0.1314 -0.0539 -0.1487
16549W        W34753   2.807  16.527  14.551 -0.0949 -0.0241  0.2028
16550W        W34754  15.194  17.293   4.020 -0.3237 -0.2964  0.0223
16551W        W34755   6.838   3.124  14.711 -0.0341  0.0332  0.1180
16552W        W34756  11.329   9.690   3.883  0.0392 -0.0689 -0.0072
16553W        W34757   3.869  17.174  12.492  0.1445  0.0896  0.2294
16554W        W34758  17.455   7.012   1.232 -0.1235 -0.3127  0.0152
16555W        W34759   7.764   5.964   3.114  0.0341 -0.0639 -0.1454
16556W        W34760  11.991  10.499  13.946  0.0510 -0.1138 -0.0782
16557W        W34761   8.512  15.164   1.936 -0.2800  0.1056 -0.3654
16558W        W34762   6.945  18.695   1.850  0.1631  0.2495 -0.0605
16559W        W34763   7.002  12.795   4.204  0.1663 -0.1368  0.0230
16560W        W34764   9.516   8.646   3.860  0.1480 -0.3407  0.0918
16561W        W34765   3.466  10.500  11.397  0.1460 -0.2090  0.1687
16562W        W34766  16.521   7.638   3.945 -0.2490  0.5261 -0.0732
16563W        W34767   0.044   4.011   0.112 -0.0119 -0.0141  0.1312
16564W        W34768   3.349  11.528  10.684 -0.2340 -0.0396 -0.0163
16565W        W34769  14.222   2.966  15.192  0.2109  0.1465  0.2037
16566W        W34770  10.751  17.570   2.687 -0.2804 -0.0928 -0.0967
16567W        W34771   9.819   3.529  11.601 -0.1260  0.0032 -0.0865
16568W        W34772   7.460   9.936   2.746  0.1280 -0.0432  0.0962
16569W        W34773   7.608   3.065   3.455 -0.2331  0.0496 -0.0550
16570W        W34774  11.858  12.198   1.308 -0.0494 -0.0570  0.0513
16571W        W34775   8.476   5.065  10.197 -0.0261 -0.2957  0.1199
16572W        W34776   3.655   5.698   3.564  0.0158  0.1562  0.0563
16573W        W34777  12.915   4.781  14.765  0.0825  0.1215 -0.0856
16574W        W34778   2.154   8.977   1.290 -0.1488 -0.2112 -0.1231
16575W        W34779   3.571   7.088  11.864  0.3140 -0.1325  0.0608
16576W        W34780  18.291   8.429  11.346  0.0818 -0.2672 -0.3949
16577W        W34781   5.666   4.703   3.612 -0.0957  0.1380  0.0342
16578W        W34782   4.270   7.787  14.441  0.1543 -0.0806 -0.1757
16579W        W34783  15.091  16.508  10.700  0.0632 -0.0588 -0.1312
16580W        W34784   1.879   0.714  11.347 -0.2744 -0.0508  0.1524
16581W        W34785   8.678  13.239  13.054 -0.0909  0.1170 -0.0490
16582W        W34786   6.426   3.441   2.216  0.0286 -0.0227  0.1242
16583W        W34787  15.696   1.302   4.248  0.0008  0.1647 -0.0598
16584W        W34788   2.948  14.480   3.319  0.0048 -0.1307 -0.5794
16585W        W34789   1.658   4.658  14.712 -0.1128 -0.0811 -0.2043
16586W        W34790   4.375   8.340  11.932  0.2898 -0.0333 -0.2093
16587W        W34791   6.459   5.104   0.738 -0.0228  0.0082 -0.0761
16588W        W34792   1.049  13.105   3.296  0.2835  0.0306  0.4102
16589W        W34793  10.027   3.846  12.305  0.0347  0.0237 -0.2388
16590W        W34794   4.030  10.650  12.904 -0.0049 -0.0356 -0.1330
16591W        W34795   1.537  12.891   3.233  0.3283 -0.1684  0.1269
16592W        W34796  18.324   0.745  14.849 -0.2241  0.0969  0.3030
16593W        W34797  10.646   3.917  14.170  0.0258  0.2157 -0.3227
16594W        W34798  17.149   9.398  13.041  0.0619  0.1836 -0.1720
16595W        W34799  15.922  17.913  13.214 -0.2974 -0.1255  0.1728
16596W        W34800   1.437   4.410  11.697 -0.0048  0.1495 -0.2252
16597W        W34801   3.258   3.122   0.092  0.2814 -0.3491  0.0897
16598W        W34802  10.252  11.363  13.516  0.2135 -0.0669 -0.0336
16599W        W34803  14.800   3.516  13.369  0.0276 -0.0505  0.0932
16600W        W34804   6.738  13.047   2.940 -0.3943  0.1171  0.0531
16601W        W34805  14.356  17.775   2.045  0.0341  0.1715  0.3551
16602W        W34806  17.582  13.968  11.138  0.3170  0.0277  0.1853
16603W        W34807  17.262  18.486   2.809  0.2998  0.0544  0.1515
16604W        W34808  16.752  17.562  11.654 -0.0619  0.1418  0.3386
16605W        W34809  10.976  17.004   2.003  0.0062 -0.1786  0.0075
16606W        W34810  11.555   4.392  15.176 -0.3858 -0.0305 -0.1132
16607W        W34811   0.149   2.121  14.422 -0.1564  0.1866 -0.0766
16608W        W34812  10.470   1.909   4.692  0.0004  0.0543  0.0834
16609W        W34813   3.139   7.754   5.279 -0.1158 -0.2129  0.1170
16610W        W34814   4.186   1.839   2.873  0.0984 -0.0607  0.0971
16611W        W34815   5.945  12.645   0.046 -0.1414 -0.3622 -0.2027
16612W        W34816   1.533  16.688   0.511  0.1313 -0.1261  0.3763
16613W        W34817  16.152   0.933  10.504  0.1175  0.0575  0.0083
16614W        W34818  14.543  18.056   5.820  0.2394  0.0097 -0.1390
16615W        W34819  16.577   7.646   4.659  0.2116 -0.1032  0.1284
16616W        W34820  16.292  17.958  12.822  0.1439  0.0182  0.0445
16617W        W34821  18.622   7.136  10.365 -0.4291 -0.1650 -0.3146
16618W        W34822   6.434  15.538  13.332 -0.0824  0.0554 -0.2248
16619W        W34823   2.600   8.974   1.007 -0.0908 -0.2162  0.0260
16620W        W34824  15.839   0.710   1.543 -0.0115 -0.1905  0.1139
16621W        W34825  13.709   5.752   3.525 -0.1255 -0.0381 -0.2589
16622W        W34826  13.408  11.717  14.667  0.1391 -0.0726 -0.0013
16623W        W34827   4.903   5.932   0.674 -0.2967 -0.0788  0.2088
16624W        W34828  15.775  10.957  14.036 -0.4086  0.0133  0.0087
16625W        W34829   5.754   9.811   1.445  0.2380 -0.0689  0.0588
16626W        W34830  15.196  10.334   0.106 -0.2626 -0.2867 -0.3419
16627W        W34831   5.804   7.329   2.907 -0.1068  0.1072 -0.2332
16628W        W34832  17.807   5.999   2.961  0.1065  0.0140 -0.0449
16629W        W34833   2.647   4.567   2.838 -0.1977 -0.0388 -0.2679
16630W        W34834  18.557  17.527   1.609  0.0135  0.0188 -0.1495
16631W        W34835   1.445  18.624  11.430  0.0512 -0.2381  0.0986
16632W        W34836   9.943   3.046   3.647  0.0523 -0.0126  0.0531
16633W        W34837  18.078  11.519   2.839 -0.0694  0.3975 -0.0612
16634W        W34838   0.840  16.218   1.102  0.1899  0.0959  0.2205
16635W        W34839   6.818   4.545   4.339 -0.2403 -0.0875  0.2815
16636W        W34840  12.678   5.027  12.498 -0.0963 -0.0441 -0.0200
16637W        W34841   7.100  17.268  10.232 -0.4544 -0.0086 -0.2756
16638W        W34842   1.969   4.289  11.542 -0.1037 -0.3499 -0.1131
16639W        W34843   7.660  16.082   4.375 -0.0542 -0.0569  0.1243
16640W        W34844   6.438   5.567   1.927 -0.0045 -0.0133  0.2260
16641W        W34845   4.723  15.613  10.534 -0.0427 -0.0987 -0.1624
16642W        W34846   7.281   1.821  10.711  0.2515 -0.0098  0.0202
16643W        W34847  18.118   9.739   3.212 -0.0861 -0.0377  0.0833
16644W        W34848  11.632  11.334   1.716  0.0035  0.0187  0.0049
16645W        W34849  17.295  13.204   0.459  0.0977  0.0915  0.0548
16646W        W34850   7.933  12.415  10.989 -0.1183 -0.1804  0.2704
16647W        W34851   1.199   7.092  11.533  0.2763  0.1354  0.1920
16648W        W34852  18.011   2.263  15.263  0.0268  0.3052  0.1713
16649W        W34853   2.152  12.376  13.815  0.0005  0.2801 -0.0290
16650W        W34854   2.354  12.100   1.322 -0.1190 -0.0650 -0.5063
16651W        W34855  10.178   9.964   4.327 -0.0042  0.0729  0.1642
16652W        W34856  12.286   1.385  15.453  0.0880 -0.0546  0.1590
16653W        W34857  11.319   1.479  12.763 -0.0036  0.4035 -0.0588
16654W        W34858   9.893  14.721   3.423  0.1186 -0.2766 -0.2552
16655W        W34859  10.853   6.853  13.591  0.0013 -0.2409  0.1459
16656W        W34860   6.290   0.462   1.272 -0.0853  0.1344  0.0949
16657W        W34861   9.736  13.038  12.065  0.0108  0.0720 -0.0470
16658W        W34862   5.195  15.610  13.138  0.0098 -0.3808 -0.0635
16659W        W34863  10.981   1.835   2.525 -0.1063 -0.3224  0.0007
16660W        W34864   7.711   4.174   1.781  0.0300  0.0065 -0.0100
16661W        W34865   9.747   5.828  12.013  0.1528  0.0689 -0.0703
16662W        W34866  10.845   5.546  10.988  0.0433 -0.0627  0.1554
16663W        W34867  16.162  12.926  13.914  0.0939  0.0970  0.2907
16664W        W34868  13.189  10.622   4.222  0.1440 -0.1519 -0.1454
16665W        W34869  13.754  14.757   1.645  0.0576  0.2221 -0.0071
16666W        W34870  17.157   9.464   3.957  0.0451 -0.0413  0.1498
16667W        W34871  17.299  10.684   0.831 -0.1116  0.2588 -0.0246
16668W        W34872  12.642   3.298   2.245 -0.1761  0.2676 -0.1511
16669W        W34873   2.886  11.876   2.223 -0.3018  0.2289 -0.0337
16670W        W34874   5.599   0.796  13.409 -0.1916 -0.1375  0.1989
16671W        W34875  13.378   5.296   4.538 -0.2973 -0.1853  0.1797
16672W        W34876  13.451  18.581  11.126  0.2182  0.0472  0.0061
16673W        W34877  16.625  11.194   4.518 -0.3617  0.1246 -0.1767
16674W        W34878  11.610  12.430  13.257 -0.0603 -0.1207 -0.1677
16675W        W34879  13.039  15.969  11.133  0.0493  0.1657 -0.0798
16676W        W34880  14.904  13.027  14.315  0.1985  0.1041  0.0523
16677W        W34881   0.328   0.308   4.716 -0.0843 -0.0756  0.2306
16678W        W34882   2.138   3.634  11.709 -0.0972  0.0162 -0.1888
16679W        W34883  11.586   3.764   1.873  0.0020 -0.0478 -0.0775
16680W        W34884  15.322   1.096   0.015  0.2607  0.2714  0.0452
16681W        W34885   0.422  11.207  13.376 -0.3107  0.0914  0.2667
16682W        W34886  17.862   8.839  13.270 -0.0804  0.3347  0.2684
16683W        W34887   7.827   7.696   2.784 -0.2718  0.0595 -0.1911
16684W        W34888  18.392   6.816  15.446  0.0002 -0.6275  0.5694
16685W        W34889   9.258  14.300  11.142  0.1263  0.1588  0.2209
16686W        W34890  15.424   0.163   0.957  0.1130 -0.0199  0.2571
16687W        W34891   2.515   7.136   4.410  0.2228  0.0471 -0.0897
16688W        W34892   5.302  16.277   3.191  0.2076 -0.1279 -0.1690
16689W        W34893   6.639  12.502  13.779  0.2650  0.0698 -0.3471
16690W        W34894  15.411  15.720   4.627 -0.2744 -0.0215 -0.0144
16691W        W34895  17.568   0.850  12.396 -0.2515 -0.2817  0.4754
16692W        W34896  12.641   2.554  10.941  0.1876 -0.0390  0.0936
16693W        W34897   1.045   9.959   2.281  0.2451 -0.2552  0.4681
16694W        W34898   1.623  17.226  12.368 -0.0320  0.1778 -0.0418
16695W        W34899   1.712   2.448  11.046  0.0085  0.1296 -0.0493
16696W        W34900   2.003  18.002  13.602  0.2627 -0.1928 -0.2880
16697W        W34901  11.435  17.458   1.279 -0.0840 -0.1123  0.2583
16698W        W34902   5.467  12.368   2.451 -0.3495  0.0801 -0.3742
16699W        W34903   3.371   9.616  10.923 -0.2530  0.0139 -0.1026
16700W        W34904   0.535  18.494  13.370 -0.1324  0.1867 -0.0648
16701W        W34905  18.662   3.535  13.094 -0.3921 -0.0361 -0.2385
16702W        W34906   4.209  16.692  14.736 -0.0334 -0.2772 -0.1118
16703W        W34907   2.851   5.553   0.093  0.2253  0.1643  0.1022
16704W        W34908   0.377  10.976   3.615 -0.0318 -0.0069  0.1309
16705W        W34909  12.113  18.071  10.989  0.0069  0.0744 -0.0225
16706W        W34910   9.058  13.521   4.780 -0.0149  0.0413 -0.0941
16707W        W34911  15.823   0.378  15.013  0.0546  0.1499  0.0762
16708W        W34912   8.193  16.955  14.889  0.0664  0.0918  0.1937
16709W        W34913  15.634  11.018  11.146 -0.1889 -0.2948 -0.0311
16710W        W34914  16.533  10.782  14.181  0.1396  0.0806 -0.0965
16711W        W34915   9.414  17.961  13.958  0.0611 -0.0988  0.0737
16712W        W34916  11.693   9.467  12.710  0.2847 -0.0813 -0.3083
16713W        W34917   2.291  15.569   4.504 -0.1774  0.3211  0.0331
16714W        W34918  14.764   3.942  14.675 -0.0526  0.3243 -0.0443
16715W        W34919   4.468  18.474   3.401 -0.6662  0.1938  0.4233
16716W        W34920  13.892   7.302   2.355 -0.0098 -0.2747 -0.0603
16717W        W34921  17.589  12.804   5.355 -0.0383 -0.2699 -0.4156
16718W        W34922  16.385   1.173  12.303  0.2824  0.0481  0.5328
16719W        W34923  14.190   7.718   3.969 -0.0863 -0.0014 -0.0087
16720W        W34924   0.251   0.866   3.850  0.2514  0.2537 -0.0294
16721W        W34925   0.505   6.106  15.279  0.2039  0.2058 -0.0345
16722W        W34926  17.843   9.358   4.594 -0.1768 -0.1118  0.1611
16723W        W34927   9.942  11.139   4.147  0.1788  0.0203  0.0202
16724W        W34928   1.604   3.860   4.016  0.3451  0.0585 -0.3728
16725W        W34929   1.763   4.746  11.658 -0.0488 -0.2269  0.1331
16726W        W34930  17.018   2.056  14.099  0.2116 -0.0795 -0.0898
16727W        W34931   4.270   4.241   0.160  0.0077  0.5256  0.0698
16728W        W34932  13.721  16.133   3.150  0.2273 -0.0323  0.2388
16729W        W34933   1.278   8.713   0.487  0.2065  0.3356 -0.0575
16730W        W34934  16.061   1.903   2.637  0.4430  0.3463 -0.3856
16731W        W34935   3.457   4.992  14.747 -0.0335 -0.0346  0.3559
16732W        W34936  16.210   5.182  11.953 -0.0941  0.0514 -0.0501
16733W        W34937   2.235   0.047   0.838 -0.2089 -0.2488  0.1915
16734W        W34938  12.377  15.194  12.692 -0.2724 -0.0747 -0.2088
16735W        W34939  13.570  13.183   1.825  0.3385  0.4643 -0.1690
16736W        W34940   9.059   6.145  12.867  0.0661  0.1033 -0.0020
16737W        W34941   1.574  14.110  12.433 -0.1665  0.3722  0.1909
16738W        W34942  14.742   7.235   1.114  0.3297  0.0819  0.2066
16739W        W34943  14.993   8.246   4.179  0.2210 -0.1147  0.0225
16740W        W34944   3.264  15.770  11.365 -0.2046  0.1939  0.0466
16741W        W34945  10.667  12.613   3.354 -0.1430  0.1342  0.0814
16742W        W34946  15.117   3.292  12.221  0.1534 -0.0616  0.2043
16743W        W34947   2.412   9.412   1.242  0.3833  0.3771 -0.2220
16744W        W34948   6.646   1.245   3.531 -0.0098 -0.3114  0.4635
16745W        W34949   7.201  11.526   1.437  0.1114  0.2142 -0.1015
16746W        W34950   1.687   5.159  11.318 -0.3468  0.0970 -0.2070
16747W        W34951   2.980   1.160  14.808  0.3371 -0.2277  0.2600
16748W        W34952  12.101  10.506  10.989  0.1688 -0.4054  0.0869
16749W        W34953   3.132   3.506  14.273  0.1458  0.1517 -0.1060
16750W        W34954   9.659   1.789  13.531  0.3586 -0.3772 -0.3105
16751W        W34955   5.419   8.271  14.936 -0.0725 -0.1032  0.3857
16752W        W34956  15.415   9.918   1.104  0.0801 -0.0221  0.0142
16753W        W34957  16.316   3.128   0.939  0.3216  0.1438  0.1085
16754W        W34958  11.525  10.534   1.634  0.0364 -0.2879  0.0722
16755W        W34959   1.342   5.966  11.259  0.2448  0.0393  0.3285
16756W        W34960   3.288  11.033   2.089  0.0275  0.0513  0.1116
16757W        W34961   0.169   0.363   1.486 -0.4176  0.2369 -0.0434
16758W        W34962  15.864   9.170   4.384  0.3438  0.0021 -0.2554
16759W        W34963   7.086   0.477  13.722  0.0967 -0.0621  0.1783
16760W        W34964   2.171   4.787   2.047  0.0708 -0.1516 -0.2340
16761W        W34965   3.841   5.226   0.148  0.2077  0.2029 -0.2085
16762W        W34966   4.294   0.345   2.456 -0.0111  0.0752  0.0863
16763W        W34967  12.709   6.488   0.221  0.0903 -0.2430  0.2061
16764W        W34968   9.762   2.887   1.658 -0.0425  0.1158 -0.3562
16765W        W34969   4.703   4.454   0.235 -0.0762 -0.3063  0.2222
16766W        W34970   3.879   9.590   1.951 -0.0988  0.3652 -0.0338
16767W        W34971  11.380   9.238   4.704 -0.0455 -0.2014  0.0153
16768W        W34972  11.298   1.881  13.184 -0.2101  0.2000 -0.1820
16769W        W34973  17.775  14.856  15.292 -0.0554 -0.2801  0.1076
16770W        W34974   8.563   5.878   0.019 -0.0822 -0.0807 -0.0871
16771W        W34975   0.346   1.515  12.774  0.0707 -0.0217 -0.2606
16772W        W34976  11.861   2.743  13.964 -0.1191 -0.0271  0.0024
16773W        W34977  15.355   0.556  10.954  0.0257  0.1870  0.0395
16774W        W34978  18.507  11.284   5.320 -0.3223 -0.2450  0.1078
16775W        W34979  13.773  15.366  11.183 -0.3752 -0.1021  0.0326
16776W        W34980   9.835  12.594  15.137 -0.5192 -0.1636 -0.1135
16777W        W34981   9.268  15.622  11.044 -0.2504  0.0302  0.1975
16778W        W34982   1.339   3.098   4.059 -0.1231 -0.0984 -0.1773
16779W        W34983  13.677  17.044   4.294  0.0948  0.2145  0.2082
16780W        W34984  11.421   2.850   0.761 -0.0007  0.3708 -0.3410
16781W        W34985   4.636   9.038  12.856 -0.0653  0.0565  0.0563
16782W        W34986   2.222  13.083  10.632  0.1422 -0.0985 -0.1332
16783W        W34987   1.463   9.511   2.044 -0.3517 -0.1554 -0.2479
16784W        W34988   1.168   1.353   1.134 -0.2407  0.1860 -0.1202
16785W        W34989   0.768  17.568  12.836 -0.1548 -0.1050 -0.3544
16786W        W34990   2.347  18.306  11.669  0.0132 -0.0516 -0.1630
16787W        W34991   6.751   4.030   1.485 -0.2104 -0.0606 -0.1054
16788W        W34992  11.361  10.063   2.893  0.0717  0.4039  0.1940
16789W        W34993  10.534   0.095  11.158  0.2375  0.2597 -0.0949
16790W        W34994  15.983  12.585  13.651 -0.0981 -0.1594 -0.1938
16791W        W34995  12.628   1.753   2.276 -0.2167  0.0492 -0.0177
16792W        W34996  17.439   2.736   1.536  0.1544 -0.3150  0.0981
16793W        W34997  10.482  16.756  15.329 -0.1367 -0.0122  0.1359
16794W        W34998   0.015  12.025  11.299  0.2278  0.3200  0.3354
16795W        W34999  15.357  10.551   0.920  0.1387  0.1964 -0.2154
16796W        W35000   2.385  15.551   1.600 -0.1148 -0.1249 -0.1441
16797W        W35001   5.634  17.592  12.738 -0.2007 -0.0161 -0.1997
16798W        W35002  12.079  15.583   2.434 -0.1960 -0.1197  0.1747
16799W        W35003   6.344   1.942  11.371  0.2410  0.1305  0.2169
16800W        W35004  17.094   1.752   0.719 -0.1018 -0.0413 -0.0750
16801W        W35005  17.659   0.525   5.109 -0.0042 -0.1798 -0.1668
16802W        W35006   6.384  14.899   0.220  0.1840 -0.2794  0.1071
16803W        W35007  12.394  11.752   2.885 -0.1022 -0.1426  0.0043
16804W        W35008  13.924   6.665   2.885 -0.3176  0.0902 -0.0937
16805W        W35009  11.647  14.731  11.118  0.0724  0.1181  0.0827
16806W        W35010   6.736   1.015   2.415 -0.2924 -0.0120 -0.0392
16807W        W35011  15.935  18.491  15.035 -0.1062  0.0511  0.1146
16808W        W35012   6.284   3.832  13.991  0.0163 -0.2162  0.0830
16809W        W35013   6.284  13.916   0.490  0.3487  0.0612  0.0087
16810W        W35014  16.323   9.778  13.384 -0.0248 -0.2732  0.1483
16811W        W35015   7.663  12.120   1.067  0.0503  0.2637  0.1248
16812W        W35016  17.662   1.976   0.064 -0.0961 -0.1743 -0.1321
16813W        W35017   4.050   3.468   0.519 -0.1781  0.1142 -0.1574
16814W        W35018   5.861   0.607  12.415 -0.0323  0.0110  0.4628
16815W        W35019  17.470  10.858  13.058  0.2736  0.2129 -0.1851
16816W        W35020   3.807  15.914  14.688  0.2410 -0.0367 -0.2034
16817W        W35021   5.483  10.728   5.274  0.0907  0.3056 -0.0626
16818W        W35022   8.806   9.952  15.426  0.1182  0.2670  0.1860
16819W        W35023   4.017   3.054   4.427 -0.0234 -0.0961 -0.2621
16820W        W35024   7.185   4.623   3.119  0.2011 -0.1706 -0.0563
16821W        W35025  17.461  13.498   0.843  0.1816 -0.0621  0.1502
16822W        W35026  17.340   6.254   3.085 -0.0116  0.2519  0.1436
16823W        W35027  16.575  16.425   2.689 -0.3540  0.1752 -0.0178
16824W        W35028  17.625   0.664   3.900 -0.1885  0.3388  0.4395
16825W        W35029   1.413   3.181   1.267 -0.0197 -0.0570  0.3958
16826W        W35030  10.763  11.662   1.564  0.1702  0.1841  0.5787
16827W        W35031  10.134  10.540  11.971  0.2131 -0.0786 -0.0066
16828W        W35032  12.766  10.592   2.479 -0.1760 -0.1240 -0.0239
16829W        W35033   7.310   6.745   1.381 -0.0157 -0.0508  0.0814
16830W        W35034  14.536  15.987   2.568 -0.1757 -0.0867  0.1276
16831W        W35035   7.823   1.231   1.445  0.1648  0.0420 -0.3660
16832W        W35036   5.011   0.856  11.109 -0.4325  0.0193  0.0353
16833W        W35037  17.297   4.743  13.955 -0.0658  0.0641  0.0955
16834W        W35038   4.514  16.216  14.300  0.0646 -0.2146  0.1816
16835W        W35039   8.512  10.012   2.030 -0.1195  0.1092 -0.3146
16836W        W35040  17.949  16.831   9.676  0.0514  0.0007 -0.3269
16837W        W35041   1.442   6.621   3.730  0.3014 -0.3014  0.2340
16838W        W35042  12.057   2.068   3.289 -0.0548 -0.0843 -0.0744
16839W        W35043  11.303  15.124   0.606 -0.0151  0.0526  0.1446
16840W        W35044   5.520  16.552   1.388  0.2482 -0.0102 -0.0505
16841W        W35045   6.429  13.825   2.444 -0.0918  0.1283 -0.3430
16842W        W35046   9.172  13.712   0.205  0.0958  0.3428  0.1361
16843W        W35047  11.409   2.677  13.133 -0.0856  0.4565 -0.0695
16844W        W35048  15.166   3.442  13.800 -0.0205 -0.0289  0.1757
16845W        W35049   0.019  12.506  11.092  0.0015  0.2440 -0.2132
16846W        W35050  18.280  18.506   4.891  0.1990 -0.2366  0.2052
16847W        W35051   7.962  15.547  13.263 -0.2023 -0.0115  0.1974
16848W        W35052   6.487   8.112  13.472 -0.3818  0.0855 -0.1191
16849W        W35053   1.407  10.229   2.507 -0.6037  0.0857  0.1110
16850W        W35054  11.887   4.914   2.717  0.0550 -0.1173 -0.2682
16851W        W35055  15.038  11.601   0.711 -0.1676  0.0191 -0.0734
16852W        W35056  10.484  11.797   2.882 -0.1900 -0.2207  0.2037
16853W        W35057  17.279   2.379   2.405 -0.2499  0.1946  0.5480
16854W        W35058  14.728  18.015  14.675  0.1814  0.0877  0.2861
16855W        W35059   3.235   6.069  14.318  0.1109  0.2643 -0.0070
16856W        W35060   7.104   0.033  14.620  0.1295 -0.1713 -0.1265
16857W        W35061   4.551   7.296   0.154 -0.2381 -0.5513  0.0452
16858W        W35062  15.255   6.155  10.622  0.2548 -0.0396 -0.1234
16859W        W35063  12.349  10.848   4.100 -0.0378  0.1453  0.0308
16860W        W35064   0.725   7.371   1.357 -0.1010  0.0187 -0.2344
16861W        W35065   9.514   6.536   2.085 -0.2434 -0.0148  0.0439
16862W        W35066  13.620  18.374   3.084 -0.1915 -0.2803 -0.2754
16863W        W35067   3.365  14.153   0.910 -0.0692  0.2741 -0.0754
16864W        W35068   2.150  10.373   3.335  0.2274  0.0397 -0.2215
16865W        W35069   9.802  16.196   4.562  0.2711 -0.1173  0.0112
16866W        W35070  13.790  16.277   4.626  0.1642 -0.0328 -0.2894
16867W        W35071  17.350   9.029  11.051 -0.0282  0.0737  0.2227
16868W        W35072   1.624   9.291   2.582  0.1013  0.0932  0.2728
16869W        W35073  17.986   4.665  14.835  0.2745 -0.0926  0.0382
16870W        W35074   4.829   0.701  12.990 -0.1275 -0.1222 -0.1794
16871W        W35075  12.858  11.822  13.490  0.0965  0.2152 -0.1156
16872W        W35076  12.131   1.689   1.705 -0.1771 -0.1293  0.2720
16873W        W35077   8.847   2.196   1.566 -0.1086  0.2053  0.2668
16874W        W35078  12.527   6.442   4.564 -0.1069  0.1899  0.1212
16875W        W35079   2.096   0.600   2.316 -0.1406 -0.2837 -0.1387
16876W        W35080   3.304   2.230  11.228 -0.1274  0.1046 -0.0396
16877W        W35081  14.146   8.152   2.548  0.5183 -0.1759 -0.1651
16878W        W35082  14.270  12.773   0.761  0.3512  0.0963  0.1302
16879W        W35083  16.010   2.920   3.050 -0.0196  0.3528  0.0668
16880W        W35084   9.289   2.606  15.450 -0.1589  0.0898 -0.0366
16881W        W35085  10.269  16.386   3.330 -0.1991 -0.0878  0.1154
16882W        W35086   2.901   2.399   2.656  0.3200  0.2254  0.2093
16883W        W35087  10.834  14.595   3.612  0.0256 -0.2774 -0.1074
16884W        W35088  11.354   3.785  11.126  0.2899 -0.1862 -0.1253
16885W        W35089   4.631   5.518  12.951  0.2341 -0.3088 -0.1837
16886W        W35090   2.718  14.704  10.813  0.0970 -0.1324  0.2547
16887W        W35091  12.197  18.275  14.283 -0.0938  0.2910  0.2256
16888W        W35092  10.739   6.012  15.206 -0.2518 -0.2914 -0.1526
16889W        W35093  16.222  15.222  11.675  0.0690 -0.2047 -0.1137
16890W        W35094   5.840  13.176   4.174  0.0387 -0.1881 -0.0511
16891W        W35095   4.787   9.890   3.656  0.2277  0.2960  0.5015
16892W        W35096  14.102  14.027   1.342  0.0596  0.1067 -0.0327
16893W        W35097  11.787   3.009   2.374  0.0556 -0.0013 -0.0097
16894W        W35098  14.797   6.880  13.669  0.0298  0.1018 -0.2687
16895W        W35099   5.417   1.743   3.753  0.0374 -0.0507 -0.1008
16896W        W35100  12.879   4.252  12.178 -0.0046  0.0047 -0.2664
16897W        W35101   5.270   2.933  11.841  0.2308 -0.1646 -0.1724
16898W        W35102  16.308   6.028   0.932  0.0040 -0.0666  0.3008
16899W        W35103   7.185   4.747  13.268  0.3255  0.1882  0.0545
16900W        W35104  14.660  18.091  13.754 -0.0095 -0.3964 -0.3450
16901W        W35105   5.100   6.416   0.781 -0.0884  0.0473 -0.1135
16902W        W35106   5.439   4.028  14.865 -0.0517 -0.0646  0.1186
16903W        W35107  11.627  13.566  12.722  0.1966 -0.0857 -0.1078
16904W        W35108  14.757   8.857   0.947 -0.0768  0.0006  0.2576
16905W        W35109   8.865   1.438   1.284 -0.1027 -0.0326 -0.0177
16906W        W35110   3.865  11.365  13.357  0.2615 -0.0603  0.0564
16907W        W35111   4.046   9.222  14.596  0.2352 -0.0786  0.0369
16908W        W35112  17.387   8.403  11.730 -0.3179  0.0820 -0.2512
16909W        W35113   8.389   8.862   2.699  0.3262  0.3015 -0.2815
16910W        W35114   5.529  15.934  12.273 -0.1406 -0.0967 -0.0041
16911W        W35115  14.341   2.705   1.228 -0.1187 -0.2778 -0.2466
16912W        W35116  18.020   2.452   5.018 -0.1692 -0.1281  0.1306
16913W        W35117  16.348  13.163  14.353  0.1524  0.1271 -0.0510
16914W        W35118   4.871   6.342  12.297 -0.1099  0.2852 -0.1306
16915W        W35119   6.850  13.509   1.101  0.0746 -0.0836  0.1218
16916W        W35120   3.980  12.090   1.820  0.1071 -0.0493  0.1331
16917W        W35121   1.172   6.132  12.177 -0.1189 -0.1463  0.0565
16918W        W35122  15.019   9.460   3.393  0.1700  0.0211 -0.0438
16919W        W35123  12.902   5.241  13.874  0.1318  0.0644  0.0153
16920W        W35124  18.414   3.906   0.989  0.2534  0.0896 -0.2616
16921W        W35125  10.958   5.991   5.894  0.0335 -0.1974 -0.1082
16922W        W35126  11.269  14.682   2.528 -0.0402 -0.0103 -0.0736
16923W        W35127  14.277  18.057   3.208  0.0002  0.2339 -0.0150
16924W        W35128  16.170  10.004  15.367 -0.4595  0.4999 -0.0659
16925W        W35129   6.770   4.884  10.824 -0.1775  0.1386 -0.1565
16926W        W35130   3.525   7.404   2.356  0.2301  0.1980  0.0049
16927W        W35131   7.118   5.497  11.529 -0.1812  0.3037  0.0039
16928W        W35132   0.943   3.780   0.407 -0.1541  0.5464 -0.2165
16929W        W35133   1.528  11.245   2.232 -0.2194 -0.2108 -0.0571
16930W        W35134   1.224  18.666   0.896 -0.0877 -0.1051  0.0277
16931W        W35135  17.151  14.267  11.139  0.1989  0.2359  0.0777
16932W        W35136  17.907   3.236   4.606 -0.1440  0.0950 -0.0531
16933W        W35137   8.472   2.061   1.006  0.3084 -0.0478 -0.0521
16934W        W35138   4.103  13.352   0.173  0.1713 -0.0427 -0.0939
16935W        W35139   1.839  11.060  11.876 -0.0153  0.1953 -0.1306
16936W        W35140  10.368  11.986  12.670 -0.0313 -0.0131 -0.0108
16937W        W35141   1.357   5.110  14.812 -0.1607  0.0685 -0.1111
16938W        W35142   1.699  12.785   2.548 -0.0164  0.1696  0.0734
16939W        W35143   1.477   4.090   1.385 -0.0526  0.2606 -0.2206
16940W        W35144   3.213  10.195   4.647  0.3512 -0.0679 -0.0824
16941W        W35145   1.353   4.609  13.776  0.2687  0.2584 -0.1668
16942W        W35146  10.920  11.017   3.964  0.0161 -0.1035 -0.1369
16943W        W35147   0.160  11.388   1.020  0.0850 -0.0902  0.1312
16944W        W35148  10.248   2.871  11.182 -0.0117  0.2051 -0.0506
16945W        W35149   5.796  12.982   2.050  0.0955  0.1345 -0.0719
16946W        W35150  12.578  12.578  13.744  0.1119 -0.1199  0.1961
16947W        W35151  12.423  10.645   2.952 -0.0663  0.2084  0.2439
16948W        W35152  17.666  12.730  12.773 -0.2477 -0.0051 -0.0726
16949W        W35153  16.601  16.477  13.393  0.0699 -0.2242 -0.1108
16950W        W35154  11.005  11.464  11.973  0.0002 -0.1705 -0.2172
16951W        W35155  11.322   4.785  15.237  0.0967 -0.1895 -0.0042
16952W        W35156   9.130  16.844  14.604 -0.0420  0.1802 -0.0172
16953W        W35157   5.278   4.839   1.077  0.1580  0.1439  0.0201
16954W        W35158  14.663   1.200  14.697  0.0695  0.0460  0.1104
16955W        W35159  17.255   7.739   4.236  0.0499  0.1379 -0.0422
16956W        W35160  14.879  12.940   0.200 -0.0209  0.1854 -0.1766
16957W        W35161   8.878  12.240  14.352 -0.1936  0.1491 -0.0642
16958W        W35162  11.412  14.644  13.107 -0.0900 -0.4781 -0.1278
16959W        W35163   3.558   6.446  12.388 -0.1932 -0.2524  0.0343
16960W        W35164  11.685  16.218  13.315  0.0829 -0.0955 -0.4650
16961W        W35165   6.551  13.272  15.277 -0.1688  0.0042 -0.0460
16962W        W35166  18.293   1.025   0.134 -0.0960 -0.0677  0.2395
16963W        W35167  12.833   0.577  14.436 -0.1150 -0.2199 -0.2133
16964W        W35168   7.547   1.400  11.451  0.2602 -0.1128  0.3893
16965W        W35169  15.209  10.091   0.641  0.2056 -0.0961 -0.0349
16966W        W35170  13.277  10.875   3.682  0.1766  0.0703  0.2739
16967W        W35171   4.911   0.371  12.535 -0.2338  0.3273 -0.0609
16968W        W35172   0.792  12.110  14.428 -0.2502  0.2692 -0.1919
16969W        W35173   3.600  10.908  11.668  0.0753 -0.2334 -0.1389
16970W        W35174   6.191   9.468  12.972 -0.3580  0.1100  0.2300
16971W        W35175   2.561   5.980  14.708 -0.0666  0.0118  0.1691
16972W        W35176   6.780   4.966   1.201 -0.0659 -0.1393  0.0896
16973W        W35177   4.121   6.255   1.738  0.0531  0.2863 -0.1500
16974W        W35178   5.159  14.565  14.133 -0.0741 -0.0400  0.2801
16975W        W35179   7.672   0.929   2.967  0.1314 -0.2079 -0.1908
16976W        W35180   4.972  17.699   1.046  0.0544 -0.1658 -0.2098
16977W        W35181   5.143   8.993   1.709  0.4781  0.2710  0.0984
16978W        W35182  11.978  17.642   3.387  0.1434  0.0466 -0.1507
16979W        W35183  13.714  14.496   2.732  0.2098 -0.1141 -0.0125
16980W        W35184  11.796   8.041   4.724  0.1520 -0.1245  0.0963
16981W        W35185  18.652   4.780  11.295 -0.1178 -0.3777  0.0012
16982W        W35186   3.095   9.106   1.652 -0.1152 -0.0877  0.2189
16983W        W35187  15.013  12.436  14.399 -0.0582  0.2498  0.3284
16984W        W35188  11.446  16.595  12.426 -0.4146  0.0067 -0.1626
16985W        W35189  12.447   4.988  13.727  0.1563 -0.1047 -0.1907
16986W        W35190   5.962   0.015  11.207 -0.1864 -0.1419 -0.1091
16987W        W35191  16.116  11.704  14.751 -0.5049 -0.2788  0.0937
16988W        W35192   4.304   6.065   4.864 -0.1040  0.2743  0.2024
16989W        W35193   6.848   8.819  11.833 -0.0787  0.1396  0.0427
16990W        W35194  18.199   2.842   4.756 -0.1870 -0.1148 -0.0840
16991W        W35195   6.727  14.435  14.801 -0.1478 -0.1960 -0.2112
16992W        W35196  12.649  11.074   9.779  0.2983  0.0225 -0.0424
16993W        W35197  14.480  15.133  14.419  0.2820 -0.0820 -0.1870
16994W        W35198   0.186  16.598   2.680  0.2113  0.0478 -0.0307
16995W        W35199   3.826  11.225   5.351  0.0867 -0.2026  0.1783
16996W        W35200  18.248   4.323  13.085 -0.0506 -0.4143 -0.0547
16997W        W35201   9.375   5.813   3.338  0.1022  0.0401  0.2129
16998W        W35202  11.854   3.653  11.225  0.0080  0.2716 -0.1981
16999W        W35203  13.480  10.413  13.428 -0.1641  0.0311  0.0429
17000W        W35204  13.231   3.512  11.151  0.0222 -0.0046  0.0275
17001W        W35205   0.958   0.334   2.979  0.0348 -0.0668  0.0409
17002W        W35206   5.303   9.794  14.392 -0.2551  0.0606  0.1608
17003W        W35207   9.948   1.875  13.978  0.1819  0.2332  0.1054
17004W        W35208  15.127   9.648  13.675 -0.1123  0.3594  0.0733
17005W        W35209  11.214  12.969  14.558  0.1243 -0.4462  0.1573
17006W        W35210   7.594  16.696   2.087  0.3535  0.1743  0.0005
17007W        W35211  10.119  18.340  14.779 -0.4844 -0.0584  0.1733
17008W        W35212   0.021  13.395   3.684  0.0851  0.0930  0.0036
17009W        W35213   4.227  14.631  15.381 -0.0438 -0.1206  0.1204
17010W        W35214   6.806   5.846   1.640 -0.1042  0.1479  0.3271
17011W        W35215  16.671  18.114  15.204 -0.0164  0.0982  0.1049
17012W        W35216   1.504  18.310  12.745  0.1637  0.1007  0.1447
17013W        W35217   8.954   9.956   4.310  0.3503 -0.0615 -0.1229
17014W        W35218   1.727  17.967   1.989 -0.0466 -0.3082 -0.0012
17015W        W35219  16.764   8.818   0.740 -0.0935 -0.1139 -0.2969
17016W        W35220   4.413   2.521  11.427 -0.1883 -0.1719 -0.1711
17017W        W35221   6.140   1.447   1.297 -0.0093  0.4933 -0.0304
17018W        W35222  13.259   6.587  13.089 -0.0941 -0.0293 -0.3118
17019W        W35223  17.101  15.834   2.550  0.2828 -0.1267 -0.4132
17020W        W35224   3.630  15.021   2.706 -0.0886 -0.1230 -0.3043
17021W        W35225   6.188   5.493   0.517 -0.3100  0.0349 -0.1272
17022W        W35226  17.848   4.653  10.438 -0.1262  0.0320 -0.0807
17023W        W35227   1.439   0.441  14.041  0.1665  0.3560  0.0347
17024W        W35228  17.016  17.267   1.433  0.1987  0.0807  0.1555
17025W        W35229  11.710   5.994  11.990 -0.3399 -0.3845  0.1812
17026W        W35230   5.762  13.595   2.839  0.2795 -0.1297  0.0034
17027W        W35231  17.801   7.951   1.164 -0.1196  0.0043 -0.2054
17028W        W35232   8.528   8.130   0.043  0.2433 -0.3525  0.0733
17029W        W35233  13.667  14.470   4.389  0.2937 -0.0945 -0.1748
17030W        W35234   8.012   3.220  15.168 -0.1276  0.1610 -0.5074
17031W        W35235   6.584  15.160  15.336 -0.0798 -0.1306  0.2658
17032W        W35236   1.273  15.531   2.603 -0.0750  0.3591  0.1352
17033W        W35237  15.825  14.028  11.792 -0.0716 -0.1063  0.1571
17034W        W35238   0.821  17.249  10.085  0.2662  0.1697  0.0900
17035W        W35239  12.501  12.701  11.951 -0.0446 -0.0013 -0.2935
17036W        W35240   7.875  11.748  14.448  0.0324 -0.2266  0.0040
17037W        W35241   7.733  17.120  10.831 -0.1208 -0.1908  0.2673
17038W        W35242   2.955  14.857  14.447  0.0192  0.0648  0.0458
17039W        W35243   1.255  10.094   9.610  0.1350  0.4470  0.4299
17040W        W35244   6.516  13.446   1.468  0.2451 -0.0587  0.0383
17041W        W35245   7.673  14.100  14.373  0.0540 -0.3598 -0.1575
17042W        W35246   1.213   2.097  12.714 -0.1391 -0.1729  0.0781
17043W        W35247  16.341   6.722   5.230 -0.0211 -0.3335  0.0597
17044W        W35248  10.988   3.134  12.439  0.0160 -0.0858 -0.2370
17045W        W35249   4.884   9.921   2.982 -0.2652  0.2997  0.0522
17046W        W35250  12.170   2.514  10.729 -0.1466  0.0930  0.1740
17047W        W35251  18.182   9.577  12.259  0.0480  0.0765  0.1565
17048W        W35252   3.315  11.816   2.856 -0.0839 -0.0761  0.1510
17049W        W35253  14.593  15.539  13.095 -0.0007  0.0278 -0.1475
17050W        W35254   7.737  13.616   0.263  0.0180 -0.0166  0.0291
17051W        W35255   2.410   7.848  11.935  0.0391  0.3665  0.1942
17052W        W35256  14.350   5.284   4.430 -0.3226 -0.0787 -0.1610
17053W        W35257  15.834  13.442   4.391 -0.1004 -0.2120 -0.0982
17054W        W35258   3.747  15.742   3.468  0.0265 -0.0577  0.1969
17055W        W35259  13.003   0.417   4.915  0.0524 -0.1821 -0.1151
17056W        W35260  11.687   0.614  11.481 -0.1555 -0.0645  0.1112
17057W        W35261   0.863  17.423   5.059 -0.2662  0.6159 -0.4307
17058W        W35262   4.574  15.485   0.432 -0.3349  0.1828  0.0733
17059W        W35263  15.296   8.425   5.157  0.2862  0.1508 -0.0689
17060W        W35264  17.456  10.143  12.618  0.1159 -0.2000  0.0353
17061W        W35265   4.563   3.824  12.655 -0.1220 -0.2187  0.2025
17062W        W35266   9.028   0.508  14.464  0.0969  0.1921  0.0170
17063W        W35267  17.256  11.335  11.303 -0.0154 -0.1651 -0.1955
17064W        W35268  11.692   6.529  11.249  0.0405 -0.0309 -0.1769
17065W        W35269   0.290   0.017   1.053 -0.1452 -0.0068 -0.3328
17066W        W35270   7.940   8.229   1.159  0.0758  0.0756  0.0554
17067W        W35271   3.211   7.943  12.484 -0.0247 -0.1498  0.0164
17068W        W35272   3.713  14.066   1.773  0.1617  0.3066  0.2681
17069W        W35273   2.577  15.118   3.658 -0.0417 -0.2908  0.1178
17070W        W35274   1.401   1.130  13.111  0.3282 -0.1377  0.1988
17071W        W35275   6.635   7.132  11.871  0.2773 -0.2260 -0.3545
17072W        W35276   5.461  15.899  13.532 -0.3958  0.0066  0.2177
17073W        W35277   3.145  11.214   1.631 -0.4590 -0.0701  0.0327
17074W        W35278   5.423   5.338   2.226  0.0139  0.1516  0.3225
17075W        W35279   7.183   9.704   2.213  0.0397 -0.2417  0.1934
17076W        W35280   1.467   8.923   2.940  0.3800 -0.0689  0.1604
17077W        W35281   9.783   8.450  11.957  0.1554 -0.2672 -0.0010
17078W        W35282   2.470  17.232  14.068  0.0489  0.3535 -0.4965
17079W        W35283  17.213   3.464   2.997 -0.1316 -0.0493 -0.0963
17080W        W35284  13.922  12.076   2.280  0.1492  0.0818 -0.1781
17081W        W35285   6.965  11.536  10.144 -0.1296 -0.1361  0.1231
17082W        W35286   5.418   4.691   0.117  0.2969  0.2405  0.0591
17083W        W35287   6.797  18.293   3.360  0.0440  0.0566 -0.2057
17084W        W35288  12.770   7.133  12.506 -0.0087 -0.1114 -0.1078
17085W        W35289  16.176   8.296  14.877 -0.2213 -0.2861  0.2538
17086W        W35290   9.481  14.311   2.531  0.1583  0.0416  0.2653
17087W        W35291   2.160   7.766   1.072 -0.1793  0.0311  0.0025
17088W        W35292  11.130  15.672   3.857 -0.1028  0.1814 -0.0493
17089W        W35293  14.042   1.806  13.789  0.2915 -0.0923  0.0009
17090W        W35294  16.905   4.936   3.530 -0.1422  0.2746  0.0122
17091W        W35295   7.090  10.311  11.373 -0.1925  0.2116  0.2834
17092W        W35296  17.811  11.540   3.794  0.1583 -0.1591  0.1838
17093W        W35297   9.481   4.077  14.651  0.2126 -0.0122  0.5326
17094W        W35298   6.040   4.004   0.056  0.1197  0.1644 -0.2572
17095W        W35299   6.332  11.449   4.669 -0.0412 -0.0415  0.0266
17096W        W35300  11.065  18.567  15.468 -0.0537 -0.4490  0.0957
17097W        W35301   1.263   3.057   2.373  0.0948  0.0285 -0.0776
17098W        W35302  14.320   9.940  12.246  0.2673 -0.1020  0.2860
17099W        W35303  15.784   6.006   3.559 -0.0911  0.4005  0.2093
17100W        W35304  13.142  18.680   4.231  0.0430 -0.0493  0.4557
17101W        W35305   6.310   1.251  12.915 -0.3801  0.0305 -0.1168
17102W        W35306   4.655  14.398  11.899  0.2689 -0.1331 -0.2561
17103W        W35307  13.034   5.163  12.115 -0.3142 -0.3114 -0.0084
17104W        W35308  10.116  11.490   2.635  0.1270 -0.1166 -0.0707
17105W        W35309   9.477   8.071   0.431  0.2416 -0.1747 -0.1213
17106W        W35310  10.224   4.721   1.895 -0.0353  0.2564  0.1529
17107W        W35311  10.484   1.550  14.497 -0.1864 -0.0742  0.0393
17108W        W35312  15.172   1.536  12.166  0.0992 -0.4595  0.0937
17109W        W35313   2.955   0.906  12.047 -0.1198 -0.2028 -0.0861
17110W        W35314   1.440  12.814  14.170 -0.1269 -0.1345 -0.1961
17111W        W35315  12.644  13.393  14.677  0.0288  0.0525 -0.0630
17112W        W35316   9.130  10.349   2.173 -0.2481 -0.1271  0.2363
17113W        W35317  10.181   4.474  10.930  0.3627  0.0142 -0.1314
17114W        W35318   0.118  10.493  15.237  0.0528  0.1562  0.2682
17115W        W35319   5.353  13.555   4.110 -0.1250  0.2614  0.2577
17116W        W35320  12.556  13.083   3.905  0.0516 -0.1207  0.0972
17117W        W35321  12.264  17.330   1.294 -0.0843  0.1357  0.0699
17118W        W35322   3.966   8.111  13.499  0.3882 -0.0614  0.1806
17119W        W35323   1.976  16.970  15.118  0.0010 -0.1768  0.1385
17120W        W35324   3.100   3.067   3.374  0.0739  0.1788  0.4781
17121W        W35325  13.758   8.438   5.633  0.0682  0.0444 -0.1551
17122W        W35326  17.723   9.649  14.675  0.0876  0.0548  0.3880
17123W        W35327   1.008   9.439  14.543 -0.0248 -0.1962  0.0884
17124W        W35328  11.288  14.956  15.170  0.0797  0.1130  0.2702
17125W        W35329   6.968   0.004   4.572  0.1902  0.0696 -0.0117
17126W        W35330  13.479   2.848  14.100  0.1420  0.0393 -0.2472
17127W        W35331   1.561   8.876   0.008  0.1776 -0.0278 -0.0069
17128W        W35332  14.432  10.432   1.778 -0.1589 -0.1682  0.0056
17129W        W35333  16.631  15.353  12.493 -0.1002  0.0659  0.3600
17130W        W35334  13.835   5.118   4.311 -0.1227 -0.3637  0.1940
17131W        W35335   2.048   1.603   3.542  0.1191 -0.0117 -0.1665
17132W        W35336  18.679   5.469   2.459  0.1481  0.0914 -0.0863
17133W        W35337   7.603  10.119  14.394  0.1231  0.0359 -0.1980
17134W        W35338  12.197  18.176   4.075  0.0601  0.0977 -0.1319
17135W        W35339  15.828  14.233   1.418  0.1782  0.1695  0.1493
17136W        W35340  15.467  17.085   1.135 -0.0076  0.0072 -0.0602
17137W        W35341   5.049  12.130  13.287  0.0233 -0.0118  0.1427
17138W        W35342   2.198  16.664   5.628 -0.0270  0.1398 -0.0833
17139W        W35343  10.796  10.812  11.524 -0.0001 -0.0022  0.0812
17140W        W35344  13.814   6.563  13.830 -0.0179  0.2429 -0.2804
17141W        W35345   0.781   0.905   3.826 -0.2163 -0.0109  0.0731
17142W        W35346   9.401  17.079   3.901  0.2482 -0.3394  0.0903
17143W        W35347  15.233   4.136   2.320 -0.1529  0.0007 -0.0470
17144W        W35348   6.807   1.948  12.310  0.3140 -0.3092 -0.0466
17145W        W35349  13.329   0.474   3.383 -0.2771  0.1188  0.0301
17146W        W35350  13.009  12.209   0.317  0.1425  0.0604  0.0379
17147W        W35351   7.562   4.449   0.351  0.1682  0.0236 -0.2263
17148W        W35352  15.844  17.744   2.307  0.0666  0.0808  0.0370
17149W        W35353  13.847   7.128   0.483  0.0170 -0.0904  0.1071
17150W        W35354  18.522  17.575  11.076  0.0119  0.0771  0.2834
17151W        W35355   4.778   0.293   2.024  0.2350 -0.1236 -0.1304
17152W        W35356  16.989   4.297  14.720 -0.2546 -0.0502  0.2184
17153W        W35357  13.522  15.074   4.004 -0.0371  0.2425  0.1369
17154W        W35358  11.415   2.535  13.786  0.3406  0.2834 -0.0825
17155W        W35359   6.009   9.369   2.573  0.4470  0.0086 -0.4489
17156W        W35360   8.141   2.140   4.263 -0.1296  0.1821  0.1871
17157W        W35361   2.211  13.941   1.747  0.0168  0.1991 -0.1062
17158W        W35362  16.981  17.183  11.262 -0.1299 -0.3696 -0.3698
17159W        W35363   7.852   2.373   0.467  0.4246  0.0708  0.2870
17160W        W35364  11.076   1.071  12.733  0.0551  0.0046 -0.0005
17161W        W35365   1.781   2.888  14.782 -0.2619  0.1545  0.0617
17162W        W35366  18.503  17.861  12.003  0.4288 -0.0852  0.2519
17163W        W35367  18.473   7.050   4.556 -0.2041  0.0625 -0.0018
17164W        W35368   0.457  14.014  12.175  0.2625 -0.5539 -0.0845
17165W        W35369  11.215  17.026   0.509  0.3933 -0.2027 -0.2076
17166W        W35370  16.496   0.462   0.151  0.0365 -0.1247  0.4062
17167W        W35371  10.241  17.401  12.477 -0.0749 -0.2211  0.1207
17168W        W35372  12.454  12.341   1.364 -0.2005  0.2856 -0.3458
17169W        W35373  18.135   9.574  11.006 -0.1738 -0.0624  0.0579
17170W        W35374   7.158  11.358   3.534  0.1818 -0.0800  0.0036
17171W        W35375   1.384   7.909  14.378  0.0507 -0.0459  0.0766
17172W        W35376  15.005   3.368  12.901 -0.0391 -0.1180 -0.3018
17173W        W35377  11.472   8.032  14.242 -0.0129 -0.2951 -0.1779
17174W        W35378   5.834   0.881  11.436  0.2755 -0.1398  0.1564
17175W        W35379   9.359  13.963   3.533  0.0244 -0.4328  0.1379
17176W        W35380   0.955  11.427  11.980 -0.0283  0.2387  0.0310
17177W        W35381  14.429  13.122  15.257 -0.1762  0.3170  0.0688
17178W        W35382   6.385  11.671  13.334 -0.2350  0.0051 -0.0983
17179W        W35383   7.895   6.792   2.372 -0.0820  0.0713 -0.1990
17180W        W35384   5.264   6.600   2.561  0.2866  0.1548  0.1930
17181W        W35385   4.134  15.428  14.104  0.2635 -0.3982  0.0644
17182W        W35386  16.259   7.593   2.861 -0.0675  0.3572 -0.1978
17183W        W35387   2.368   5.045   1.480  0.1145  0.1383  0.0883
17184W        W35388  18.112  16.767  10.602  0.2433 -0.0691  0.1511
17185W        W35389   4.520   0.445   3.368 -0.2354 -0.1286  0.1081
17186W        W35390   3.399   2.024   0.017 -0.1386 -0.3623 -0.1441
17187W        W35391   9.320   8.657  14.562 -0.0707 -0.0334  0.0053
17188W        W35392  12.249   4.955   1.082  0.0302  0.0823  0.0237
17189W        W35393   3.456  11.236   5.028  0.0300  0.0344 -0.0834
17190W        W35394   9.780   7.571  15.035  0.0504 -0.0888  0.4791
17191W        W35395   3.949  14.989   5.614  0.2137  0.1447  0.2177
17192W        W35396   9.163   4.599  11.969 -0.2614 -0.0461 -0.2056
17193W        W35397  14.862   9.920   1.015 -0.0460 -0.0370  0.3693
17194W        W35398   2.715  12.788   0.691  0.0251 -0.3188 -0.2231
17195W        W35399   8.116  12.163   3.153 -0.0022  0.2401 -0.2465
17196W        W35400   2.830  16.870  15.285 -0.0854  0.0227  0.1526
17197W        W35401  18.130   5.402  15.341 -0.2044  0.0155 -0.0247
17198W        W35402  15.195  13.557   1.885  0.0035 -0.1300  0.3164
17199W        W35403   0.431   2.489   3.747  0.1326  0.0772 -0.0287
17200W        W35404  17.685   5.362   4.067  0.0904 -0.2563  0.2719
17201W        W35405  18.343  13.062   1.171  0.1585  0.1970  0.1156
17202W        W35406   9.986  12.876   3.949 -0.0379  0.3943  0.0045
17203W        W35407  18.392   6.426  10.977 -0.1434 -0.0787  0.3294
17204W        W35408   2.277   6.265   1.313  0.0414 -0.0362  0.2440
17205W        W35409   5.734   8.956  14.334 -0.0587 -0.2279 -0.1424
17206W        W35410   9.980   6.495   3.372 -0.1314 -0.1541  0.0002
17207W        W35411  16.396   9.902   1.073  0.0089 -0.1065  0.1367
17208W        W35412   1.452   5.568   4.368 -0.2200  0.2501 -0.1762
17209W        W35413  14.884  14.581  10.231  0.1154  0.1727  0.1910
17210W        W35414  10.618  10.403  12.773  0.2815 -0.0119  0.4090
17211W        W35415   3.616   8.242   3.623  0.1281  0.0318  0.1145
17212W        W35416   4.340   5.311   2.016 -0.0334  0.0807  0.0687
17213W        W35417   3.492  15.596   2.522 -0.2380 -0.0268 -0.0313
17214W        W35418  10.027  15.524   2.235 -0.1013 -0.0431  0.2216
17215W        W35419  12.895   1.703   4.068 -0.1858 -0.0234  0.0054
17216W        W35420  12.506  17.096  14.114 -0.0217 -0.3523 -0.4875
17217W        W35421   0.195   3.218  15.342 -0.2235 -0.0786 -0.3056
17218W        W35422   8.787  16.953   0.290  0.1050  0.1393  0.2954
17219W        W35423   0.657   4.188  14.519  0.0399 -0.0918  0.0705
17220W        W35424   7.026   8.439  12.107  0.0094 -0.0756  0.1807
17221W        W35425   1.460  14.081   0.737  0.1496  0.1962  0.2100
17222W        W35426  12.245  13.670   0.800  0.2804  0.2026  0.1755
17223W        W35427   9.603   2.840   0.409  0.1366  0.4799 -0.0538
17224W        W35428   3.778   7.343   4.274  0.0082 -0.0814  0.0719
17225W        W35429   1.379  16.701   5.581 -0.2017 -0.2542  0.2813
17226W        W35430  11.857   9.593   4.774  0.0806 -0.1908 -0.0157
17227W        W35431  13.404  14.978   0.148  0.1480  0.0149  0.2311
17228W        W35432   0.806  12.987   2.579  0.2786  0.0356 -0.2480
17229W        W35433   1.165   3.745   1.977  0.0764 -0.1098  0.1215
17230W        W35434   2.532   5.221  10.121 -0.0277  0.0512 -0.4164
17231W        W35435   6.043   5.817   2.996  0.0276 -0.3065 -0.0921
17232W        W35436   5.852   5.285  14.792  0.0895  0.2008  0.0268
17233W        W35437   0.398   6.226  14.512 -0.1179  0.3187  0.1862
17234W        W35438  17.980  11.569   4.251  0.2742 -0.0932  0.1011
17235W        W35439   1.591   2.174  13.030 -0.0589  0.1591  0.0178
17236W        W35440  17.867   2.396   2.075  0.1175 -0.1611  0.1419
17237W        W35441   5.203  16.973   2.876 -0.3482  0.2673  0.3814
17238W        W35442  10.550   4.030  12.004 -0.2266  0.0693 -0.1184
17239W        W35443   1.857  12.360   5.323 -0.1589  0.3539 -0.3199
17240W        W35444   1.763   0.794  12.353 -0.2442  0.0848  0.0039
17241W        W35445   9.385   8.462  13.529 -0.0426  0.2426  0.0759
17242W        W35446   0.403   0.381  11.981 -0.2509 -0.0647 -0.0931
17243W        W35447   9.134  11.204   3.642 -0.2652  0.1479  0.1062
17244W        W35448   6.121   4.151   3.415  0.0748 -0.0024 -0.1520
17245W        W35449   9.647   6.349  12.056 -0.0045  0.0238  0.0170
17246W        W35450   2.968   5.713  12.536 -0.2056 -0.1793 -0.1337
17247W        W35451   9.073   4.843   2.301 -0.0557 -0.0209 -0.0133
17248W        W35452   4.702  15.457  14.979 -0.0445 -0.1856  0.0133
17249W        W35453   9.023   8.443   2.762  0.0577  0.2334 -0.1034
17250W        W35454  15.722  10.493  14.690  0.2889 -0.3771 -0.0569
17251W        W35455   8.457  14.341  12.794 -0.0377 -0.1096  0.0691
17252W        W35456   9.025   8.161  15.429  0.3123  0.2688  0.3295
17253W        W35457  17.227  10.868  12.598  0.1642 -0.1907  0.0215
17254W        W35458  14.153   1.755   2.447 -0.3480  0.0078 -0.2004
17255W        W35459   1.405  17.021   3.022  0.3587  0.0894  0.0784
17256W        W35460  18.403   9.036  15.467 -0.2765 -0.1430 -0.0148
17257W        W35461   4.158   8.443   3.584 -0.0906 -0.2852 -0.0501
17258W        W35462   7.131  16.795  11.905 -0.0401 -0.1733 -0.2396
17259W        W35463  17.466  15.255   1.118  0.0446 -0.0753 -0.0097
17260W        W35464   9.344  15.510   1.472  0.0892 -0.0434  0.2196
17261W        W35465  16.652  14.475  14.945  0.0393 -0.3516  0.3412
17262W        W35466   9.160   7.283  11.537  0.0738  0.0494  0.1109
17263W        W35467   4.332   7.378   1.702 -0.0176  0.1609  0.2613
17264W        W35468  17.853   8.107   1.813 -0.1391 -0.2150 -0.0134
17265W        W35469  18.507  10.785  13.603 -0.0394  0.2225 -0.1679
17266W        W35470  16.830   5.829   1.875 -0.1388  0.2826 -0.2007
17267W        W35471   0.240   5.548   2.018  0.3161  0.0843  0.1507
17268W        W35472   3.678   8.513  13.189  0.1684  0.0738  0.1247
17269W        W35473  16.073   3.047  11.451  0.0957  0.3268  0.1545
17270W        W35474   4.199   4.498   4.217 -0.1506  0.0144  0.0801
17271W        W35475   4.050   8.231  12.994  0.0829 -0.4585  0.1234
17272W        W35476   5.213   8.189  11.044  0.0529  0.3516  0.0465
17273W        W35477  12.570  16.735   0.835 -0.3787 -0.1037  0.2028
17274W        W35478  10.800   4.875  11.820 -0.2015  0.0030  0.1601
17275W        W35479   8.479  18.126   0.845  0.0852  0.0858 -0.1839
17276W        W35480   6.663  15.430  14.827  0.0469  0.0854 -0.0755
17277W        W35481  15.702   3.533  12.328  0.0012  0.2727  0.0193
17278W        W35482   6.989   9.361  11.905 -0.3083  0.0546 -0.1856
17279W        W35483  12.895   6.058   3.056 -0.0623  0.0411  0.0802
17280W        W35484  17.412   2.254  13.442 -0.2992  0.0834 -0.0019
17281W        W35485   0.994   6.951   1.139  0.0009 -0.3352  0.0587
17282W        W35486   1.017  13.935  15.272  0.1614 -0.2096 -0.2525
17283W        W35487   8.654  12.426  12.552 -0.0446 -0.0834  0.4435
17284W        W35488  16.795   9.962  15.325  0.2219  0.1561  0.0694
17285W        W35489  13.823   1.161  14.280 -0.1504  0.1130  0.0933
17286W        W35490   6.856  12.249   5.489 -0.0846  0.3687  0.2889
17287W        W35491   5.099   1.397   0.797 -0.0291 -0.1912  0.0187
17288W        W35492  18.248   1.527   1.888  0.2407  0.1707 -0.3711
17289W        W35493  11.353  11.019   1.491  0.1272 -0.0227  0.1913
17290W        W35494   3.517   5.434   2.365 -0.0320 -0.0805  0.0150
17291W        W35495   5.207  18.401  13.510  0.0592 -0.1209 -0.3811
17292W        W35496   5.628   6.658  13.548  0.0453  0.1038  0.0697
17293W        W35497   4.782  18.098   2.347 -0.1219  0.1748 -0.2629
17294W        W35498  12.090  16.184   0.196 -0.1640 -0.1624 -0.2401
17295W        W35499   6.070  10.263  14.583  0.0624  0.1282 -0.1301
17296W        W35500   1.199   7.328  13.044 -0.1545  0.1104 -0.0185
17297W        W35501  10.159  17.588   2.082  0.1185 -0.2501  0.1272
17298W        W35502   2.266   3.030  14.557 -0.1184 -0.0384  0.1976
17299W        W35503  13.587   0.187  15.291 -0.1822  0.2297  0.2589
17300W        W35504   2.127   3.342  14.135 -0.4121 -0.5962  0.1533
17301W        W35505   7.652   0.707  10.498  0.0427 -0.3565 -0.3333
17302W        W35506   1.100   6.073   1.491  0.0100  0.0264  0.3000
17303W        W35507  14.558   0.169  14.275  0.3303  0.1410 -0.1033
17304W        W35508  12.640   7.932  15.026 -0.0681 -0.0271 -0.1843
17305W        W35509   1.543   0.656  13.238  0.1298  0.1903  0.1581
17306W        W35510  13.622  18.473   1.701  0.0102  0.4065 -0.1857
17307W        W35511   5.851  14.064   0.964 -0.0201  0.1236  0.0672
17308W        W35512  11.407   7.698   1.463  0.4425 -0.1663 -0.0377
17309W        W35513   7.785  13.301   4.750  0.0654  0.2068  0.1074
17310W        W35514   3.562  10.456   4.417  0.0084 -0.2617  0.1641
17311W        W35515  13.605   9.488   3.034  0.4516 -0.1034  0.2824
17312W        W35516  15.618   8.537  10.346  0.1317  0.0862  0.0695
17313W        W35517   9.678   9.012  11.119 -0.0683 -0.0893 -0.0017
17314W        W35518  13.549  10.760   2.453 -0.0932  0.1151  0.1128
17315W        W35519   7.041  10.141  13.214 -0.2548  0.2839 -0.0147
17316W        W35520  10.681   9.826   1.013  0.3655  0.2966 -0.1953
17317W        W35521   5.827   2.410   4.312  0.1580 -0.1652 -0.1942
17318W        W35522   1.206  14.239  11.697 -0.0781  0.2705  0.3173
17319W        W35523   4.428  15.881  12.284  0.0558  0.4753  0.2079
17320W        W35524   4.394  15.916  11.501  0.0543  0.2200 -0.0591
17321W        W35525   5.783   5.150   2.526 -0.1207  0.1657 -0.1590
17322W        W35526  17.929  11.001  13.075 -0.0054 -0.1073  0.3499
17323W        W35527  11.220  13.781  11.997 -0.2117  0.0046 -0.2584
17324W        W35528   5.086   4.610   0.567  0.1038  0.3129 -0.3049
17325W        W35529  16.501   9.955  11.419 -0.2472  0.2207 -0.1744
17326W        W35530   5.490   9.058   0.594 -0.1396  0.2889  0.3509
17327W        W35531   5.688   8.264   1.263 -0.1591  0.3826  0.0982
17328W        W35532   1.548   1.032  15.061  0.1182 -0.0531  0.0481
17329W        W35533   1.580  11.213  13.198  0.0662  0.0701  0.2560
17330W        W35534   8.288   0.387   3.449  0.0807  0.1522 -0.0980
17331W        W35535   9.922  12.002  11.787 -0.0198 -0.0503 -0.0215
17332W        W35536  10.975  15.369   1.021  0.0380 -0.1499 -0.0871
17333W        W35537  12.894  13.893   2.316  0.4133  0.1004  0.2382
17334W        W35538  18.055  17.308   4.647  0.0307  0.1176 -0.1889
17335W        W35539   3.809  11.670   1.054  0.1669 -0.1068 -0.1342
17336W        W35540   6.611  18.430  13.793 -0.1204  0.1249 -0.1059
17337W        W35541   0.948   1.016  13.434  0.2076 -0.0147  0.0951
17338W        W35542  12.686   2.183   0.887  0.4833  0.2195 -0.1772
17339W        W35543   5.462  17.719  11.272  0.2091  0.0763 -0.3144
17340W        W35544  17.370  17.995   4.672  0.1169 -0.3880 -0.1826
17341W        W35545   7.719  13.782  12.785  0.3548 -0.1922  0.1775
17342W        W35546   2.609  10.869  14.962  0.0278 -0.2966 -0.0332
17343W        W35547  15.949   9.600  14.151  0.1677  0.2125 -0.1622
17344W        W35548   3.407   9.827  15.375  0.1934  0.1621  0.0994
17345W        W35549   9.697  17.217   4.370  0.1729  0.2303  0.0666
17346W        W35550   0.152   9.336   4.317 -0.0786 -0.0810  0.1415
17347W        W35551  16.850  16.551  14.675 -0.0113  0.2595  0.0547
17348W        W35552  16.922   5.206   2.440 -0.0092  0.1207  0.1893
17349W        W35553  18.391  13.776   1.751  0.0759  0.1175  0.1508
17350W        W35554   4.848   0.403   0.137 -0.1773 -0.2079 -0.1410
17351W        W35555   5.601  18.598   0.490  0.1495 -0.0681 -0.3053
17352W        W35556   8.976   9.845   2.154 -0.0383 -0.0861 -0.0118
17353W        W35557   9.192   8.450  15.022 -0.2261 -0.1509 -0.5166
17354W        W35558   1.360  15.174  14.196  0.2750  0.0560 -0.0365
17355W        W35559  13.593  16.432   3.479  0.0445 -0.3222 -0.4868
17356W        W35560  12.365   0.380  12.404  0.1129 -0.1794  0.0318
17357W        W35561  17.076  11.372  13.780  0.2270 -0.0953 -0.3349
17358W        W35562  18.529  15.378   0.340  0.0330 -0.2097  0.0185
17359W        W35563   1.999  17.350  15.457 -0.2092  0.1521  0.4304
17360W        W35564  16.107  11.081   1.092  0.1446  0.0826 -0.4352
17361W        W35565   7.329  17.623   1.055  0.1067 -0.1132 -0.2659
17362W        W35566  18.091  12.466   3.847 -0.0724 -0.4171 -0.3468
17363W        W35567   7.379   7.609   0.878 -0.2299  0.0282 -0.0733
17364W        W35568   7.953   0.415  14.296 -0.2089  0.3245 -0.1248
17365W        W35569   3.039  10.541  15.025  0.3246 -0.2237  0.0807
17366W        W35570   3.447   1.166   4.626 -0.2835 -0.0994  0.1180
17367W        W35571  11.759  14.625  14.331 -0.1524 -0.0554  0.1805
17368W        W35572  11.410  11.255  13.212 -0.1456  0.1081 -0.0634
17369W        W35573   5.872   1.081   0.016  0.2049 -0.2184  0.2818
17370W        W35574  16.384   0.879   1.975  0.1576  0.2190  0.1199
17371W        W35575  11.327   4.842  13.030 -0.0009 -0.0716  0.1725
17372W        W35576   5.173   1.237   3.503 -0.0647  0.1088  0.3376
17373W        W35577  18.167   1.398   1.351  0.0469  0.0669  0.4830
17374W        W35578  15.573   7.947  12.007 -0.0040 -0.0160  0.1633
17375W        W35579  10.711  11.074   2.107 -0.1736 -0.4121  0.0090
17376W        W35580  12.158   7.622  13.136 -0.1419 -0.4344 -0.4354
17377W        W35581   4.709  14.483   0.919 -0.0182 -0.0990 -0.0869
17378W        W35582  14.648  12.603  12.388 -0.1351 -0.0115  0.2276
17379W        W35583   6.414   5.736  13.493 -0.0412 -0.0987  0.0341
17380W        W35584  10.286   9.981  13.954  0.0116  0.3232 -0.0828
17381W        W35585  17.159  17.115   2.237  0.3392  0.0232  0.3082
17382W        W35586  12.567  15.884   5.281  0.2181 -0.1425  0.1467
17383W        W35587   7.295   4.863   1.385  0.2858  0.2141  0.3828
17384W        W35588  10.767   0.855  12.362  0.1222 -0.1621  0.1391
17385W        W35589   8.779   0.564   3.211  0.0880 -0.0494  0.0438
17386W        W35590  13.489   8.013   1.528 -0.1349  0.2168  0.0888
17387W        W35591  14.359   0.698   4.377 -0.0922  0.1470  0.0217
17388W        W35592  12.687   0.446   0.337 -0.3325 -0.3561  0.4535
17389W        W35593   8.803   0.043   0.837  0.1789  0.2622 -0.2241
17390W        W35594   8.498   3.536   4.122  0.0109 -0.2045 -0.1840
17391W        W35595   1.862   3.709  12.608  0.0920 -0.3938 -0.0328
17392W        W35596  13.901   9.081  14.348  0.2438  0.1162  0.2806
17393W        W35597   0.673   5.208  11.069 -0.1040 -0.0416  0.1284
17394W        W35598  10.694   7.411  14.413 -0.0331  0.1351  0.2697
17395W        W35599  10.941   3.651   1.304 -0.4370  0.1865 -0.1551
17396W        W35600   4.497  16.508   3.460 -0.0045 -0.0520  0.2787
17397W        W35601  17.068   6.809  13.862  0.0178 -0.2210 -0.2261
17398W        W35602  11.968   8.275  12.269 -0.5155  0.2168 -0.1044
17399W        W35603  10.966   5.420  11.492  0.5954  0.0663  0.1638
17400W        W35604   3.704  10.282  13.831 -0.1250  0.0494  0.4776
17401W        W35605  15.903  17.803  14.649  0.1614  0.0310 -0.0295
17402W        W35606  10.463  15.711  10.159 -0.0641  0.2553 -0.1754
17403W        W35607  15.683   1.908   0.517 -0.1963 -0.1903  0.0662
17404W        W35608   9.980   4.472   1.269  0.0345 -0.2622  0.0368
17405W        W35609   9.952   5.731   3.806  0.1029  0.0655 -0.1304
17406W        W35610   9.662  12.602  14.593  0.0342  0.2824  0.3437
17407W        W35611   7.729   6.150  12.180  0.0615 -0.2636 -0.1320
17408W        W35612   8.298  11.623  10.981  0.0030 -0.0393 -0.0174
17409W        W35613   5.874   0.351   0.506 -0.1002  0.0229 -0.1049
17410W        W35614  11.420   9.968  13.372  0.1831 -0.1355  0.0876
17411W        W35615   4.417   9.573   0.724 -0.0591  0.1973  0.2249
17412W        W35616  13.688   3.758   0.441  0.2112  0.1872 -0.1369
17413W        W35617   4.582   8.439  13.874 -0.1576 -0.0741  0.0084
17414W        W35618   9.992   2.477  11.322  0.1550  0.1977 -0.0515
17415W        W35619   1.933   5.025   3.915 -0.0827 -0.1328 -0.0569
17416W        W35620   9.368  10.109  14.492 -0.0291 -0.1308  0.2847
17417W        W35621  18.394   2.494   0.763  0.0225  0.3758  0.1190
17418W        W35622   1.450  16.838  13.411  0.0252  0.1677 -0.0238
17419W        W35623  17.818   3.813  12.019 -0.0142  0.2644  0.1530
17420W        W35624  12.402  15.551  13.709  0.0584 -0.0413  0.1716
17421W        W35625   5.700   8.061  12.533  0.0260 -0.0105  0.2114
17422W        W35626  15.034   4.779   1.731  0.1427 -0.0451  0.2638
17423W        W35627  17.904   2.402   0.255 -0.0506 -0.2883  0.0768
17424W        W35628   0.158   8.385   2.945  0.1883  0.2674 -0.1835
17425W        W35629   9.752  12.640  13.612  0.0887 -0.1112  0.4116
17426W        W35630   1.077   4.232   0.510 -0.0984 -0.1538  0.3178
17427W        W35631   7.593  11.637  13.138  0.2805 -0.0885 -0.2132
17428W        W35632  16.599   6.916  14.801 -0.0049  0.1596  0.2450
17429W        W35633  11.805  10.143   2.020 -0.2347 -0.0798 -0.1860
17430W        W35634   6.294   7.886  11.377 -0.4866 -0.0752 -0.1029
17431W        W35635   0.097   2.478   1.533  0.3096  0.1889  0.0318
17432W        W35636   9.162   4.898  14.095  0.1438  0.1186  0.3345
17433W        W35637   5.399   7.890  11.616  0.0769 -0.0246 -0.0230
17434W        W35638   2.744  13.634   1.039 -0.3582 -0.2140 -0.2016
17435W        W35639   5.083   2.489   3.951 -0.2213  0.0045 -0.2444
17436W        W35640   4.774  12.830   0.688 -0.1367  0.2542 -0.0635
17437W        W35641   0.579   2.395   0.395  0.2174  0.2787  0.3058
17438W        W35642  18.610   1.311   1.592  0.3570  0.0838  0.2432
17439W        W35643   6.886   5.469  15.297  0.0036  0.4055  0.1470
17440W        W35644  14.201  11.539  14.758 -0.0208  0.0723  0.1014
17441W        W35645  18.055  15.094   2.590 -0.5429  0.0074  0.0619
17442W        W35646  12.016  12.487   1.726 -0.0636 -0.1641 -0.2023
17443W        W35647  11.657  15.989  11.803 -0.3551  0.0313  0.0512
17444W        W35648  17.742  13.780  14.367 -0.0905 -0.0618  0.1671
17445W        W35649   3.044   1.283  12.676  0.4710  0.0587 -0.3463
17446W        W35650   9.987  12.813  12.739  0.0479  0.1488  0.1125
17447W        W35651   6.938   2.623   3.054  0.1862  0.1401  0.1607
17448W        W35652   6.818  11.867   0.905  0.0166  0.2841  0.3318
17449W        W35653  18.432  16.034   1.907 -0.0040  0.2430 -0.0757
17450W        W35654   6.609  12.278   1.696  0.1866 -0.0252 -0.2564
17451W        W35655   0.894  17.133   0.787  0.0655 -0.1006 -0.0109
17452W        W35656   0.082   1.745  12.299  0.0037 -0.0071  0.1270
17453W        W35657   6.409  10.818  13.130  0.0244  0.1763  0.0923
17454W        W35658  11.136  12.441  14.810  0.0127 -0.1782  0.0817
17455W        W35659  15.549   4.356   1.293  0.0036  0.0912 -0.0760
17456W        W35660  14.003   4.631  13.823  0.1474 -0.0518  0.1980
17457W        W35661  12.182  13.852   3.089  0.0447 -0.0432 -0.1667
17458W        W35662   9.085   7.482   3.814 -0.4354 -0.2655 -0.4522
17459W        W35663  18.490   5.609   0.415  0.1917  0.0742 -0.0006
17460W        W35664  13.298   6.396   1.281  0.0601 -0.0093 -0.0745
17461W        W35665  18.060  13.182  14.706 -0.0427 -0.0705  0.1722
17462W        W35666   6.114  10.179   1.111  0.0760 -0.2836 -0.0343
17463W        W35667   5.410  11.901   0.134  0.3910 -0.0132  0.1224
17464W        W35668   4.142  17.606   4.491  0.1837  0.1253 -0.0406
17465W        W35669  12.253  16.465   3.114 -0.0666 -0.0804  0.0174
17466W        W35670  14.152   6.996  13.025  0.3030 -0.2625  0.0414
17467W        W35671   5.594  13.077  15.394 -0.0721  0.1026 -0.1143
17468W        W35672  18.032  15.654  11.743  0.0653 -0.3341  0.0227
17469W        W35673  16.681   6.864  15.410  0.0215 -0.4651  0.0227
17470W        W35674  11.066   3.727  14.516 -0.3155 -0.1245  0.3841
17471W        W35675  17.409  18.426   3.861 -0.0723 -0.4449  0.1185
17472W        W35676  10.028   4.406  15.400  0.0075 -0.2241 -0.0993
17473W        W35677   1.569   8.705   0.953 -0.1700  0.0892 -0.0286
17474W        W35678  10.440   2.301  11.949 -0.1637 -0.0776  0.0211
17475W        W35679  16.842  18.134  12.016 -0.0554 -0.0355  0.2734
17476W        W35680   6.300   7.549  10.997 -0.2100 -0.1860 -0.1528
17477W        W35681   9.749   4.197  14.254 -0.0890 -0.0113 -0.1918
17478W        W35682   6.552  12.071  12.573  0.2808 -0.0762 -0.1055
17479W        W35683  13.134   9.561   2.800  0.1631 -0.0457  0.2868
17480W        W35684   5.916  13.243  10.037 -0.0732 -0.0585  0.2230
17481W        W35685   7.934   3.126   1.663  0.2096  0.1121  0.4421
17482W        W35686   7.745   2.671  15.004  0.0717 -0.2198 -0.0891
17483W        W35687   5.758  14.783  12.734 -0.0148  0.1147 -0.0606
17484W        W35688   5.364  10.706  14.891  0.4186 -0.0509 -0.0703
17485W        W35689   6.574  11.063   2.697  0.1524 -0.3639 -0.2444
17486W        W35690   1.468  10.376  12.974  0.0693 -0.3282 -0.4479
17487W        W35691   8.173   9.307  15.424 -0.0918 -0.0730 -0.0474
17488W        W35692  17.234  15.012   3.398 -0.0545  0.3348 -0.0440
17489W        W35693  11.408   2.121  14.774 -0.3595  0.1157 -0.3565
17490W        W35694   7.270   1.903  11.632  0.2073 -0.0904  0.2498
17491W        W35695   8.799  18.425   5.366  0.1042 -0.1258  0.0966
17492W        W35696  13.150   0.320   0.172 -0.0113 -0.3866  0.2290
17493W        W35697   1.947   9.631  10.157 -0.0357 -0.2290  0.0050
17494W        W35698  15.832   9.460   2.421  0.2352  0.0743 -0.0585
17495W        W35699   6.289   8.414  15.134 -0.4035  0.1103  0.2072
17496W        W35700   4.405  16.986  13.766  0.1179 -0.0102 -0.1000
17497W        W35701  17.807   3.350  14.866  0.0732  0.3169  0.1150
17498W        W35702   7.748  15.561   2.067 -0.0307  0.1258  0.1798
17499W        W35703  16.470  15.032  13.156  0.1016 -0.0718 -0.2098
17500W        W35704   4.843   2.642   4.562  0.0815 -0.2681 -0.0951
17501W        W35705   6.279   7.339  12.778 -0.0784  0.2247 -0.3416
17502W        W35706   8.336  12.461   4.661 -0.0689 -0.0583 -0.3318
17503W        W35707  11.736  17.023   0.401  0.1507  0.1726 -0.1715
17504W        W35708   3.016  15.611  12.323  0.3173 -0.2256  0.4716
17505W        W35709   8.601  17.703  10.849 -0.0837 -0.1833  0.2927
17506W        W35710   7.977   4.819   4.213 -0.2318  0.1771  0.0994
17507W        W35711  10.011  12.093  15.448 -0.2643 -0.1552  0.0797
17508W        W35712  16.028  11.502  10.967 -0.0563 -0.1783 -0.0166
17509W        W35713   0.180  18.667   2.206 -0.0409  0.0190 -0.0429
17510W        W35714  14.788  12.642  13.608 -0.0798  0.1613 -0.1568
17511W        W35715  17.130  11.189  15.459  0.2412  0.2611  0.1884
17512W        W35716   8.880   3.395   2.829 -0.2516  0.2612 -0.0232
17513W        W35717  15.097   8.415   4.652 -0.1651 -0.0737  0.0764
17514W        W35718   9.508   2.260  15.117  0.1510 -0.2363  0.1046
17515W        W35719   8.901   8.138  10.816  0.0164  0.1727 -0.0200
17516W        W35720   6.860  12.266   4.241  0.2697 -0.0106 -0.0399
17517W        W35721  18.238  11.809  14.086  0.0567 -0.0592  0.0702
17518W        W35722  15.016   2.110  13.147  0.2373 -0.1925  0.0483
17519W        W35723  17.840  16.471  13.537  0.0659 -0.2986  0.0533
17520W        W35724   7.283  16.952  12.325 -0.2026 -0.0400 -0.1763
17521W        W35725  13.487  11.018   1.253 -0.2380 -0.0526  0.2872
17522W        W35726   0.980   4.628   2.021 -0.1003  0.2175 -0.3296
17523W        W35727  10.815  11.340  12.443 -0.0487  0.1895 -0.0443
17524W        W35728   2.479  16.102  10.858 -0.0026 -0.2418  0.0222
17525W        W35729  15.346   4.834  15.343 -0.0668 -0.0882 -0.0526
17526W        W35730   3.155  18.434   3.741  0.2372 -0.0155 -0.0168
17527W        W35731  15.415   9.908  13.323  0.2052  0.0782  0.0804
17528W        W35732   2.660  12.587   2.961  0.2017  0.0388 -0.1540
17529W        W35733  11.110  16.708  14.572 -0.0612  0.0496  0.1294
17530W        W35734   3.398  17.444   0.255  0.1239 -0.2405 -0.2707
17531W        W35735   2.424   6.076   5.938  0.1630 -0.0874 -0.1775
17532W        W35736  18.255  17.674   3.339 -0.1132 -0.1454 -0.0139
17533W        W35737   5.614   1.102  14.243  0.2599 -0.0653 -0.0391
17534W        W35738  15.414   8.942  11.773 -0.3353  0.0222 -0.2776
17535W        W35739   8.836  10.691   0.469 -0.2767 -0.1203 -0.0010
17536W        W35740   4.623  16.041  10.863  0.2542  0.2550 -0.2950
17537W        W35741   2.655   2.714   0.910  0.0080  0.1094 -0.3026
17538W        W35742   1.134   5.506   1.707  0.2479 -0.0924 -0.2159
17539W        W35743   0.238   0.363  14.352  0.0642 -0.3790 -0.0444
17540W        W35744  14.228  11.300   2.746 -0.2994  0.2589  0.2651
17541W        W35745  10.102   3.619   2.431 -0.2553 -0.0423  0.0933
17542W        W35746  12.188   8.760   3.394 -0.1248 -0.0893  0.1946
17543W        W35747  14.427  10.480   3.714  0.2239 -0.0386  0.1685
17544W        W35748   9.340   9.486   3.783  0.0597  0.0820  0.1169
17545W        W35749   5.358   2.280  14.459  0.2865  0.0660 -0.3128
17546W        W35750   8.417   8.606  11.263 -0.1401 -0.1218  0.1670
17547W        W35751   8.189  12.516   5.121  0.0542  0.2767  0.3037
17548W        W35752  18.488  18.251   0.175  0.2316  0.0016 -0.1081
17549W        W35753   4.335   8.462  11.198 -0.0117 -0.0294  0.0269
17550W        W35754   1.118   3.904   3.968  0.3110 -0.2052 -0.4328
17551W        W35755   1.704   6.180  12.343 -0.0602 -0.1124 -0.0831
17552W        W35756  10.842  12.958   1.004  0.1326  0.0459  0.2350
17553W        W35757   7.240  13.881  12.006 -0.2349  0.1708 -0.0621
17554W        W35758  11.864  18.458  15.412  0.1819  0.0220 -0.0634
17555W        W35759  11.891  11.409  15.161 -0.1755 -0.1288 -0.0811
17556W        W35760  12.888   4.447  15.182  0.0643 -0.0427  0.1069
17557W        W35761   4.153   8.596  13.461 -0.1171  0.0247  0.0968
17558W        W35762   1.177  16.316   3.618 -0.0660  0.0467  0.2122
17559W        W35763   9.965   9.848  11.299  0.3002  0.1065  0.2840
17560W        W35764   7.976   9.049  14.800  0.2044  0.1852  0.0604
17561W        W35765  16.727  13.042  12.568 -0.0247  0.0435  0.0245
17562W        W35766   7.336  18.372   3.109 -0.3687  0.0761 -0.2137
17563W        W35767  13.003   6.698   0.975 -0.0659 -0.0239  0.1964
17564W        W35768  16.983   0.635   1.462 -0.0755  0.3724  0.4795
17565W        W35769  14.692   9.363   0.870  0.4269  0.0284 -0.4469
17566W        W35770  18.619   4.218  11.887  0.2061  0.0138  0.0176
17567W        W35771   3.888   1.005  13.238  0.1030 -0.4120 -0.0166
17568W        W35772   0.948  14.537   0.091 -0.0087  0.0851 -0.1098
17569W        W35773   2.192  14.247  13.748  0.2257  0.2422  0.4620
17570W        W35774   3.771  16.250  15.453  0.3641  0.0425 -0.3267
17571W        W35775  14.747   2.450  14.579 -0.0280  0.2595 -0.1225
17572W        W35776   1.507  11.488  14.142  0.0833 -0.0870  0.2924
17573W        W35777  12.919  16.898   2.280  0.3263  0.0190 -0.1544
17574W        W35778  12.482   9.716  14.339  0.0489 -0.4302 -0.3066
17575W        W35779   2.340   9.810   1.611  0.0780 -0.1851 -0.0049
17576W        W35780  18.666   9.929   0.002  0.0391  0.3149 -0.2281
17577W        W35781   4.644   8.705  13.264  0.0128  0.4525  0.1866
17578W        W35782   2.799  14.533  14.976  0.0551  0.3645 -0.4769
17579W        W35783  16.093  12.760  12.098  0.1439 -0.1138  0.1224
17580W        W35784  15.042   1.653  13.832  0.1437  0.1403 -0.1074
17581W        W35785   4.876  18.181   0.398  0.3721  0.1616 -0.0095
17582W        W35786   6.242  16.346   1.624 -0.0173  0.0638 -0.2519
17583W        W35787   0.545  10.118  15.300  0.1849 -0.0496 -0.0560
17584W        W35788  15.273  10.753  13.552 -0.0266  0.0287 -0.0125
17585W        W35789  10.226  11.143   2.280  0.1616  0.1642 -0.1739
17586W        W35790  17.366  10.309   4.131 -0.2762 -0.0156  0.1079
17587W        W35791  16.610   1.081   3.803 -0.3170  0.0049  0.6048
17588W        W35792   1.298   7.315   2.198  0.1469  0.3624  0.0944
17589W        W35793  13.264  12.436   4.109  0.0832  0.2762  0.0483
17590W        W35794  12.544   9.123   0.633 -0.1434 -0.2321  0.1293
17591W        W35795   3.443  14.980  14.356 -0.0698  0.4411  0.0769
17592W        W35796   5.871   5.857   0.636  0.1051 -0.1083 -0.1571
17593W        W35797   9.193  10.699  13.685 -0.1011 -0.0636 -0.4740
17594W        W35798   3.413  13.652  14.093  0.0391  0.0385 -0.2241
17595W        W35799  17.930   6.090  12.797  0.0865 -0.1709  0.2384
17596W        W35800  11.611   0.791  14.719 -0.1730  0.1741 -0.3625
17597W        W35801  14.042  10.173   1.428  0.0996 -0.0809 -0.1046
17598W        W35802   7.329   6.404  11.347  0.1268  0.0582 -0.1019
17599W        W35803   3.515   2.735  14.928  0.1159  0.0220 -0.2773
17600W        W35804   5.519  13.243  14.410  0.0632  0.1099  0.4241
17601W        W35805  16.611   2.756  14.779 -0.1133 -0.0821 -0.0108
17602W        W35806   9.618  11.187   3.699 -0.0522  0.5034 -0.0504
17603W        W35807  14.755  10.843   1.457 -0.0158 -0.0176 -0.0294
17604W        W35808   7.503   1.840  11.176 -0.0141 -0.0800  0.2321
17605W        W35809   3.246  13.935   9.982  0.1989 -0.0087  0.1871
17606W        W35810   0.182   1.532   2.444 -0.2066 -0.3076  0.2052
17607W        W35811  12.191  17.932   2.063  0.2189 -0.1129  0.3238
17608W        W35812  17.447   1.529   0.227  0.1881  0.0711 -0.0545
17609W        W35813   5.902  14.264   4.062 -0.2273 -0.4605  0.1953
17610W        W35814  17.731  11.079   1.486 -0.0842  0.0896  0.2214
17611W        W35815   9.901   0.194   0.450 -0.0113  0.0669  0.0047
17612W        W35816   2.624   8.455   1.315 -0.2001 -0.1458  0.1387
17613W        W35817  10.847  14.833  11.030 -0.2978  0.0685  0.3971
17614W        W35818  16.217  17.906  14.281 -0.1041  0.0746  0.1993
17615W        W35819   2.975   8.071   2.077 -0.0932  0.0154 -0.0402
17616W        W35820  14.958  13.365  12.660 -0.1700  0.3165 -0.0982
17617W        W35821  15.047   6.633   4.503 -0.3162  0.1090  0.0484
17618W        W35822  16.769  13.599   0.003 -0.0451 -0.4651  0.1612
17619W        W35823   8.456  13.704  13.405 -0.3028  0.0744 -0.0704
17620W        W35824  10.766  11.782   3.628  0.0628 -0.1151  0.2410
17621W        W35825   3.584   6.627   4.642 -0.0046  0.2672  0.0245
17622W        W35826  14.928  11.452   0.189  0.2032 -0.1448 -0.1979
17623W        W35827   8.576   0.595   0.750  0.1452 -0.2702  0.0218
17624W        W35828  12.058  14.993  12.376 -0.0842 -0.1934  0.0954
17625W        W35829  18.477   3.019  11.910 -0.0674 -0.0261 -0.0517
17626W        W35830   9.641  10.222   4.250 -0.1972  0.0737 -0.1269
17627W        W35831   9.980   8.872   3.664  0.2102 -0.1943  0.1516
17628W        W35832  14.999  10.123   4.025  0.3499 -0.2194 -0.1413
17629W        W35833   8.192  12.512  12.812  0.1374  0.0251 -0.1559
17630W        W35834   0.649   7.897   0.485  0.0402  0.1114 -0.0769
17631W        W35835   9.808   2.438  12.594  0.2770  0.3896  0.1691
17632W        W35836  15.672  11.959  15.385 -0.0906 -0.1227 -0.1079
17633W        W35837   5.363   6.546   0.354 -0.0259  0.0584  0.0518
17634W        W35838   0.353   4.630   3.313 -0.1594 -0.2163 -0.1263
17635W        W35839   3.032   7.238   2.246  0.1354 -0.0114 -0.0480
17636W        W35840   2.473  12.466  12.579 -0.1651  0.2206 -0.0746
17637W        W35841   4.757   4.472  12.904 -0.3464  0.0687 -0.0044
17638W        W35842   9.099  11.136   2.207 -0.2939 -0.1438 -0.1085
17639W        W35843  13.358   5.237  13.563  0.0777 -0.2754  0.1356
17640W        W35844  11.140  11.707   3.943  0.4300 -0.1741 -0.1749
17641W        W35845  14.023   1.200   4.997 -0.0915 -0.0435 -0.0318
17642W        W35846  17.214   6.075   2.648  0.0859  0.2899  0.2402
17643W        W35847  14.958   4.350   3.557 -0.0318 -0.1097 -0.0505
17644W        W35848  17.672  14.443  11.273  0.1639 -0.2027  0.0679
17645W        W35849  16.376  17.930  13.381  0.0274  0.2017  0.0661
17646W        W35850  15.194  18.432  10.730  0.2696  0.2309  0.1801
17647W        W35851  10.396  17.725   4.808  0.0840 -0.0492 -0.1037
17648W        W35852  12.767   3.443  14.956 -0.0208 -0.0083  0.1609
17649W        W35853  14.858   1.862  11.315  0.0297 -0.0741 -0.2712
17650W        W35854   1.863   3.320   1.267 -0.4278  0.2147 -0.2397
17651W        W35855   4.841  11.437  15.172  0.3593 -0.0645 -0.1307
17652W        W35856   5.871  11.738  13.346  0.2535  0.1572  0.1409
17653W        W35857   9.866  13.904  15.436 -0.0804 -0.0518 -0.1237
17654W        W35858  14.215   5.769  14.788  0.0721  0.2020 -0.4919
17655W        W35859  11.799   3.797  14.666  0.0098  0.1450  0.0230
17656W        W35860  13.639  12.269  15.035 -0.1895 -0.3505 -0.2128
17657W        W35861  14.983  16.318  13.267 -0.1345 -0.1568 -0.1342
17658W        W35862   5.104  11.134   2.040 -0.0854  0.3701 -0.0656
17659W        W35863  17.315   8.498   1.728  0.2348 -0.4970 -0.2373
17660W        W35864   4.255   8.000   2.327 -0.2653  0.2687  0.1079
17661W        W35865   4.843   2.481   0.324  0.2280 -0.0462  0.1550
17662W        W35866  18.177  14.579   2.378  0.1313  0.3086  0.1484
17663W        W35867   1.100   9.581  12.705  0.0493 -0.1937 -0.0681
17664W        W35868  10.133  18.649  13.338 -0.0236 -0.4662  0.2750
17665W        W35869  12.224   5.354  12.273  0.2691  0.2421 -0.0590
17666W        W35870   1.987  16.194  11.451 -0.5059 -0.0271 -0.0574
17667W        W35871   8.744   5.562  13.640  0.1060  0.2276  0.0015
17668W        W35872  10.174   0.614   3.257 -0.0351 -0.1719  0.0278
17669W        W35873   8.932   1.031   3.342 -0.5223 -0.2354  0.5171
17670W        W35874   2.271   3.269  12.039 -0.4824  0.1472 -0.1186
17671W        W35875  10.425  15.277   4.149  0.1270  0.0622  0.0374
17672W        W35876  14.962  16.964   3.191 -0.1651 -0.0198  0.1292
17673W        W35877  13.265  17.227   2.042  0.0677  0.0004  0.1197
17674W        W35878  17.962   8.415  10.347 -0.1014 -0.1754 -0.1996
17675W        W35879   8.816  16.908  11.319  0.2659 -0.0765 -0.0171
17676W        W35880  10.316  15.148   2.368  0.0075  0.1366  0.2763
17677W        W35881   9.082   0.758   0.768  0.3707 -0.3011 -0.0331
17678W        W35882  11.405  12.167   2.776  0.1991  0.1299  0.3567
17679W        W35883  18.196   5.817   2.639  0.3182 -0.4463  0.2073
17680W        W35884  11.018   1.620  11.740 -0.3948 -0.1655  0.0769
17681W        W35885   0.768  17.314  14.323  0.0600  0.0173  0.0039
17682W        W35886   1.983  14.182  15.461  0.2173 -0.3823  0.1353
17683W        W35887  15.322  12.194  11.937 -0.0382  0.1133  0.3972
17684W        W35888   7.699  14.388  13.684  0.0284  0.1700  0.1852
17685W        W35889  15.378   7.454  11.361 -0.5757  0.1238 -0.1780
17686W        W35890  12.246   1.352   4.683 -0.1066  0.0940  0.0120
17687W        W35891  11.897  14.407  15.419 -0.0006  0.0410 -0.1476
17688W        W35892   7.146  18.469  12.685  0.3039 -0.0887  0.1601
17689W        W35893   7.272   2.243   0.665  0.0012  0.1561  0.2048
17690W        W35894   4.168   7.130   2.464 -0.2316 -0.2538 -0.1363
17691W        W35895   9.229  18.033  14.416  0.0307 -0.2536  0.3043
17692W        W35896   3.018  18.192   1.713  0.1434 -0.0805  0.2033
17693W        W35897  17.636   9.536   0.208  0.0647  0.2162  0.0591
17694W        W35898   7.634   6.121  11.080 -0.1701  0.3081  0.2757
17695W        W35899  12.227   5.138   0.026  0.0508 -0.0531 -0.2462
17696W        W35900   0.442  11.900   3.969  0.0097  0.0323 -0.0278
17697W        W35901  11.053   4.739  11.386  0.1194  0.1887  0.1379
17698W        W35902   5.690  13.829   0.574  0.0988 -0.1772 -0.0257
17699W        W35903   3.694   7.643   1.019  0.0309  0.0922 -0.0560
17700W        W35904   7.033   0.573  14.228 -0.0019 -0.3138  0.1658
17701W        W35905   7.327  14.392  11.851  0.1554 -0.2552 -0.0936
17702W        W35906  11.986   2.213   1.680 -0.0799  0.0334 -0.2500
17703W        W35907   0.674  16.289   2.982 -0.1542  0.0447 -0.3209
17704W        W35908   4.770  14.698  15.305 -0.1283 -0.1782 -0.0258
17705W        W35909   6.151  17.691   2.097 -0.1221  0.1972  0.2151
17706W        W35910  18.298  17.557  15.011 -0.2995  0.1352 -0.3177
17707W        W35911  10.482   1.207  12.030  0.5889 -0.0031  0.0798
17708W        W35912   5.292  14.890  14.479  0.0853  0.1201 -0.0354
17709W        W35913   8.672   7.322   4.009  0.1073 -0.1872 -0.1147
17710W        W35914  12.790   5.484  12.386  0.0482  0.3597 -0.1746
17711W        W35915  16.798  10.154  14.171 -0.1176  0.1275  0.0517
17712W        W35916  13.377  11.136  13.817 -0.1537 -0.1693 -0.3427
17713W        W35917  15.418  12.727   1.345 -0.0889  0.1072 -0.0890
17714W        W35918  14.695   3.564   0.971 -0.2204 -0.0883 -0.2461
17715W        W35919   5.095  13.373   1.521  0.0022  0.1276  0.1050
17716W        W35920   9.995  16.026   3.582  0.0844  0.0887 -0.0008
17717W        W35921   5.268   6.468   5.710 -0.2911  0.3877  0.0541
17718W        W35922   5.894  14.221  15.212  0.0107  0.0196  0.0991
17719W        W35923  16.632  12.417   0.884 -0.0222 -0.0030  0.1087
17720W        W35924   4.216  18.450  15.233  0.2423  0.1527 -0.0401
17721W        W35925   9.613   8.828  14.897  0.3155 -0.4423 -0.3757
17722W        W35926  10.882   6.548   3.539 -0.0232 -0.0822  0.0877
17723W        W35927  13.558  11.346  14.293 -0.0963  0.0146  0.2802
17724W        W35928  17.347  14.956  12.683 -0.0601 -0.1735  0.0902
17725W        W35929  14.623   5.015   3.692  0.1072  0.2292  0.1127
17726W        W35930  11.233  16.581   1.810 -0.3322 -0.0480 -0.0684
17727W        W35931   7.665  14.944   0.860  0.3255  0.0963  0.0659
17728W        W35932   9.923   9.782  12.174  0.0400 -0.3003 -0.0625
17729W        W35933   0.098   6.298   3.589 -0.0030  0.1153 -0.0258
17730W        W35934  14.622   2.447   1.661 -0.2172 -0.2672 -0.0019
17731W        W35935  15.970  15.406   4.150  0.1493 -0.3494  0.1536
17732W        W35936  18.017   1.243  11.524 -0.0739  0.1513 -0.1733
17733W        W35937   2.226  14.187   3.852  0.0482 -0.0369  0.1214
17734W        W35938  15.464  13.874  11.425  0.0581 -0.0324 -0.1139
17735W        W35939   3.440  14.745   0.622 -0.1354  0.0423 -0.3176
17736W        W35940  13.911  11.137  13.898 -0.0454 -0.0406  0.3805
17737W        W35941  13.016  10.233   5.005 -0.1361 -0.3255 -0.2704
17738W        W35942  15.100  10.766   5.984  0.0953  0.0954  0.0599
17739W        W35943  14.703   1.187   4.298 -0.1340  0.0302 -0.1845
17740W        W35944  17.092  12.790  12.233 -0.0936  0.1085 -0.3085
17741W        W35945   2.806   6.656  12.602 -0.2450  0.1173  0.0729
17742W        W35946   6.845  15.691   3.803 -0.1945  0.2109  0.2742
17743W        W35947  17.313   9.148   3.520 -0.0330 -0.0627 -0.3023
17744W        W35948  18.015  17.319  12.422  0.1598  0.3327 -0.0382
17745W        W35949   0.322   4.423  15.334  0.1298 -0.2601  0.0697
17746W        W35950   8.231   7.991   3.062  0.1436 -0.0919 -0.1091
17747W        W35951  17.886  11.997  13.239 -0.1362 -0.1272 -0.0708
17748W        W35952   8.225   5.275  14.524 -0.3122 -0.2308 -0.0612
17749W        W35953   4.495   8.156  12.726  0.0362 -0.0497 -0.0509
17750W        W35954   2.497   3.456   1.343 -0.0494 -0.0012 -0.4125
17751W        W35955  15.160  18.242  13.755 -0.1700 -0.0459 -0.3656
17752W        W35956   0.796   3.853  12.980  0.1370 -0.1463 -0.2616
17753W        W35957  18.447   5.003   3.777  0.2407 -0.0540  0.1192
17754W        W35958   0.616   2.025  11.524  0.0785 -0.1020  0.1685
17755W        W35959   6.439   3.836   1.762  0.6243  0.2025 -0.4266
17756W        W35960  14.156  16.681   1.828 -0.0462 -0.0626  0.1804
17757W        W35961   4.868  16.951  10.362  0.2891 -0.0395 -0.5742
17758W        W35962  17.966  15.102  14.838 -0.0013 -0.0026 -0.0507
17759W        W35963  15.494  18.185  13.286  0.0888  0.0984  0.1438
17760W        W35964   7.269   7.059  14.811 -0.0301  0.1172 -0.2371
17761W        W35965  11.438  16.876   5.367  0.2348  0.0053 -0.1389
17762W        W35966   2.481  17.446   2.125 -0.0300  0.3512  0.0065
17763W        W35967  16.477   0.721  12.609 -0.0924  0.0154  0.0395
17764W        W35968   6.271  15.367   1.613 -0.1333 -0.0887 -0.1183
17765W        W35969  17.256  13.113  12.671  0.0796 -0.1143  0.1487
17766W        W35970  17.137  17.023   3.116 -0.5530  0.1867 -0.2617
17767W        W35971  17.906   3.923   3.838 -0.0645  0.0609 -0.0722
17768W        W35972  17.015  15.823   3.139  0.2107 -0.2976  0.2083
17769W        W35973  17.264  10.407   2.391 -0.1574 -0.0333 -0.2560
17770W        W35974   5.418  13.202   3.659 -0.0943  0.0818 -0.2280
17771W        W35975   6.821  17.021  10.625 -0.0328 -0.2975 -0.2327
17772W        W35976  10.176   6.583  14.261 -0.0820  0.3775 -0.1031
17773W        W35977   9.731   3.596  12.621  0.2259  0.2189  0.0525
17774W        W35978  17.470   0.205   3.746  0.1616  0.3748 -0.2471
17775W        W35979   0.861  12.210  10.585  0.2390  0.1880  0.2233
17776W        W35980   6.748  17.781   0.690  0.0907 -0.0009 -0.1421
17777W        W35981   7.318   9.419   3.565  0.0605  0.0672 -0.0202
17778W        W35982  17.840  12.427   0.429  0.0177 -0.0050 -0.0041
17779W        W35983   8.166  16.484   3.569 -0.1579 -0.0864  0.2266
17780W        W35984  15.264   6.508   2.479 -0.1036 -0.1746 -0.1631
17781W        W35985  15.369   7.643   1.365  0.0580  0.2396  0.0214
17782W        W35986   8.168  17.410  13.849  0.1146 -0.0014 -0.0235
17783W        W35987   0.815   5.657  15.145 -0.0014 -0.4136  0.1745
17784W        W35988   6.645   0.311  11.982  0.0999 -0.0536  0.2865
17785W        W35989  11.885   5.877   2.178 -0.3634  0.1725 -0.2461
17786W        W35990  10.436  17.182  15.044 -0.3317  0.4055  0.1039
17787W        W35991  17.140   3.767  15.029 -0.0501 -0.0236  0.0223
17788W        W35992   4.837   5.674   0.215 -0.0825  0.3424  0.0092
17789W        W35993   8.120   9.181   2.309  0.0463 -0.0158 -0.2728
17790W        W35994   2.954  17.577   3.391 -0.0300  0.4715 -0.4323
17791W        W35995  12.868   5.355   3.895  0.0054 -0.1731  0.3018
17792W        W35996   8.720   3.738  11.363 -0.3645 -0.0302  0.1308
17793W        W35997  10.478  17.488   1.278 -0.0077  0.1959 -0.1834
17794W        W35998  17.043   4.038  15.404  0.1914  0.0637 -0.0795
17795W        W35999   9.471   8.901  12.032 -0.3200  0.1059 -0.2892
17796W        W36000   5.471  13.174  11.512 -0.3065  0.3967 -0.0728
17797W        W36001   7.573   3.197   2.106  0.2087  0.0951 -0.1857
17798W        W36002   0.410   3.107  10.338 -0.0659  0.1540 -0.3779
17799W        W36003   3.777  12.850   2.435  0.2129  0.1795 -0.0467
17800W        W36004  17.763   7.059   3.209 -0.3035  0.1863  0.4098
17801W        W36005  12.022   7.858  12.621  0.0804  0.2242  0.2789
17802W        W36006   9.458  18.548   2.521  0.0493 -0.0434  0.1448
17803W        W36007   9.462  16.866   0.623  0.2182  0.2459  0.1231
17804W        W36008   6.642   3.213  13.138  0.3604 -0.1536 -0.0144
17805W        W36009  16.779  17.373   1.847 -0.1274 -0.0147 -0.0340
17806W        W36010   5.186   6.994   2.256  0.1243 -0.1689  0.1603
17807W        W36011   7.440  17.877   4.093 -0.0008  0.0314  0.0922
17808W        W36012  15.272   7.036  11.613  0.0446  0.0162  0.1555
17809W        W36013  17.955  13.556  11.372  0.1789  0.1810  0.0078
17810W        W36014   9.388  12.455   0.362 -0.2006 -0.1138 -0.1787
17811W        W36015   8.707  18.078  14.128 -0.1094  0.0474  0.0780
17812W        W36016   8.785  16.199  12.092 -0.0527 -0.4254  0.2381
17813W        W36017  15.088  12.412   1.151 -0.0404 -0.0579 -0.2021
17814W        W36018   0.972   1.265   2.765 -0.0281 -0.3566 -0.0659
17815W        W36019  15.733   3.423  15.095 -0.0616 -0.0884  0.2287
17816W        W36020   2.610  10.667   4.072 -0.1740 -0.1937 -0.0173
17817W        W36021  16.311   6.714   0.891 -0.1199 -0.0106  0.0726
17818W        W36022  12.070   1.901   2.148  0.4805  0.0787  0.0990
17819W        W36023   0.573   2.363   2.831  0.0796  0.1637 -0.0203
17820W        W36024   4.629   3.592  14.787  0.0678  0.1107 -0.1391
17821W        W36025   1.296   3.488   2.991  0.1818  0.1566 -0.1118
17822W        W36026  13.307   1.200  11.665 -0.2119  0.2105 -0.2656
17823W        W36027   2.416  18.564  14.545 -0.0182 -0.1269 -0.0456
17824W        W36028  13.261   8.820   6.266 -0.1607  0.1277  0.2297
17825W        W36029  14.363  16.337   2.220 -0.0619  0.2190 -0.1670
17826W        W36030  11.422  17.956  12.620  0.1886  0.2912  0.0518
17827W        W36031   3.744  10.918  13.172 -0.2299 -0.0199 -0.4589
17828W        W36032  15.446   8.844  13.218  0.2466  0.1386  0.1048
17829W        W36033  16.906   3.886  11.929 -0.1072 -0.1064  0.1709
17830W        W36034  15.650   3.208  13.559  0.0776 -0.0668 -0.5024
17831W        W36035  15.170   9.738  14.425 -0.2034  0.0894 -0.3190
17832W        W36036  11.246   7.127  13.391 -0.0919 -0.2429 -0.3254
17833W        W36037   6.457   4.431  13.988  0.2320  0.0845  0.2526
17834W        W36038   5.754   4.141  11.408 -0.0642 -0.0868 -0.1123
17835W        W36039  18.055   8.194  10.877 -0.1213 -0.1408 -0.0221
17836W        W36040   3.509   2.971   2.978 -0.0696 -0.0405 -0.0755
17837W        W36041  16.584   4.738  10.547  0.1342 -0.0952 -0.0591
17838W        W36042  16.755  14.544   3.664 -0.1437 -0.0614  0.2156
17839W        W36043   2.596   8.041   1.770 -0.0254 -0.1498  0.2633
17840W        W36044   3.375   3.284  11.904  0.1273 -0.0876 -0.0088
17841W        W36045  18.443   3.337  13.559 -0.1198 -0.0088 -0.0590
17842W        W36046   4.734   9.294  13.391 -0.0628 -0.1029  0.1413
17843W        W36047  17.441  14.329   4.357 -0.1829  0.1867 -0.0798
17844W        W36048   5.781   8.581  13.161  0.1023 -0.1276  0.2858
17845W        W36049  14.592  16.646  11.665 -0.0436 -0.1089 -0.2256
17846W        W36050  15.912  13.861   3.236 -0.1642  0.0944  0.1027
17847W        W36051   4.335   5.122  15.079  0.1948 -0.0385 -0.0760
17848W        W36052  15.363   3.214   2.671  0.0273  0.0518  0.0543
17849W        W36053  13.380   8.745  13.129  0.0986  0.2431  0.3734
17850W        W36054   6.419   8.814  11.566 -0.0748  0.3154  0.0437
17851W        W36055   9.615  17.206  13.139  0.0642  0.0742  0.2233
17852W        W36056  12.565   2.055   3.282 -0.0340  0.3065  0.1113
17853W        W36057   0.372   8.259  14.859 -0.0032  0.1289 -0.0986
17854W        W36058  11.645   0.325   2.966 -0.4181  0.0725 -0.0177
17855W        W36059   9.715  11.467   5.477  0.2449 -0.1008 -0.0448
17856W        W36060   8.108  10.160  11.708  0.1167 -0.0896  0.1666
17857W        W36061  18.067  10.610  13.368  0.3440  0.1732 -0.3288
17858W        W36062   6.915  14.579  12.449  0.0052 -0.1223  0.1245
17859W        W36063   7.076  11.707   3.968  0.1838 -0.0465  0.0596
17860W        W36064  18.552  16.344   3.730  0.0752  0.0656 -0.0238
17861W        W36065   9.211   4.280   3.107  0.0353  0.1253 -0.1043
17862W        W36066  16.313   3.833   1.862  0.0106  0.2017  0.1226
17863W        W36067  15.875   7.824  14.923 -0.0819  0.0528  0.0486
17864W        W36068  15.745  11.920   2.085 -0.2163 -0.1686  0.1612
17865W        W36069   9.496  12.106  14.276 -0.0014  0.0907  0.0060
17866W        W36070   7.409   4.159  10.899 -0.3652 -0.1186 -0.0785
17867W        W36071  11.128  11.366   1.803 -0.1429 -0.2435 -0.0905
17868W        W36072  14.420  13.068   2.848  0.0039 -0.0073  0.1082
17869W        W36073   8.023  18.252  14.452 -0.0873  0.1442  0.1968
17870W        W36074   4.785   8.876   2.436 -0.1719 -0.0321  0.0815
17871W        W36075  16.873  18.293  14.583 -0.0964  0.0667 -0.1715
17872W        W36076   5.386   3.593   3.633  0.2388  0.0622 -0.2410
17873W        W36077  12.101   5.765  11.741 -0.3866  0.0517  0.2166
17874W        W36078   5.304  17.402   4.250  0.1887 -0.2559  0.1161
17875W        W36079  17.036   6.493  12.471  0.1064  0.2977 -0.2926
17876W        W36080   8.199   4.344   1.183 -0.2427 -0.1941  0.0997
17877W        W36081   8.997   1.036  11.530  0.0766 -0.2880 -0.1403
17878W        W36082  14.236   2.506  11.561  0.1068 -0.1573  0.0285
17879W        W36083  16.513   4.991   3.227 -0.0244 -0.2977  0.0494
17880W        W36084  14.130   7.794  11.531  0.4240 -0.1565  0.1074
17881W        W36085   0.482   5.255  15.040 -0.1541  0.3397  0.3154
17882W        W36086  12.279   7.448  14.295  0.1984  0.1431 -0.3567
17883W        W36087   8.658  11.356   0.795  0.1292 -0.1864  0.0809
17884W        W36088   5.994  14.594   1.152 -0.1235 -0.0542 -0.0128
17885W        W36089  11.064  17.931   3.419 -0.1754  0.0494 -0.0718
17886W        W36090   1.960  10.252   1.730  0.0545 -0.1824 -0.0244
17887W        W36091  10.848   7.645  13.382 -0.0352 -0.1727  0.0531
17888W        W36092  12.176   6.578  12.807 -0.0529  0.1281 -0.0952
17889W        W36093   6.952   2.533   0.198  0.2280  0.0772  0.1646
17890W        W36094  17.444   0.442   0.287  0.1436  0.0140  0.2324
17891W        W36095  10.353   2.856   3.342 -0.3356 -0.0012  0.0041
17892W        W36096  11.875   4.721   0.762  0.1364 -0.3763  0.1285
17893W        W36097   2.818   5.982   4.553  0.0068  0.0876 -0.0288
17894W        W36098  12.233   9.253   3.544 -0.0179 -0.2195  0.1165
17895W        W36099   8.451   4.617   0.735  0.0691  0.0433  0.1087
17896W        W36100   8.307  17.643   2.522  0.2400  0.1687  0.3142
17897W        W36101   6.232  13.430   3.861 -0.1942  0.0199 -0.3033
17898W        W36102   9.478   4.732   2.613  0.2913  0.2075 -0.0477
17899W        W36103  14.427  15.454   0.690  0.2625 -0.0291 -0.0458
17900W        W36104  12.830  17.467   3.663 -0.1306  0.1729  0.2586
17901W        W36105  16.707  15.015  11.582  0.2649 -0.0921 -0.0589
17902W        W36106  10.975   4.941   2.576 -0.1590 -0.0858  0.4882
17903W        W36107   2.765  11.547   1.448  0.0352 -0.1936 -0.2241
17904W        W36108   0.976   6.051   1.973 -0.0019  0.5014  0.3884
17905W        W36109   3.185   1.046   3.239  0.1093 -0.3213  0.1455
17906W        W36110   4.939  13.822   3.529  0.1076 -0.0575 -0.1175
17907W        W36111  10.491   0.897   0.570  0.0725 -0.0194 -0.0091
17908W        W36112   9.798   2.968   4.643 -0.2306  0.0803  0.0324
17909W        W36113   1.508  12.504  13.239  0.4292  0.0257  0.2363
17910W        W36114   3.758  12.006   4.187  0.3774 -0.0438  0.0143
17911W        W36115   6.112  13.315  15.105  0.2413 -0.0796 -0.1188
17912W        W36116   6.945   3.367  11.226  0.3679  0.2730  0.2416
17913W        W36117   6.188  16.009   2.953 -0.1143 -0.1105  0.0304
17914W        W36118   8.689   7.252  11.328  0.0812 -0.0522  0.0832
17915W        W36119   8.710  10.557   1.350 -0.0728  0.0713 -0.2103
17916W        W36120   9.718  14.060  11.002 -0.3284 -0.2896  0.2674
17917W        W36121  16.810   0.316   3.267  0.2030 -0.3112  0.0242
17918W        W36122   7.366  11.824  10.220 -0.2705 -0.3170  0.0576
17919W        W36123   2.692   3.856   3.682 -0.1449  0.0165  0.0241
17920W        W36124   5.816  15.305  12.557 -0.2987 -0.1288 -0.2633
17921W        W36125   1.166   4.917  12.527 -0.1291 -0.0571 -0.1842
17922W        W36126  10.647   5.895   2.058 -0.1249 -0.1220  0.1622
17923W        W36127  11.401  10.403   1.150  0.1738 -0.2225  0.0510
17924W        W36128  10.644   3.289  11.044  0.0279 -0.1599 -0.0013
17925W        W36129  17.036  17.457  13.951  0.3633 -0.3772 -0.2538
17926W        W36130  15.596  13.420  13.682 -0.2507 -0.1773 -0.0260
17927W        W36131   5.902   8.690  13.624 -0.0180  0.1114  0.2950
17928W        W36132   6.855   8.619   2.275  0.0781 -0.1144  0.1303
17929W        W36133   0.750  10.416  11.124  0.1266 -0.0809  0.1001
17930W        W36134  14.318   1.275  15.090 -0.1361 -0.0901 -0.0906
17931W        W36135  17.032  11.498   4.539  0.1595 -0.2431 -0.2189
17932W        W36136   4.967  11.247  12.580  0.0031  0.0423 -0.1143
17933W        W36137  14.697   8.664   4.908  0.1928 -0.0507 -0.2664
17934W        W36138   0.322   8.466   1.610 -0.0134  0.0849  0.0725
17935W        W36139  12.543  16.307   3.518 -0.1027  0.2039  0.2337
17936W        W36140   5.128   6.271   2.125 -0.0585  0.1075 -0.0736
17937W        W36141  12.644  12.231   2.827 -0.3098 -0.1028  0.4212
17938W        W36142   3.863  16.321   9.791  0.3123 -0.1186 -0.3023
17939W        W36143   0.903   5.953   4.161  0.0994  0.1394  0.1280
17940W        W36144  17.560   1.196   5.874  0.1494 -0.1131  0.1911
17941W        W36145  15.058  16.904   4.772  0.1793 -0.0853 -0.1276
17942W        W36146   3.935   9.103  13.720  0.3521  0.0902 -0.0496
17943W        W36147   2.122  17.461   1.550 -0.1352  0.0038 -0.0557
17944W        W36148  10.699  15.697   4.148 -0.3640 -0.1509 -0.0166
17945W        W36149  18.169   0.007  13.736  0.2596  0.3200 -0.3836
17946W        W36150  13.959  18.603   3.880 -0.0360  0.2245  0.1685
17947W        W36151   4.334  13.270  13.124 -0.0100 -0.2550 -0.3781
17948W        W36152   1.010   3.256   1.567  0.0814  0.2117 -0.4707
17949W        W36153   6.292   2.771  11.368 -0.1432 -0.0798  0.0068
17950W        W36154   8.411   8.342   4.645 -0.0772  0.0804  0.0314
17951W        W36155   8.751  16.730  12.253 -0.1168  0.3201  0.1124
17952W        W36156  11.735   6.785   4.085 -0.1639  0.1019  0.1948
17953W        W36157   1.128  14.195  13.076 -0.4023 -0.1484 -0.3049
17954W        W36158  12.286   2.460  11.280 -0.1830 -0.1086  0.0088
17955W        W36159  13.182   4.590  13.270  0.0197 -0.3414 -0.2124
17956W        W36160   5.732  13.531  11.197 -0.1002 -0.2359  0.4064
17957W        W36161   3.315   6.550  11.346 -0.0970 -0.0324  0.1105
17958W        W36162   9.137   3.381  14.482 -0.0197 -0.0825  0.2590
17959W        W36163  15.283   9.460   5.374 -0.1615 -0.1546  0.2513
17960W        W36164   0.668  13.064  11.574 -0.0875  0.3239  0.2799
17961W        W36165  11.581   6.302  14.976 -0.3299  0.0290 -0.2452
17962W        W36166   9.244  14.070   1.375  0.0120  0.0424 -0.0584
17963W        W36167   2.482  15.813  15.407  0.1561 -0.0227  0.1232
17964W        W36168   7.336  12.759   3.190  0.0205 -0.1074 -0.4086
17965W        W36169  16.421   2.903  14.302 -0.1356 -0.1636  0.0095
17966W        W36170   1.080  13.395  12.086 -0.1791 -0.1620  0.0907
17967W        W36171   3.220  12.380   1.491 -0.1785 -0.1739  0.1932
17968W        W36172   3.370   0.975  12.437  0.1779 -0.1353 -0.0972
17969W        W36173  16.560  10.843   0.077  0.1017  0.2322  0.0425
17970W        W36174   6.483   0.209   1.810 -0.2929 -0.0980  0.0843
17971W        W36175  14.192   5.578  12.515 -0.0986 -0.0753  0.1994
17972W        W36176  10.471   8.994  12.036  0.3118 -0.1140  0.3410
17973W        W36177   1.468   0.971  11.294 -0.1582 -0.2532 -0.0166
17974W        W36178   4.245  12.493   2.128 -0.0888  0.1149  0.0190
17975W        W36179  18.372  12.881  11.706  0.0127 -0.0245 -0.0542
17976W        W36180   4.914  15.934   1.370 -0.1426 -0.1203  0.1245
17977W        W36181  16.969  14.636   3.174  0.0286 -0.3479 -0.1492
17978W        W36182  11.716   3.066  14.456  0.0737  0.0063 -0.1470
17979W        W36183   0.737   6.527   1.951  0.3136  0.0660  0.1701
17980W        W36184  17.719  11.551  12.428  0.1651  0.2469 -0.1970
17981W        W36185   1.964   2.705   0.318 -0.1708  0.1378 -0.2338
17982W        W36186   9.013  16.566  11.751  0.0655 -0.0306  0.0305
17983W        W36187   2.995   3.138  13.920  0.0557 -0.1982  0.0867
17984W        W36188  15.407  17.985   5.584 -0.0180  0.1223 -0.0134
17985W        W36189  10.095   3.106   3.028  0.1196 -0.2685 -0.0596
17986W        W36190  17.762  16.309   1.042  0.2518 -0.1510 -0.0294
17987W        W36191   0.997   9.667   1.811  0.0731  0.3228 -0.2686
17988W        W36192   7.402   9.781  14.771 -0.0442  0.0177  0.2218
17989W        W36193   3.142   0.515  14.532 -0.2044 -0.3380 -0.3289
17990W        W36194   8.076  15.685  14.010  0.0667 -0.0455 -0.0974
17991W        W36195  16.308  15.245   2.734 -0.3814  0.0890 -0.0100
17992W        W36196  11.696   6.095   1.676 -0.1627 -0.0779 -0.1809
17993W        W36197   4.702  18.597   1.202  0.2388  0.1840 -0.0821
17994W        W36198   1.034  14.160   3.513  0.1627  0.0639  0.2091
17995W        W36199   3.158  15.518  15.210 -0.1002 -0.1395  0.4307
17996W        W36200   4.144  10.617  14.425  0.1817 -0.0293  0.1012
17997W        W36201   2.883  10.512  11.322  0.0869  0.1326  0.2462
17998W        W36202   3.616   2.635  13.892  0.0928 -0.1984  0.0878
17999W        W36203  14.401  10.784   0.804 -0.2184 -0.3081 -0.1079
18000W        W36204  12.857  18.215  13.108  0.0957 -0.0113 -0.1227
18001W        W36205   5.619   1.247   1.578 -0.2014 -0.1488 -0.3993
18002W        W36206  14.224  10.499  10.047 -0.1278  0.1834 -0.0163
18003W        W36207   5.607  14.560   1.798 -0.0416 -0.2114  0.2546
18004W        W36208   5.215   3.104  13.161  0.0398  0.0229 -0.1295
18005W        W36209  12.091  11.100   0.989 -0.2660  0.4251 -0.0070
18006W        W36210   9.619   2.591  13.035  0.2932  0.2189  0.0811
18007W        W36211  10.979   7.922  12.285  0.0562 -0.1956 -0.1020
18008W        W36212  11.629  12.663  12.262 -0.0008  0.0814  0.3977
18009W        W36213   6.154  12.034  11.081  0.0743 -0.1033 -0.0605
18010W        W36214  18.454  11.264   3.278  0.1991  0.2341  0.0643
18011W        W36215  16.801  18.428   2.541  0.2207  0.0885  0.1298
18012W        W36216  14.845   2.807   2.062 -0.2980 -0.0882  0.1286
18013W        W36217  11.709   1.776   2.994 -0.0522 -0.3201  0.1909
18014W        W36218  11.332   5.505   0.103  0.3197  0.0085  0.0011
18015W        W36219   9.010   9.327   4.753  0.0658  0.5279  0.0244
18016W        W36220   5.256  16.816   4.143 -0.1494  0.1040 -0.3524
18017W        W36221  14.410  11.772  12.398  0.0130 -0.1041 -0.1064
18018W        W36222   8.075   8.656  13.276  0.1578  0.1596  0.2578
18019W        W36223   4.126  14.705  11.743  0.0289 -0.3877  0.3606
18020W        W36224  16.258   0.786   1.086 -0.2714  0.3008  0.0396
18021W        W36225  10.713  12.105  13.608 -0.3685 -0.1021 -0.1253
18022W        W36226  17.061  13.390   3.696  0.2327  0.3756  0.1830
18023W        W36227   8.345   9.324   1.464  0.1127 -0.2746 -0.2951
18024W        W36228  13.979  10.743   1.081  0.0643 -0.0978 -0.1195
18025W        W36229   6.584   4.222   0.962 -0.1361 -0.1247  0.0947
18026W        W36230   7.668   0.037  11.213  0.0109 -0.1686 -0.2037
18027W        W36231   1.686   2.890   4.975  0.0457  0.0168 -0.1169
18028W        W36232   0.219   4.092   2.520 -0.2515 -0.1539 -0.0005
18029W        W36233   1.819  12.512   3.613  0.3499  0.3099 -0.0435
18030W        W36234  14.553   9.597   3.339  0.1756 -0.3434 -0.1852
18031W        W36235   3.497   6.236   0.310 -0.1069 -0.1995  0.0430
18032W        W36236  16.215  15.611  14.450  0.0152 -0.0088  0.3068
18033W        W36237  16.379  17.193   0.609 -0.2337 -0.0944 -0.0460
18034W        W36238   1.314  11.038  11.860  0.0016  0.1384 -0.2268
18035W        W36239   4.004  11.866  13.411  0.2296  0.1498  0.2868
18036W        W36240   5.230   1.005  11.950  0.0366 -0.2963 -0.1560
18037W        W36241  13.332  15.778  13.743 -0.3678 -0.1622 -0.1674
18038W        W36242  10.069   1.174   4.083  0.1223 -0.0382  0.0491
18039W        W36243   1.013  15.645  12.132 -0.0423 -0.0557  0.0324
18040W        W36244  12.658   7.032   4.537  0.0277  0.0784  0.1184
18041W        W36245   4.676   2.709  11.852  0.2518  0.1954 -0.0132
18042W        W36246   2.160   8.260  11.873 -0.0436 -0.2770 -0.0676
18043W        W36247   6.928  11.444  12.605  0.1202 -0.0223 -0.1530
18044W        W36248  11.277   6.283  11.116 -0.0269  0.1806 -0.0764
18045W        W36249  16.895   9.027   3.116  0.1299  0.0314 -0.0243
18046W        W36250   9.554   0.898  12.388 -0.0468  0.1508  0.1368
18047W        W36251  17.096   2.798   2.480 -0.0832 -0.0438  0.2129
18048W        W36252   1.423   9.404  14.928 -0.0338 -0.0485  0.2553
18049W        W36253  11.584  18.538  13.570 -0.2261  0.3443 -0.1216
18050W        W36254   5.632   2.532   1.288 -0.0789  0.0484  0.0585
18051W        W36255   8.422  12.437  15.158  0.1830 -0.0794 -0.1569
18052W        W36256   2.556  10.061  10.970  0.1848  0.1261  0.0848
18053W        W36257  10.684   9.925  11.561  0.2673  0.2974 -0.1368
18054W        W36258   3.986   1.321   4.524 -0.0668 -0.1192 -0.0001
18055W        W36259  10.048   9.324  11.256 -0.1044  0.1846 -0.0639
18056W        W36260  13.086   6.028  13.240  0.0152  0.0915  0.1772
18057W        W36261   0.276   8.727  11.846  0.1565  0.1344  0.1396
18058W        W36262   9.366  12.528   4.654 -0.1460  0.1674  0.1920
18059W        W36263   5.115   4.214  14.449 -0.2827  0.3553 -0.3332
18060W        W36264   5.428  16.138  11.260 -0.1905  0.5203  0.0094
18061W        W36265   6.211  11.854  12.891 -0.1489  0.2123 -0.0781
18062W        W36266  10.336  14.552  12.395 -0.0007 -0.2746  0.0369
18063W        W36267  13.373   9.365   0.378 -0.1277  0.0753  0.0936
18064W        W36268   9.617  10.316   3.426 -0.1264 -0.1135 -0.0458
18065W        W36269   3.202   6.636   1.757 -0.0856  0.0568  0.1546
18066W        W36270   9.965   7.840   3.783  0.1599  0.2432  0.0647
18067W        W36271  13.785   9.135   4.821 -0.1380 -0.4448 -0.0452
18068W        W36272   6.022  17.859   4.478 -0.0469  0.1816  0.1709
18069W        W36273   2.375   7.927   4.879  0.1143 -0.1833  0.0239
18070W        W36274   6.848   9.607  11.434  0.0222  0.0543 -0.0490
18071W        W36275   8.266  17.120  14.293 -0.2432  0.1676 -0.2500
18072W        W36276   7.955   8.669   2.578  0.1674 -0.2357 -0.0653
18073W        W36277  13.402   7.319  15.258 -0.0168 -0.2174  0.0984
18074W        W36278   2.989  13.100   2.804 -0.0443 -0.1716  0.1426
18075W        W36279   0.809   7.653   3.179  0.3492  0.2480  0.0598
18076W        W36280  14.133   7.279  14.359 -0.3728  0.0488 -0.0893
18077W        W36281   4.832  16.884  12.483 -0.1912 -0.3357  0.0039
18078W        W36282   2.200   2.677  14.904 -0.1116  0.0629  0.3097
18079W        W36283   7.587   2.612  10.782 -0.0627  0.2095 -0.0084
18080W        W36284   7.396   8.147   0.891  0.0974 -0.0072 -0.2586
18081W        W36285   8.056  16.867   1.234 -0.1978  0.2535  0.0420
18082W        W36286  11.316  12.717  13.489 -0.2872 -0.1360  0.2428
18083W        W36287   6.519   0.888   0.070 -0.1813 -0.0959 -0.1851
18084W        W36288  14.432  14.686  12.703  0.2668  0.0287 -0.0832
18085W        W36289  18.268  16.905  10.067  0.2114  0.3325  0.1627
18086W        W36290   6.387   7.973  12.061 -0.0097  0.1701 -0.0687
18087W        W36291   3.487  13.051   1.396  0.1930  0.1860  0.1983
18088W        W36292  12.133   3.238   3.795  0.1244  0.0547  0.1421
18089W        W36293  11.883  18.612   0.409  0.0530 -0.3105  0.2216
18090W        W36294   8.484  10.839  13.671 -0.5434 -0.0464 -0.0767
18091W        W36295   4.795   4.655  14.024  0.2922  0.0237 -0.0739
18092W        W36296   3.470  13.024   2.904  0.2490 -0.0178  0.0529
18093W        W36297   5.427  10.310   1.231 -0.4411  0.1689 -0.1116
18094W        W36298   8.629  17.487  13.576  0.0084  0.0343 -0.1659
18095W        W36299  15.953   7.829  14.007 -0.1944  0.1273 -0.0413
18096W        W36300   3.037   2.767   0.516  0.1336  0.2544 -0.0890
18097W        W36301   0.148   7.330  11.279  0.0462  0.4492  0.1778
18098W        W36302  14.464  10.436  12.319 -0.1327  0.1686  0.0301
18099W        W36303  15.362   9.477  11.789  0.3139 -0.1123  0.0188
18100W        W36304   0.809   1.879   2.822 -0.0289  0.0769 -0.0174
18101W        W36305  12.399   0.440   3.665  0.2607 -0.1211  0.0426
18102W        W36306  17.212   4.276   0.413 -0.2765 -0.1260  0.0988
18103W        W36307  12.582  11.545  14.532  0.1678 -0.3530 -0.1223
18104W        W36308   1.345   1.573  12.219 -0.3336 -0.2013 -0.3911
18105W        W36309  12.522  10.858  12.040 -0.1801 -0.1868  0.2033
18106W        W36310   8.789   1.369  13.584  0.0600 -0.1697 -0.2696
18107W        W36311  12.567  14.306   2.335 -0.2347  0.1937  0.0129
18108W        W36312  18.523  17.211   2.460  0.2481 -0.0764  0.1776
18109W        W36313   2.993  13.875   0.697 -0.1376  0.0416 -0.1382
18110W        W36314   4.835  16.225  13.318  0.1337  0.0646  0.0196
18111W        W36315  14.237   1.723   3.971 -0.0320 -0.2769  0.1043
18112W        W36316   6.763   1.288  15.319 -0.1744 -0.4445  0.1540
18113W        W36317  12.421   5.179   3.345 -0.0001 -0.1231  0.1747
18114W        W36318   5.558  16.036   1.442  0.2285 -0.1533 -0.0451
18115W        W36319  13.448   8.871  14.119  0.3610 -0.2195  0.1361
18116W        W36320  15.292  12.041   4.310  0.1916 -0.0269 -0.3688
18117W        W36321   0.771  17.382  13.830 -0.0118 -0.2424  0.2125
18118W        W36322   0.358   4.503   3.956  0.0265 -0.3199  0.0192
18119W        W36323   0.804   9.337  11.944 -0.0084 -0.0479 -0.1090
18120W        W36324   8.386  18.671   1.557  0.1220  0.2197 -0.2977
18121W        W36325  11.091  10.992  11.033 -0.2617 -0.0539  0.3350
18122W        W36326  10.729   7.662   4.515 -0.3890 -0.1234 -0.2302
18123W        W36327   0.281  10.641  11.205 -0.2000  0.1386 -0.1595
18124W        W36328  12.117   9.646  12.948  0.1606  0.1362 -0.2441
18125W        W36329  10.208  14.826   3.867 -0.1779  0.0102 -0.2180
18126W        W36330   7.213   8.897   2.846 -0.0739 -0.1920 -0.2642
18127W        W36331   4.870   9.704   4.401 -0.0545  0.0111  0.2075
18128W        W36332  14.400  12.635   5.607  0.0716 -0.0408 -0.0614
18129W        W36333   2.768  13.184   3.976 -0.0401 -0.1182  0.0296
18130W        W36334  11.090   0.232   3.073 -0.0306 -0.2770  0.0976
18131W        W36335   8.893   3.367  15.356 -0.0682  0.1166  0.2389
18132W        W36336  13.945   2.783   2.316 -0.0920 -0.1423  0.0203
18133W        W36337  16.896  13.192   1.983 -0.1613  0.0460 -0.0305
18134W        W36338   8.445   8.200  14.593 -0.0291 -0.2077 -0.1309
18135W        W36339   1.016   5.478   2.634  0.1880 -0.1210 -0.0721
18136W        W36340   2.416  14.553  12.058 -0.0477 -0.2059  0.1905
18137W        W36341   4.505  15.032   0.652  0.1674 -0.2927 -0.1596
18138W        W36342  12.932   6.524  15.156  0.2752 -0.3772 -0.0003
18139W        W36343   9.949  15.234   4.230  0.1788  0.0727  0.0714
18140W        W36344   3.130   2.870   5.049 -0.1521 -0.1619 -0.0845
18141W        W36345   5.156   9.449  12.455 -0.0646  0.1310 -0.0807
18142W        W36346  12.482  12.049   6.022  0.0898  0.2445  0.0036
18143W        W36347   9.358   3.237   1.030 -0.0798  0.2329  0.0293
18144W        W36348  14.077  17.763   2.513 -0.4025  0.3384  0.0785
18145W        W36349   5.662  10.589  14.494 -0.0248 -0.0229  0.2070
18146W        W36350   9.107  13.230  14.764  0.0978  0.0185 -0.1089
18147W        W36351  13.990   6.038  12.724 -0.0228 -0.2035 -0.2680
18148W        W36352   0.030  16.292   2.311  0.3482  0.0686  0.1974
18149W        W36353  17.694  14.016  11.602  0.2361 -0.1711 -0.1755
18150W        W36354  11.063  11.342   3.588 -0.2591 -0.3948  0.1603
18151W        W36355   3.461   1.190  15.235 -0.4068 -0.0869 -0.4406
18152W        W36356  15.308  13.059  11.744  0.0761 -0.3036 -0.0296
18153W        W36357  10.642   1.982  14.789 -0.1879 -0.1729  0.0646
18154W        W36358   1.270   2.371  11.359  0.1771  0.0720 -0.0604
18155W        W36359   8.805   0.599   5.351  0.0960  0.0447  0.1649
18156W        W36360   4.489   7.302  11.835 -0.1492 -0.0725 -0.3001
18157W        W36361   9.419   5.624  10.993 -0.1211  0.0381 -0.0319
18158W        W36362  18.327  15.518  11.266 -0.0078  0.1741 -0.1858
18159W        W36363   4.835  10.244   4.192 -0.1611  0.1785  0.2476
18160W        W36364   3.331  15.348  11.778 -0.1115 -0.0698 -0.0069
18161W        W36365  17.135  12.315   2.409  0.1730  0.4012 -0.0313
18162W        W36366  10.354   2.509  12.493  0.0047  0.0182 -0.3585
18163W        W36367   7.859  18.298  11.127  0.0278 -0.4230  0.3957
18164W        W36368  17.700   7.384  14.020 -0.0036  0.0257 -0.0006
18165W        W36369  12.240  17.680   2.963 -0.3235  0.2526 -0.0607
18166W        W36370  12.572   9.296   5.341  0.1795 -0.1331  0.1033
18167W        W36371   8.425  17.745  11.817  0.0383 -0.1731  0.1063
18168W        W36372   6.521  17.265  11.748  0.0263  0.2606  0.1924
18169W        W36373   9.374  13.371  12.312 -0.0191 -0.1272 -0.3236
18170W        W36374  16.439   6.209  15.359  0.1748 -0.0234 -0.0770
18171W        W36375  10.073   8.675   4.677 -0.3486 -0.1014 -0.1038
18172W        W36376   3.940   9.296   3.274 -0.0228  0.0959  0.1033
18173W        W36377   5.618  10.638  12.242  0.1310 -0.1385  0.0534
18174W        W36378   0.813  16.801  15.419 -0.1440  0.2875 -0.0618
18175W        W36379  15.813   3.987   1.053 -0.0294  0.3029  0.0625
18176W        W36380  14.152  15.318  13.369 -0.0677  0.1960 -0.0424
18177W        W36381  16.223   2.664  12.515 -0.1481 -0.2277 -0.1554
18178W        W36382   5.393  10.780   0.819  0.1615 -0.1461  0.0495
18179W        W36383  15.254   0.722   3.538  0.4336 -0.0177 -0.0406
18180W        W36384   4.035   4.061  15.184 -0.2261  0.1941  0.4550
18181W        W36385   8.180  13.439  11.219  0.0675 -0.0772 -0.1259
18182W        W36386  14.575  14.467  11.200  0.1255  0.0562 -0.0523
18183W        W36387   4.471  13.909  14.968 -0.2377 -0.1581 -0.1052
18184W        W36388  17.844  10.131   0.722  0.0260  0.1321 -0.2857
18185W        W36389  17.337   7.376  13.707  0.0097 -0.2471  0.1184
18186W        W36390   5.484   5.210   3.397 -0.0565  0.2693 -0.0968
18187W        W36391   2.679   6.943   3.617 -0.0382 -0.0118 -0.1683
18188W        W36392   1.710  17.563  14.402  0.2431  0.4504  0.2304
18189W        W36393  10.072  15.740  13.238  0.0899 -0.2532 -0.0163
18190W        W36394   3.347  13.843   4.446 -0.1927 -0.0022  0.1152
18191W        W36395  10.586   5.515  12.544 -0.0079 -0.1001 -0.2054
18192W        W36396   2.316  18.325  14.979  0.2276  0.1210  0.4143
18193W        W36397  18.621  16.637  12.327  0.1167 -0.0511 -0.0135
18194W        W36398  13.878  15.351   0.953 -0.1244 -0.3948  0.2118
18195W        W36399   7.375   8.450  10.690  0.2171 -0.1067 -0.0462
18196W        W36400  15.420   3.650   4.229  0.0325 -0.2233 -0.0417
18197W        W36401   8.225  17.825  14.802  0.1259  0.2029  0.0461
18198W        W36402   0.932   9.370  15.020 -0.1029 -0.0157  0.1800
18199W        W36403   7.275   2.081   1.515  0.3666 -0.0052  0.0094
18200W        W36404   2.490  12.612  14.182 -0.0705 -0.1940 -0.1231
18201W        W36405   6.373  18.491   3.170  0.2440  0.2417  0.1068
18202W        W36406   5.496   0.446   0.806  0.1865 -0.1065  0.3136
18203W        W36407   4.523   1.352   4.397 -0.0347 -0.0229 -0.2693
18204W        W36408   8.207   3.547   3.327 -0.0632 -0.2259 -0.0528
18205W        W36409   0.834   6.518  15.329 -0.1390 -0.0973  0.1394
18206W        W36410   4.716  10.094   0.640  0.0228  0.1457  0.0192
18207W        W36411   2.255   2.693   1.184 -0.1582 -0.0718 -0.1751
18208W        W36412  17.686  12.764   3.074 -0.4011  0.0008  0.3673
18209W        W36413  12.137  16.848  12.397  0.4149  0.3936 -0.1806
18210W        W36414   3.770   4.145  13.101  0.1061 -0.1058  0.0126
18211W        W36415   9.188  10.156  11.826  0.1031  0.1559  0.3787
18212W        W36416   4.795   0.502   2.464  0.3259  0.1568  0.2393
18213W        W36417   3.587   1.316   1.217  0.1434 -0.0922  0.2393
18214W        W36418  12.906  12.209   1.381 -0.1600 -0.0460  0.2199
18215W        W36419   9.035  10.259   2.722 -0.1940  0.3166  0.4455
18216W        W36420  15.653  17.475   1.470  0.4420  0.3267 -0.1291
18217W        W36421  10.908  11.103  14.752 -0.2010 -0.0079 -0.0702
18218W        W36422   9.618   5.073   0.015 -0.0008  0.4845  0.0125
18219W        W36423  11.997   5.228  11.834 -0.0302  0.1400  0.5026
18220W        W36424  14.015  16.307  10.923  0.2663 -0.3686 -0.0646
18221W        W36425  12.826  10.629   3.203 -0.2121 -0.0691 -0.1583
18222W        W36426   5.456   1.355  12.308 -0.0377  0.1031  0.0639
18223W        W36427   3.998   6.706   3.621 -0.0396  0.1973  0.1998
18224W        W36428  14.269   6.930  10.915  0.2289  0.2241 -0.0842
18225W        W36429  12.856  10.697  15.296  0.1732 -0.2441 -0.1976
18226W        W36430  16.493   8.241  11.755  0.0284 -0.0594  0.1368
18227W        W36431   1.122   0.835   2.859 -0.0604 -0.0532 -0.0597
18228W        W36432   5.209   5.560   3.776 -0.1487 -0.5591  0.0806
18229W        W36433   1.490   9.481  11.929 -0.1704 -0.1486  0.0363
18230W        W36434  16.757   0.208   0.541 -0.0014  0.0868  0.1208
18231W        W36435  11.465   3.943  11.652 -0.2011 -0.2325  0.1460
18232W        W36436  12.360  17.035  14.836 -0.2381 -0.0372  0.0730
18233W        W36437   6.677  11.852   5.031 -0.4114 -0.2332  0.1843
18234W        W36438  14.383  15.224  12.698  0.1625  0.0406 -0.0526
18235W        W36439   5.387   3.185   1.636 -0.3648  0.0775 -0.0316
18236W        W36440   4.192   0.504   1.922  0.0715  0.3976 -0.0432
18237W        W36441  17.852   1.139  14.659 -0.0374 -0.1785 -0.1236
18238W        W36442  18.041  12.497  12.427 -0.1857 -0.0421 -0.3234
18239W        W36443   8.068   4.828  13.281  0.0752  0.3156  0.2731
18240W        W36444   9.893   5.892   3.260  0.0684  0.1306 -0.2644
18241W        W36445  12.727  10.179   1.615 -0.2702  0.1382 -0.1503
18242W        W36446  10.733   4.811  15.382  0.0065  0.0185 -0.1293
18243W        W36447  17.331   9.287  14.816  0.1289 -0.2527 -0.1526
18244W        W36448   6.038   2.992   0.539 -0.1142 -0.3109 -0.0006
18245W        W36449   5.050  12.253  14.889  0.1769  0.0069 -0.0710
18246W        W36450   2.493   3.326   4.382 -0.1588 -0.3054  0.1197
18247W        W36451  18.001  10.696  11.599  0.2411 -0.0892  0.1263
18248W        W36452   6.437  14.626  15.291  0.0250  0.0895  0.1365
18249W        W36453   8.640  14.310  11.809 -0.2649  0.1124  0.3526
18250W        W36454  10.312  10.486   1.680 -0.1083 -0.0462  0.0221
18251W        W36455   6.399   4.442  13.470  0.0385 -0.2032 -0.1789
18252W        W36456  14.433  16.900  12.232  0.3044 -0.2904  0.0430
18253W        W36457  13.974  11.047  14.557  0.1386 -0.1145  0.3021
18254W        W36458  14.830  12.211   5.077  0.1312  0.1192 -0.4638
18255W        W36459   3.201   9.207   2.252 -0.1880  0.1096 -0.3166
18256W        W36460  17.839   7.229  12.206  0.0944 -0.2486  0.2060
18257W        W36461  18.109  15.392  10.752 -0.3165 -0.2949  0.1841
18258W        W36462   6.151  17.616   4.998  0.0725 -0.1919 -0.1467
18259W        W36463   2.622  13.577  15.195 -0.1414 -0.4065 -0.0502
18260W        W36464  18.106  12.946  15.175 -0.0005  0.1632  0.2073
18261W        W36465  13.758   8.894  12.877  0.0177 -0.0807 -0.1634
18262W        W36466  10.675   4.822   2.152  0.1966 -0.0998  0.1260
18263W        W36467  10.553  18.197  13.419  0.1322  0.1026  0.1842
18264W        W36468   1.488   1.578   3.930  0.3969  0.3644  0.0276
18265W        W36469   5.462   1.851   0.582 -0.0794  0.2862 -0.0067
18266W        W36470   2.309   5.074   3.404  0.1840  0.1210 -0.0981
18267W        W36471  16.954   7.705  11.224  0.0920 -0.0164  0.0565
18268W        W36472  18.584  16.362   4.234 -0.1677 -0.1217 -0.1584
18269W        W36473   3.365   9.534   3.162 -0.0111 -0.0813  0.1719
18270W        W36474  16.035  15.943   1.130  0.1010  0.5423 -0.2234
18271W        W36475   2.016   2.509  11.555 -0.1694 -0.0561 -0.3883
18272W        W36476   0.447  18.268  15.358  0.1500 -0.2549  0.0197
18273W        W36477  13.914   9.789   3.291 -0.1748  0.0151 -0.0847
18274W        W36478  12.000   0.818   3.884  0.4069  0.0243 -0.2386
18275W        W36479  18.350  17.735   4.872  0.3090  0.1986 -0.1595
18276W        W36480  13.809  16.886  15.008  0.0485  0.1549 -0.1093
18277W        W36481   2.242  12.073   3.685 -0.2094 -0.1214 -0.1137
18278W        W36482   8.906   8.465  12.918 -0.3824 -0.1432  0.1062
18279W        W36483   0.694  16.485   1.851  0.0978  0.0451  0.0540
18280W        W36484   5.758   0.786  12.908 -0.1636  0.0856  0.1028
18281W        W36485   0.408  13.452   1.127  0.1110  0.0363  0.1928
18282W        W36486  16.492   8.861   0.294 -0.0213 -0.4051  0.1171
18283W        W36487  18.655   2.427  10.614  0.2777 -0.1915  0.1386
18284W        W36488  16.525  11.868  12.518 -0.0738  0.1584  0.5767
18285W        W36489  15.667   2.716  10.561  0.0856 -0.2163 -0.0141
18286W        W36490  11.405  15.476  15.132  0.0592  0.0143  0.0159
18287W        W36491   1.424  12.669   0.603  0.1053 -0.0298 -0.0055
18288W        W36492  13.502   0.195   1.918  0.2303 -0.2740 -0.0680
18289W        W36493   0.946  18.298   3.625  0.1964 -0.0475 -0.1057
18290W        W36494  10.253  10.829   4.778 -0.0308  0.0922  0.0597
18291W        W36495  14.190   8.594   3.772  0.3500  0.2854 -0.0605
18292W        W36496  16.327   3.978   4.451 -0.3030  0.0713 -0.4098
18293W        W36497   5.303   6.506   4.408 -0.3406  0.0091  0.0782
18294W        W36498   1.767  12.823  11.438 -0.3208 -0.1606  0.1111
18295W        W36499   6.861   7.075   1.850 -0.2392  0.0594  0.2292
18296W        W36500   9.827  14.559   0.788 -0.0477  0.4329  0.0521
18297W        W36501   1.051  12.536   1.231  0.0848  0.0441 -0.0165
18298W        W36502  11.097   9.471  12.741 -0.1846 -0.3352  0.1230
18299W        W36503  12.135  12.961   5.442  0.2976 -0.3721 -0.2129
18300W        W36504   8.910   4.589  10.472 -0.0574  0.1544  0.0765
18301W        W36505   5.215   9.928   3.378  0.1019  0.2526 -0.0263
18302W        W36506   7.357  15.189   0.119  0.0822 -0.0240  0.0786
18303W        W36507   7.874  14.929  15.324  0.1913  0.1641 -0.2647
18304W        W36508  17.762  16.150  11.773  0.1008  0.5345 -0.0498
18305W        W36509  13.837   1.110  10.791  0.1920  0.1500 -0.2200
18306W        W36510   4.318  10.566   4.982  0.0117  0.0373  0.2766
18307W        W36511  14.898  15.930  15.166  0.1066 -0.1034 -0.0928
18308W        W36512   0.660  14.502  14.603 -0.1601  0.0939 -0.0225
18309W        W36513  12.360   7.145   3.616  0.1111  0.2200 -0.1482
18310W        W36514   5.111   8.631  15.121 -0.3856  0.1428 -0.0948
18311W        W36515  13.902   8.524  13.740 -0.0225 -0.2010  0.0477
18312W        W36516  12.311   9.617  13.434 -0.0138  0.1430 -0.2563
18313W        W36517  18.355  10.220   3.159  0.2165 -0.0961  0.0032
18314W        W36518   8.810   7.447   1.145  0.0231  0.3055  0.0080
18315W        W36519  11.172  13.891   2.248 -0.2368  0.0428  0.1020
18316W        W36520   2.695  13.476   3.506  0.1127 -0.1078 -0.1135
18317W        W36521  12.382  14.575   1.438 -0.1637  0.1973 -0.0223
18318W        W36522  18.105  12.831   0.781 -0.2031  0.1505  0.0131
18319W        W36523   2.149  16.500   4.537 -0.1409 -0.1540  0.0309
18320W        W36524  16.957  12.215   2.910 -0.0843  0.3145  0.1046
18321W        W36525  14.489  13.838  11.680  0.0534  0.3487  0.2602
18322W        W36526  14.031   3.865  11.051  0.1124 -0.3944 -0.2304
18323W        W36527   7.628   2.697  14.459  0.0414 -0.2313 -0.3637
18324W        W36528  16.526  10.260   0.157 -0.1045 -0.1001 -0.2168
18325W        W36529  17.710   6.297   2.588 -0.0292  0.0943  0.1745
18326W        W36530  11.582   9.990  14.662 -0.2445  0.0840  0.3002
18327W        W36531   7.672   1.506   1.004 -0.1753  0.1767  0.3234
18328W        W36532   1.802  16.505  13.262  0.0500  0.0108  0.1807
18329W        W36533  12.386  10.447   4.638 -0.1166  0.2993 -0.5646
18330W        W36534  12.032  14.038  11.551  0.5162  0.0633 -0.0329
18331W        W36535   2.170  14.814   3.851 -0.0676  0.0309 -0.3330
18332W        W36536   3.669  16.265  13.077  0.3981  0.0979 -0.0113
18333W        W36537   3.764   9.962  13.168  0.1563 -0.1049  0.4138
18334W        W36538   7.146  11.012   1.413 -0.2296 -0.3037  0.0184
18335W        W36539  12.796   2.429  11.429 -0.3001  0.0531  0.2125
18336W        W36540  10.550   6.338   5.218 -0.0217 -0.0895 -0.1841
18337W        W36541  15.563  10.366   0.452 -0.0729  0.0891  0.2246
18338W        W36542  10.153   0.873  12.415 -0.3840  0.1803 -0.3987
18339W        W36543  16.445   3.293   2.880 -0.3264  0.5860  0.2109
18340W        W36544  11.134  10.699  13.281 -0.1764 -0.1782  0.0056
18341W        W36545  11.232  18.201   4.253  0.1403 -0.1639 -0.0056
18342W        W36546  14.527  10.983   2.388 -0.2067 -0.2004  0.1997
18343W        W36547   1.807   7.949  13.298 -0.0905  0.2635  0.2200
18344W        W36548  13.216   0.760  12.636 -0.0736  0.1345 -0.1465
18345W        W36549  18.571  18.695   1.265 -0.1403 -0.0871 -0.2588
18346W        W36550   3.909  14.951   0.774 -0.0104 -0.0621 -0.0392
18347W        W36551   5.793   9.193  13.871  0.1110 -0.1389  0.2355
18348W        W36552  18.228   4.867  12.869  0.0640 -0.2388 -0.0201
18349W        W36553  17.070  15.128  12.334  0.2260  0.0286  0.2622
18350W        W36554   1.494   9.797   3.219  0.0721 -0.1310 -0.1211
18351W        W36555   6.376   1.439  12.422 -0.2110  0.2061  0.0919
18352W        W36556  14.732   6.088   3.767 -0.0809  0.0779  0.0845
18353W        W36557   5.323  10.300  11.334  0.2504 -0.2841 -0.2574
18354W        W36558  11.488   0.058   0.145  0.0169  0.1851 -0.5429
18355W        W36559   7.108   2.898   2.043 -0.1527  0.1258 -0.0470
18356W        W36560   1.872  13.687   3.344 -0.1813 -0.0344 -0.0189
18357W        W36561   9.828  16.335   1.723 -0.2866 -0.1462  0.0169
18358W        W36562   3.643   2.103  13.990  0.2273  0.2939 -0.0380
18359W        W36563   2.037   9.838  10.756  0.0916 -0.3220 -0.2770
18360W        W36564  14.229   1.617   3.401  0.0317  0.1556 -0.2946
18361W        W36565  11.880  15.104   4.079  0.0795 -0.1446 -0.0510
18362W        W36566  13.110  13.545  14.441  0.0962 -0.1814  0.2177
18363W        W36567   5.563   6.429  10.826 -0.0626 -0.3133 -0.1848
18364W        W36568   8.444  17.233  12.303 -0.3498  0.1581 -0.2569
18365W        W36569   0.569   4.813  11.971  0.1177 -0.0341 -0.0695
18366W        W36570   9.490   1.595   1.954 -0.1993  0.0793  0.3449
18367W        W36571   0.711   6.880  15.011  0.0178  0.1110 -0.3111
18368W        W36572  14.933   7.557  11.178 -0.1457 -0.5266 -0.1651
18369W        W36573   5.804  17.922   1.761  0.1751 -0.2954 -0.0682
18370W        W36574   9.314   6.636   0.528 -0.0068 -0.0874 -0.1121
18371W        W36575  16.927   0.817   2.744  0.1585 -0.0800 -0.0502
18372W        W36576  13.095   6.312  14.533 -0.3394 -0.1195 -0.0180
18373W        W36577  11.665  14.312   0.940  0.1937 -0.0847  0.1325
18374W        W36578  18.409   9.061  14.284 -0.0692  0.1553  0.0753
18375W        W36579  11.716   0.648   0.575  0.0417 -0.1549 -0.1859
18376W        W36580   0.595   9.827  11.917  0.0348  0.0546 -0.0974
18377W        W36581   3.631  10.029   2.195  0.3661 -0.0199  0.0854
18378W        W36582  12.192   3.321   0.529 -0.3019 -0.1620  0.0593
18379W        W36583   4.110   7.622  11.182  0.1544 -0.0688  0.2557
18380W        W36584  18.521   6.422   2.040  0.1202 -0.0468 -0.0041
18381W        W36585   8.989   6.850   0.897  0.3178  0.0800 -0.1058
18382W        W36586   6.733   9.834  12.812  0.1149 -0.3328 -0.1063
18383W        W36587  14.305   1.149   4.567  0.0050  0.1279 -0.4446
18384W        W36588   2.006  12.027   4.974 -0.1062  0.3189 -0.0584
18385W        W36589   7.006   5.167   3.126 -0.4687  0.2947 -0.1551
18386W        W36590  12.789  10.510  13.888  0.0543  0.1223  0.1645
18387W        W36591  15.367  16.787   4.027 -0.3913  0.2609  0.4018
18388W        W36592   2.882  10.502  14.116  0.2081  0.0536 -0.0988
18389W        W36593   4.695  14.725  11.113  0.2322 -0.2115  0.2690
18390W        W36594   5.673   8.210  10.837  0.0864  0.1468  0.0988
18391W        W36595   3.619   6.021   3.996 -0.5689 -0.0468  0.0327
18392W        W36596  15.740  17.912   0.711 -0.3117  0.0186  0.1047
18393W        W36597   7.116   6.372   3.474 -0.1071 -0.1981  0.0573
18394W        W36598  16.050   6.014   1.820  0.0290  0.0212  0.3306
18395W        W36599   0.508  16.307  10.763 -0.2335  0.1278 -0.0446
18396W        W36600   0.857   4.935  14.188 -0.0823  0.1932  0.2693
18397W        W36601   1.569  14.039  11.350  0.1115  0.2255  0.4124
18398W        W36602   1.627   9.067  11.211  0.4363 -0.3750  0.2375
18399W        W36603  15.630   6.958  13.613 -0.1688 -0.0074 -0.0055
18400W        W36604   3.718   8.912  12.358 -0.0365  0.0922  0.3332
18401W        W36605  18.195   2.479   3.778 -0.2274  0.0361 -0.1240
18402W        W36606  10.378  12.476   1.671 -0.0712  0.1531 -0.0135
18403W        W36607   7.684  11.360   0.618 -0.1113 -0.0017 -0.0896
18404W        W36608  16.374   8.812   1.922  0.1790 -0.0479  0.1652
18405W        W36609   8.868  11.890  12.903  0.0173 -0.1326 -0.1018
18406W        W36610  10.913   2.654   3.601  0.2348  0.1224  0.0549
18407W        W36611   1.800   1.143   2.391 -0.0070 -0.1445 -0.0576
18408W        W36612   8.986  15.276   1.666  0.1444  0.1099  0.2844
18409W        W36613   9.608   2.503  14.484  0.1204  0.0584  0.0119
18410W        W36614  12.536  14.146  13.353 -0.2055 -0.1563 -0.0089
18411W        W36615  10.600  17.426   1.852  0.2846  0.1933  0.0783
18412W        W36616   4.957   7.251  10.206 -0.0336 -0.1051  0.0064
18413W        W36617  11.944   0.160  12.713 -0.2328 -0.2686 -0.0630
18414W        W36618   2.160   8.801   3.952 -0.1261  0.0644 -0.2570
18415W        W36619  18.215   5.286   3.402 -0.1301  0.1625  0.2347
18416W        W36620   9.777   9.927  12.621  0.0546  0.0017 -0.1481
18417W        W36621   8.824   1.958   0.519  0.0053 -0.0161  0.0760
18418W        W36622  11.651   1.567   0.518  0.2294 -0.1992 -0.0848
18419W        W36623  17.106   3.977   3.331  0.2096  0.2337  0.1361
18420W        W36624   9.414   8.099   0.925  0.1050 -0.1093  0.3656
18421W        W36625  10.286   0.143   0.080 -0.0260 -0.0585 -0.0594
18422W        W36626  17.811  13.805  12.969 -0.2232 -0.2530  0.3301
18423W        W36627  10.509   6.103   4.139 -0.0225 -0.1274 -0.3252
18424W        W36628   7.845   9.652   2.853 -0.0750 -0.0246 -0.2200
18425W        W36629   2.097  13.610  15.198  0.0744  0.1138 -0.0124
18426W        W36630   7.274  14.539  12.783 -0.0622 -0.0543 -0.0840
18427W        W36631  13.277   7.818  14.378 -0.0463  0.2945 -0.1377
18428W        W36632  16.775  12.004   3.318 -0.1409  0.2404  0.0306
18429W        W36633  17.224  17.381   0.181  0.2161 -0.1312 -0.0361
18430W        W36634  18.689  14.899   0.381  0.2661 -0.0751 -0.1809
18431W        W36635  17.926   6.661  13.586  0.0414  0.1761  0.1126
18432W        W36636   9.632   5.876   1.459  0.3996  0.2866  0.2411
18433W        W36637   1.969   0.442   0.772 -0.0583  0.2173 -0.2328
18434W        W36638   6.008   8.344   4.069  0.0125 -0.2228  0.1824
18435W        W36639  17.909   7.454  13.491  0.3148  0.0177  0.0019
18436W        W36640   9.547  11.186  12.515  0.1731 -0.3586  0.0629
18437W        W36641  10.562  10.382   4.393 -0.0043  0.2568  0.0945
18438W        W36642  15.884   1.158  10.948  0.2892 -0.0438  0.1415
18439W        W36643   8.578  11.268  14.019  0.0811 -0.0887  0.0301
18440W        W36644   4.197   1.402  14.190 -0.1573 -0.4621  0.1291
18441W        W36645   7.699   7.888   4.943 -0.3227 -0.0271  0.2905
18442W        W36646   6.730   0.092  12.486  0.0363 -0.4246  0.2074
18443W        W36647  12.184  11.785  13.544 -0.0090  0.2434 -0.0267
18444W        W36648   5.386  16.359  15.389  0.3534 -0.1669  0.0751
18445W        W36649   4.916   3.353  12.859 -0.1390  0.1067  0.2244
18446W        W36650  12.550   1.204  13.041 -0.1506  0.2069  0.0825
18447W        W36651   9.738  10.711   4.358  0.0922 -0.1135  0.2803
18448W        W36652   1.962  13.882  10.408 -0.1410 -0.1361  0.0687
18449W        W36653  14.540   7.199  13.345 -0.2380 -0.0201  0.0691
18450W        W36654  13.239  10.956   5.279 -0.0280 -0.1759 -0.0446
18451W        W36655   7.187   0.488  11.903 -0.2036 -0.0625 -0.3093
18452W        W36656   9.739   0.523  11.194  0.3471  0.0533 -0.1284
18453W        W36657  15.218   1.791  14.268  0.2654  0.0921 -0.2105
18454W        W36658   9.278  17.315   1.154  0.0247  0.0437 -0.1768
18455W        W36659  15.462  12.611   0.264  0.1721 -0.0651  0.1089
18456W        W36660   9.772   4.736   0.879 -0.1854 -0.1417  0.2754
18457W        W36661   2.613   9.458  14.592  0.2006 -0.0169  0.0205
18458W        W36662   8.631  13.884   3.190  0.3524 -0.3546  0.2647
18459W        W36663   1.277   2.101  14.750 -0.0928 -0.2458  0.2470
18460W        W36664  10.958   9.047   9.915  0.2390  0.0936  0.0451
18461W        W36665   8.570  13.971  13.986  0.1020 -0.2611  0.3319
18462W        W36666  18.255  10.291  11.520 -0.0597  0.2004 -0.0898
18463W        W36667  13.237  12.927  11.690  0.1113  0.1324 -0.0232
18464W        W36668   3.331   3.535  14.752  0.1763  0.2126 -0.1409
18465W        W36669   0.247   3.544   2.010 -0.0766  0.5379 -0.1340
18466W        W36670  11.473  11.120  14.494 -0.1809  0.2569  0.2568
18467W        W36671   1.014   5.863   4.779 -0.1412 -0.3522  0.1663
18468W        W36672   3.146   9.462  11.387  0.3743  0.1087  0.0020
18469W        W36673   5.100  10.418  10.827  0.1897  0.0035  0.1000
18470W        W36674  15.541  13.421  14.424 -0.1485  0.0372  0.2592
18471W        W36675  10.110   8.976  13.713  0.0512 -0.3941 -0.0898
18472W        W36676  14.292   9.253   0.156 -0.3909 -0.0047 -0.0352
18473W        W36677  15.289   6.603   5.543 -0.2183  0.2255  0.2816
18474W        W36678   9.475  16.770   3.538 -0.0488 -0.0513  0.3158
18475W        W36679   5.281  14.982   4.410  0.1847  0.3853 -0.0914
18476W        W36680   6.369   1.126   4.304 -0.0550 -0.5964  0.1510
18477W        W36681  15.986   6.830   1.773 -0.2144  0.1415 -0.1812
18478W        W36682   0.915  10.907   3.679 -0.0373 -0.1460  0.2317
18479W        W36683   9.533   1.577   3.294 -0.0448 -0.0430 -0.1980
18480W        W36684   9.433  18.211  13.044  0.1042 -0.1112  0.0290
18481W        W36685  13.284  15.336  12.829 -0.0001  0.0696  0.0805
18482W        W36686   0.427   4.517   2.662 -0.0217 -0.2914 -0.1509
18483W        W36687   6.308   9.370  13.989 -0.1529  0.0756  0.1095
18484W        W36688  12.359  16.699  15.310 -0.0243  0.3642  0.0421
18485W        W36689  18.110   4.848  15.365  0.1718  0.1105 -0.1075
18486W        W36690   2.049   3.138   0.550  0.0825  0.0554 -0.2267
18487W        W36691  17.984   5.097  10.294  0.0179  0.1936 -0.1405
18488W        W36692  15.148  16.370  14.732 -0.2222 -0.1217  0.0289
18489W        W36693   1.006   1.689  11.730  0.0644 -0.2603 -0.1351
18490W        W36694  17.390  11.653  14.133  0.0735  0.1992 -0.1582
18491W        W36695   8.653  16.158  14.612 -0.2859 -0.0384 -0.3334
18492W        W36696  18.099  10.437  14.303  0.3028 -0.0666  0.2329
18493W        W36697   1.687   1.974   3.671  0.1442  0.0304 -0.0236
18494W        W36698   0.053   3.235   2.706  0.1014 -0.1230 -0.0445
18495W        W36699   2.229  14.067   4.620  0.4368  0.2245 -0.3598
18496W        W36700  17.870  11.186  14.734  0.1174 -0.1929 -0.3463
18497W        W36701  11.501  10.654   0.368  0.0019  0.2719 -0.3232
18498W        W36702  13.330   1.399   1.066  0.0472 -0.0666  0.1289
18499W        W36703   3.393   1.706  15.086  0.1240 -0.3612  0.4144
18500W        W36704   7.296   4.327  11.386 -0.0293  0.0605 -0.1828
18501W        W36705  15.630  15.289   3.778  0.0941 -0.1795 -0.1400
18502W        W36706  11.860  13.047   4.431  0.2653 -0.3765 -0.1867
18503W        W36707   4.889  13.873  12.427  0.1279 -0.1150 -0.0887
18504W        W36708   0.247  13.469  14.276  0.1693 -0.2094  0.0638
18505W        W36709   3.972   3.885  10.951 -0.2459  0.3460  0.1638
18506W        W36710  17.747   7.299  15.012 -0.0147  0.1272 -0.1484
18507W        W36711   4.906  12.642  10.501 -0.2145  0.0426  0.0504
18508W        W36712   8.736   4.770   2.682 -0.0589 -0.1233 -0.1947
18509W        W36713   5.636   4.912  15.049 -0.0442 -0.0623 -0.2273
18510W        W36714   1.329  17.539  14.759  0.1606 -0.0132 -0.1137
18511W        W36715   4.192  13.690   2.532  0.1227  0.1469  0.2009
18512W        W36716  14.115  15.030   1.449  0.1568 -0.4164  0.0104
18513W        W36717   0.794   6.886   3.750  0.0832 -0.1363 -0.2390
18514W        W36718   9.466   9.791  12.163  0.2138  0.1529  0.2681
18515W        W36719   0.973  15.541   3.647 -0.2790  0.1624 -0.0405
18516W        W36720  18.202   7.307  14.280 -0.2624  0.3401  0.0758
18517W        W36721   4.708  15.610  11.152 -0.0883  0.5046 -0.2377
18518W        W36722   9.931  11.206   0.435  0.1578  0.3169  0.4569
18519W        W36723  13.846  17.670   2.018 -0.2434 -0.0581  0.2135
18520W        W36724   0.389  17.049   2.566  0.0870  0.2679  0.3952
18521W        W36725   2.733   7.851  12.778  0.1834  0.0014 -0.3476
18522W        W36726   8.933   9.428  14.909  0.0304 -0.0778  0.0594
18523W        W36727   6.001   3.164   1.457 -0.1113 -0.3757 -0.1151
18524W        W36728   9.433   2.456  11.796  0.1904  0.1698 -0.1322
18525W        W36729  11.866  16.460  11.323 -0.2555 -0.3899 -0.2258
18526W        W36730  16.171   6.740   0.043 -0.2737 -0.2171 -0.1400
18527W        W36731  17.289   5.622   3.870  0.3737  0.0840  0.2769
18528W        W36732  17.757  14.185  15.218 -0.1849  0.0435  0.2796
18529W        W36733   7.060   3.798   1.857 -0.0136 -0.0456  0.1220
18530W        W36734   9.197  13.778  12.970  0.1579 -0.1512 -0.1822
18531W        W36735   3.524  17.381   3.215  0.1795  0.0021  0.1809
18532W        W36736   3.093  18.502   4.665 -0.3537 -0.1219 -0.3471
18533W        W36737   7.299  16.243   3.213 -0.3410 -0.0716  0.3251
18534W        W36738  13.520   8.319  14.939  0.1107 -0.0977 -0.1133
18535W        W36739  16.082   9.733  14.972 -0.1202  0.1036 -0.2283
18536W        W36740   9.509   4.953   3.445  0.0425 -0.1483  0.1294
18537W        W36741   1.997   9.597   3.398  0.0293 -0.2114 -0.1091
18538W        W36742  14.773   9.500  14.742 -0.0154  0.1131  0.2382
18539W        W36743   1.224   3.873  12.714 -0.3030 -0.1341  0.1143
18540W        W36744  12.889   4.204   1.935  0.1343  0.2838 -0.0337
18541W        W36745  14.233  17.124  15.106 -0.1431  0.1214  0.0634
18542W        W36746   2.424   2.271   1.304  0.1840 -0.0908  0.0325
18543W        W36747  15.411   2.364   0.940  0.0478 -0.2912  0.1549
18544W        W36748  11.898   0.124   1.428  0.1054  0.5142  0.0705
18545W        W36749   2.476   9.520   2.266  0.2071  0.2447 -0.1297
18546W        W36750  14.631   4.252  15.292  0.0099  0.0784 -0.3382
18547W        W36751   1.658  12.453  13.814  0.2566 -0.2677 -0.1927
18548W        W36752  12.524  10.690  10.910  0.1335 -0.2147 -0.0651
18549W        W36753  17.046   1.769   3.513 -0.0477 -0.0751 -0.1862
18550W        W36754  13.645   7.118   5.561 -0.0134  0.0016  0.2225
18551W        W36755  10.262  14.450   0.541 -0.1116  0.2462  0.0722
18552W        W36756   0.143   5.766  11.828  0.1232  0.0713 -0.0771
18553W        W36757   1.769  13.681  11.654  0.3498 -0.1134  0.3090
18554W        W36758   4.802  16.435   0.783 -0.0960 -0.0352 -0.2886
18555W        W36759  13.362  14.281  11.187  0.2340 -0.0048  0.1388
18556W        W36760  18.227  16.509   1.645  0.1968  0.3448  0.0107
18557W        W36761  12.622  14.938   4.209 -0.1471 -0.1832 -0.2176
18558W        W36762  12.620  12.911   5.604  0.1261 -0.0395  0.0927
18559W        W36763  14.399   4.265   3.264  0.1120 -0.1266 -0.0245
18560W        W36764   2.356   3.616   0.391 -0.0709 -0.1000  0.3024
18561W        W36765  17.082  12.032   4.491 -0.3319  0.0776 -0.0072
18562W        W36766  11.061  14.690  11.617  0.1731  0.0670 -0.1286
18563W        W36767   9.375  11.421   1.454 -0.1031 -0.1279 -0.0749
18564W        W36768  14.731   8.788  10.222 -0.2112 -0.0380 -0.2849
18565W        W36769   4.293  17.475  15.446 -0.1571 -0.0524  0.0356
18566W        W36770   0.152   1.029   4.314  0.0733 -0.0396  0.0023
18567W        W36771   3.212   4.769   1.504 -0.0663  0.1618 -0.2921
18568W        W36772   4.977   2.972   4.141 -0.0118 -0.2322  0.2620
18569W        W36773   2.376  15.357   3.139  0.2376 -0.0892 -0.2229
18570W        W36774  16.161  14.948  15.159  0.2355 -0.0660 -0.0674
18571W        W36775   0.085  13.838   1.218 -0.2527 -0.1105  0.0443
18572W        W36776   2.694  17.970   0.217  0.0881 -0.1142 -0.3297
18573W        W36777  18.008  17.297  13.866  0.2078 -0.1279  0.0625
18574W        W36778  16.861  11.309   2.066 -0.0634 -0.3799 -0.1251
18575W        W36779  12.175  10.567  11.665 -0.1833 -0.0974 -0.1628
18576W        W36780   2.801  16.038  11.246 -0.1674 -0.0131 -0.0037
18577W        W36781   0.469  13.642   4.365 -0.0190  0.2807  0.0583
18578W        W36782  14.885   0.598   2.471 -0.0731 -0.1064  0.0152
18579W        W36783   1.493   1.355   3.374  0.1620 -0.0165  0.0848
18580W        W36784   3.483   2.639  12.644  0.0556 -0.1223  0.0773
18581W        W36785   8.917  11.208   0.375 -0.2591  0.1475  0.2333
18582W        W36786  10.607   6.894   5.021 -0.0878 -0.2944  0.2250
18583W        W36787   8.301  15.564  10.943 -0.0405 -0.3075  0.1079
18584W        W36788  14.395  13.900   4.635  0.2157 -0.2437 -0.1788
18585W        W36789  10.994  11.816   2.870  0.0299  0.1924 -0.0665
18586W        W36790   1.414  12.991  12.296  0.2182  0.3037  0.1790
18587W        W36791  14.975   9.557  12.643 -0.0359 -0.1138  0.1188
18588W        W36792   4.349  17.776   5.008 -0.0594  0.1586 -0.3191
18589W        W36793   0.164   1.108  13.000  0.0884  0.0529 -0.0472
18590W        W36794   1.293   5.411   3.059 -0.0349 -0.0168 -0.2412
18591W        W36795   0.180  15.010  14.779  0.1449 -0.5444  0.0715
18592W        W36796   1.142  12.442  10.211 -0.2067  0.1071  0.1584
18593W        W36797  10.086  18.426   0.308 -0.1280  0.4027  0.0422
18594W        W36798  14.044   0.136  14.297 -0.0314  0.2328 -0.0889
18595W        W36799   3.876  13.126  12.964 -0.0159  0.2031  0.0487
18596W        W36800  14.771  14.523   0.737  0.0757 -0.0523 -0.0988
18597W        W36801  16.528   9.998  12.622  0.0421 -0.1148 -0.3302
18598W        W36802  16.429   5.860   0.461  0.1805  0.1674  0.1604
18599W        W36803   7.990  14.822  13.852  0.0857  0.0906  0.0487
18600W        W36804  12.556   0.589  13.155 -0.0833 -0.1705 -0.1661
18601W        W36805   1.710   5.739   5.169 -0.1113 -0.1118  0.1562
18602W        W36806  11.867   0.408  14.526  0.1124  0.2148 -0.0093
18603W        W36807  14.788   6.012  14.066 -0.0900 -0.1822 -0.0554
18604W        W36808   9.417  11.215  15.018 -0.0317  0.2103 -0.2043
18605W        W36809   0.724   1.073   4.450  0.1719 -0.2320 -0.1208
18606W        W36810  16.732   0.325  13.712  0.0858 -0.1363  0.1304
18607W        W36811   0.835  10.606   5.299  0.0323 -0.0644  0.0958
18608W        W36812   0.891   4.727   2.564 -0.0934 -0.1179  0.1907
18609W        W36813  18.388  13.728  12.651  0.0076 -0.0181 -0.1092
18610W        W36814  13.681  12.317   1.850 -0.2792 -0.1267 -0.0636
18611W        W36815  18.536  14.483   3.364  0.1493 -0.2515  0.3191
18612W        W36816  14.119   4.956  13.399  0.0530 -0.0598 -0.3113
18613W        W36817  11.233   1.254  15.273 -0.2036  0.1422 -0.1608
18614W        W36818   3.140   9.872  12.523 -0.2876 -0.1159  0.2448
18615W        W36819   9.113   4.052   3.539 -0.0076 -0.1013 -0.1305
18616W        W36820  11.596  15.186  12.508  0.0275  0.4126 -0.0263
18617W        W36821  10.625  18.677   1.141  0.4478 -0.2214  0.1012
18618W        W36822  15.582   8.539   0.967  0.3109 -0.2188  0.2724
18619W        W36823   8.504  17.831   3.199  0.0839 -0.3370  0.3979
18620W        W36824  12.245  10.633   1.204 -0.2167 -0.1539  0.0011
18621W        W36825  14.915  18.664   4.254  0.3272  0.0657  0.0322
18622W        W36826  11.122  10.991   3.280 -0.4087 -0.1311 -0.0771
18623W        W36827  15.896  11.609   3.218  0.2607  0.0710 -0.0100
18624W        W36828   9.032   6.165   3.067 -0.1564  0.1868  0.2523
18625W        W36829   1.802   6.641   0.523 -0.3095 -0.1567 -0.0494
18626W        W36830   9.548   0.573  10.407 -0.0653 -0.0984 -0.0230
18627W        W36831  11.741   3.716   2.732 -0.1420 -0.0310  0.3750
18628W        W36832   4.989   8.383   3.248 -0.1394  0.3042 -0.2229
18629W        W36833  17.767  10.059   3.568 -0.3444 -0.3371  0.2845
18630W        W36834  11.752  13.863   0.574 -0.3657 -0.1022  0.6261
18631W        W36835  12.787  15.189  13.618 -0.1586 -0.0851 -0.2358
18632W        W36836  11.964   3.955  11.857 -0.0943 -0.0568  0.0841
18633W        W36837   0.779   7.711   5.318 -0.1325 -0.2935 -0.1740
18634W        W36838  13.626   2.431   0.108  0.2218 -0.0136 -0.3634
18635W        W36839   1.180  15.172   3.915  0.0146  0.1678 -0.1223
18636W        W36840   1.286   7.599  14.838  0.3270  0.1240 -0.2147
18637W        W36841   3.328  10.608  12.278  0.0322 -0.1432  0.2348
18638W        W36842   5.184  17.070   2.110 -0.0197  0.1110  0.0115
18639W        W36843   1.906  11.438  13.814  0.1883  0.0502  0.1001
18640W        W36844  15.064   0.102  11.034 -0.0602 -0.1968 -0.0704
18641W        W36845   0.413  14.810  14.341  0.1152 -0.0261  0.1290
18642W        W36846  14.243   3.463  12.036  0.1033 -0.2957  0.2964
18643W        W36847   5.436   8.802  13.407  0.1071 -0.0692 -0.1800
18644W        W36848   6.990  15.030   2.419 -0.0377 -0.0288  0.1150
18645W        W36849   3.754   3.848   0.945 -0.5382  0.0207  0.1698
18646W        W36850  14.270  11.606   1.051  0.1433  0.4364  0.0089
18647W        W36851   1.988  14.790   2.353 -0.0859 -0.1533 -0.0767
18648W        W36852  11.853   0.031  12.270 -0.0795  0.2315  0.2995
18649W        W36853  14.027  16.485  15.319 -0.1166 -0.0541 -0.0309
18650W        W36854  15.288  10.193   4.832  0.2929 -0.1619  0.0836
18651W        W36855   6.150  10.921  13.888  0.0784  0.1767  0.1303
18652W        W36856   0.961   1.184   6.149 -0.0207  0.0014 -0.0312
18653W        W36857  15.505   1.506  13.021 -0.4108  0.1403 -0.0471
18654W        W36858  18.056   6.859   2.804 -0.3123  0.0485 -0.2176
18655W        W36859  16.242   3.733  15.318 -0.1245  0.1948 -0.1092
18656W        W36860   6.506   0.641   3.472 -0.0821 -0.0592  0.3397
18657W        W36861  17.782   6.529   3.049  0.0512  0.3398 -0.2216
18658W        W36862  11.767   6.049  14.046  0.2126  0.2255  0.0375
18659W        W36863   1.057   6.596   1.539  0.2033  0.0467  0.2853
18660W        W36864  13.653  11.356  14.860  0.2119  0.0209 -0.1379
18661W        W36865   2.962  17.378  12.528  0.0566 -0.0102  0.0642
18662W        W36866  15.575   2.503  14.595 -0.4593  0.1165  0.1524
18663W        W36867   6.916  12.969  13.615  0.1065  0.0269  0.4479
18664W        W36868   4.946   1.884   0.583  0.0748 -0.1701  0.1987
18665W        W36869  16.824   9.545   0.190  0.0566 -0.0798 -0.0284
18666W        W36870   5.389   8.567  14.463  0.2843 -0.4737 -0.0515
18667W        W36871   3.761  18.691  15.364  0.3123 -0.0717  0.2668
18668W        W36872   4.589   4.838   1.859 -0.3407 -0.1264 -0.1493
18669W        W36873  14.010   4.439   1.174 -0.0237  0.2926 -0.3098
18670W        W36874  18.105   8.198  13.943 -0.0747 -0.1250  0.2311
18671W        W36875  14.218   4.434  14.921 -0.0932 -0.0625  0.1971
18672W        W36876   5.379   0.338   0.309 -0.0709 -0.2640  0.0233
18673W        W36877  15.465  14.665   2.223  0.0244  0.2281 -0.3680
18674W        W36878  17.773   9.991   4.041  0.1888  0.1530  0.0888
18675W        W36879  18.256   3.792  11.618 -0.0121  0.1292 -0.2341
18676W        W36880   6.854  18.149   4.747 -0.2473 -0.2644  0.3700
18677W        W36881   1.065  13.977  11.277 -0.0144 -0.2061  0.1464
18678W        W36882  17.985  17.215  14.836  0.0224 -0.2710  0.2093
18679W        W36883   5.931  13.747  14.911 -0.0849 -0.0020  0.1948
18680W        W36884   2.691   9.735   2.731  0.1800  0.2227  0.2550
18681W        W36885  16.515   4.251   4.063 -0.0573 -0.0289  0.3465
18682W        W36886   6.749   3.649  15.093 -0.1948  0.1200  0.2926
18683W        W36887   6.804  13.290  13.252 -0.4373  0.0988  0.1079
18684W        W36888   9.874   2.197  14.762  0.1551 -0.2055 -0.2778
18685W        W36889  17.814   5.107  15.088 -0.0893 -0.2280 -0.0238
18686W        W36890  16.199   7.182   4.356  0.0314 -0.3461 -0.0145
18687W        W36891   7.704  14.195  13.203  0.1655 -0.0352  0.2022
18688W        W36892   3.929   3.985   0.416  0.2296 -0.0365 -0.2786
18689W        W36893  15.879  15.710   2.036 -0.1239 -0.0619  0.2101
18690W        W36894   5.551  14.716   2.518  0.0304 -0.1696  0.0663
18691W        W36895   8.579  12.228   4.272 -0.1516  0.0292 -0.0108
18692W        W36896   8.294   4.216  14.191  0.0042  0.0955 -0.1479
18693W        W36897  11.931  15.452   3.720 -0.1614 -0.1797 -0.1006
18694W        W36898  11.088   8.519  11.149  0.0604  0.2037 -0.0920
18695W        W36899  17.401   2.640  11.165 -0.0902 -0.1332 -0.2433
18696W        W36900  15.279  18.465   3.952  0.4311  0.1956  0.1009
18697W        W36901  15.792  15.020   0.984 -0.1187  0.2326 -0.1555
18698W        W36902   9.415   9.553   3.298 -0.5212 -0.0201 -0.1095
18699W        W36903  13.703   9.720  11.525 -0.2529 -0.1707 -0.1169
18700W        W36904   5.414   1.615   2.879 -0.2874 -0.2498  0.1381
18701W        W36905  14.469  14.394  15.060  0.0060 -0.1678 -0.2457
18702W        W36906  15.977   2.201  13.784 -0.1264 -0.2394  0.0854
18703W        W36907   2.310   6.357  11.231 -0.1051 -0.0643 -0.3688
18704W        W36908   9.972  12.434   3.628  0.2721  0.0310  0.1355
18705W        W36909  17.603  17.983   4.195  0.1801  0.1482 -0.0832
18706W        W36910   6.511   9.129  12.683 -0.1367  0.0852 -0.0269
18707W        W36911   5.228   7.948   2.558 -0.0409 -0.3352  0.1785
18708W        W36912  13.573   8.382   0.451 -0.2658  0.1540 -0.1597
18709W        W36913   8.201  13.484  12.985  0.0869  0.0596 -0.3003
18710W        W36914   3.641   2.559  11.309 -0.1366 -0.1479 -0.0748
18711W        W36915   4.879  16.069  11.333 -0.2751 -0.0847 -0.2476
18712W        W36916  16.264   1.462  11.157 -0.2331  0.2099  0.1350
18713W        W36917  10.701  10.224   3.545  0.1199 -0.0796  0.0290
18714W        W36918  17.348   8.171   2.049  0.5014  0.3124 -0.0787
18715W        W36919   0.071   9.377   3.783  0.1660 -0.2329 -0.0833
18716W        W36920   7.404  18.592   0.510 -0.0487  0.0596 -0.1294
18717W        W36921   8.255  11.541   0.505 -0.1861  0.1374 -0.1449
18718W        W36922  11.146  18.518   0.532  0.0043 -0.4181 -0.0974
18719W        W36923   1.903  18.164   4.270  0.1728  0.0504 -0.3076
18720W        W36924  10.634   6.167   0.511  0.0125  0.3493 -0.1876
18721W        W36925   9.849   0.576  13.475 -0.2645 -0.0766 -0.2158
18722W        W36926   4.633  12.285   0.934  0.0079 -0.4414  0.0967
18723W        W36927  18.039   3.007  13.671 -0.0750  0.0937  0.0514
18724W        W36928  10.722  13.826  15.291 -0.2527 -0.0705  0.2805
18725W        W36929  14.345   5.241   0.773  0.1438 -0.1668  0.1963
18726W        W36930  15.382  11.468   5.083  0.0955 -0.0541 -0.0000
18727W        W36931   9.568  18.554   0.609  0.1094 -0.0790 -0.3201
18728W        W36932  17.127   3.583   1.764  0.2965 -0.3567 -0.1235
18729W        W36933  16.124  16.827   0.345 -0.0635  0.1907  0.0807
18730W        W36934  11.792   4.549   2.388 -0.2883  0.0831  0.1794
18731W        W36935  17.461  11.616   0.717  0.1064 -0.1838 -0.0842
18732W        W36936   7.754   8.131   2.397  0.1473 -0.0937  0.0430
18733W        W36937  17.136  17.828   0.469 -0.1967  0.1760  0.1751
18734W        W36938   7.859  15.459  15.020 -0.1067 -0.3233  0.1866
18735W        W36939   7.529  13.143  12.699  0.2846  0.1596  0.0015
18736W        W36940   3.796  10.367  12.491 -0.2624 -0.0309 -0.1202
18737W        W36941   7.006  15.516   2.548 -0.0197  0.2351  0.0790
18738W        W36942   5.063   5.131   0.759 -0.1310 -0.2427 -0.1696
18739W        W36943   6.668  17.856   2.096 -0.0356  0.0042  0.0682
18740W        W36944  10.901   9.513  11.398  0.1229 -0.2348  0.3083
18741W        W36945   4.170  11.476   2.392 -0.0127 -0.2161 -0.1663
18742W        W36946   7.477  14.190  11.263 -0.0385  0.0455 -0.1294
18743W        W36947   3.004   8.312  14.917 -0.2952  0.3211  0.0186
18744W        W36948   8.111   9.918  14.292  0.1085  0.3559  0.3873
18745W        W36949  11.143   9.375  14.118  0.2383  0.1063 -0.0591
18746W        W36950   2.422  10.818  14.363 -0.0024 -0.0028 -0.0640
18747W        W36951   9.313   7.487   3.024 -0.0292  0.0156 -0.1069
18748W        W36952  13.643  13.691   0.298  0.3282  0.0827  0.0044
18749W        W36953  13.580   4.274  13.574 -0.2725 -0.4674 -0.0749
18750W        W36954  12.544  15.243  14.114  0.1494  0.0744  0.2771
18751W        W36955  12.978  16.083  12.650 -0.1968 -0.2546 -0.3472
18752W        W36956  17.670   8.900   3.808 -0.1798  0.3649  0.0414
18753W        W36957   1.817   8.596   3.134 -0.2566  0.0326  0.3878
18754W        W36958   1.864   3.615   5.503  0.0151 -0.0657 -0.4113
18755W        W36959  13.820   7.301  11.394 -0.3880 -0.0891 -0.1354
18756W        W36960  14.348   7.273  12.446 -0.0863 -0.1563  0.0325
18757W        W36961   2.990  18.411   0.253  0.0800 -0.1091  0.0697
18758W        W36962   0.255  11.576   2.812  0.3343 -0.1127 -0.1730
18759W        W36963  10.282  13.617   1.692 -0.3868 -0.1001  0.0551
18760W        W36964  17.008   6.520  10.876 -0.1419 -0.1782 -0.1539
18761W        W36965   6.006   9.934  12.368  0.2036  0.0396  0.1585
18762W        W36966   4.436  14.323  10.946  0.0954 -0.3863  0.1990
18763W        W36967   8.882   4.983   0.815 -0.2592  0.0703 -0.1570
18764W        W36968  14.500   6.134   4.710 -0.2087  0.1494  0.0057
18765W        W36969  17.107   8.801  11.838 -0.0057  0.2327 -0.1128
18766W        W36970  18.242   1.954   0.164 -0.0592  0.0193 -0.2238
18767W        W36971  14.453   4.785  13.730  0.1837  0.0457  0.3094
18768W        W36972  12.812  18.128   2.110  0.0402 -0.0218  0.1979
18769W        W36973  13.987  14.622   0.507  0.0902  0.0833 -0.1923
18770W        W36974  16.082   7.227  11.895 -0.1821 -0.6025 -0.0450
18771W        W36975   8.586   6.057   3.375  0.0595  0.0149 -0.0539
18772W        W36976  16.432  12.153   2.938 -0.1776  0.1117 -0.2115
18773W        W36977  16.057  15.675   2.957  0.0671  0.2631 -0.0029
18774W        W36978   5.951  15.434  13.631  0.0653 -0.2775 -0.1634
18775W        W36979   2.631   0.169   1.590  0.2903  0.0484  0.0690
18776W        W36980  12.643  17.812   0.255 -0.2476  0.0504  0.0670
18777W        W36981  17.596   5.084   0.071 -0.2557  0.2851 -0.0319
18778W        W36982   7.788   6.126   4.030  0.0952  0.1749  0.1086
18779W        W36983  14.336  15.003   2.796 -0.1436  0.1750 -0.0736
18780W        W36984  12.729   8.710  13.801  0.3201 -0.3422 -0.1070
18781W        W36985   2.521  14.492  13.411  0.1412  0.0445  0.2573
18782W        W36986  13.930  10.354   1.913 -0.1048 -0.2253  0.2141
18783W        W36987  16.253  12.800  14.621 -0.1587  0.0615  0.0287
18784W        W36988  11.129   3.032   3.330  0.0372  0.2601  0.2256
18785W        W36989   7.438   5.230   1.653 -0.0021 -0.2105 -0.2668
18786W        W36990   8.169   4.657   2.453  0.0369  0.1476 -0.2391
18787W        W36991  13.390   0.576   4.175  0.2031  0.0614 -0.0826
18788W        W36992   7.058   4.164  12.463  0.2911  0.1612 -0.1320
18789W        W36993   6.487   7.573  14.702  0.0024 -0.3161  0.2142
18790W        W36994   6.839  12.891  14.971 -0.2040 -0.2570 -0.0152
18791W        W36995   4.546  10.915  12.678  0.1180 -0.0249  0.1208
18792W        W36996   6.437  18.470  13.308 -0.0378  0.0927  0.0568
18793W        W36997   7.510   9.623  13.558 -0.1073 -0.4278  0.3414
18794W        W36998  10.476  15.802  10.907  0.0415  0.0099 -0.1797
18795W        W36999   3.587   0.156  11.849 -0.1183  0.0626 -0.4487
18796W        W37000  13.819  15.834  13.848 -0.0412  0.0231  0.4342
18797W        W37001   9.765   1.214  12.903 -0.2114  0.0738  0.0477
18798W        W37002  18.626   3.561  11.838 -0.0301  0.5031 -0.4110
18799W        W37003   5.899   0.508  13.775 -0.0073 -0.1810  0.0756
18800W        W37004   7.018   3.481  12.213  0.2216 -0.0986  0.0100
18801W        W37005   1.674   1.908  15.098 -0.0063 -0.3616  0.0413
18802W        W37006   9.771  15.711   4.400  0.2256 -0.0020  0.1019
18803W        W37007   1.927   1.009   5.674  0.1756 -0.0453 -0.1699
18804W        W37008   8.471  13.475  14.869  0.0959  0.1333 -0.1536
18805W        W37009  13.149   9.308   0.866 -0.0201 -0.0261  0.0924
18806W        W37010  18.306   6.515   3.715  0.1028  0.3804  0.1669
18807W        W37011   8.166   9.409  14.434  0.1466 -0.2739  0.1048
18808W        W37012  17.360  18.695  14.825  0.2218 -0.0970  0.2562
18809W        W37013   4.695  14.155  15.409  0.2976 -0.2250  0.2858
18810W        W37014   9.178   0.856  10.568  0.0017  0.2326  0.3432
18811W        W37015   8.752  17.468   3.413 -0.0472 -0.0680  0.1328
18812W        W37016  12.115  13.137   1.054 -0.1964 -0.1558  0.1112
18813W        W37017  10.022   3.500  15.367 -0.1282 -0.1350 -0.1032
18814W        W37018   6.458  16.568   0.809  0.2585  0.2787 -0.1719
18815W        W37019   8.962  14.228  13.008  0.0332  0.3604 -0.1251
18816W        W37020   8.946  13.980  12.577  0.3070  0.0838  0.2032
18817W        W37021  10.163  13.999   4.012 -0.1584 -0.0655 -0.5238
18818W        W37022  10.754   0.496   3.356  0.2724  0.0896 -0.0213
18819W        W37023   2.171   0.993   2.773 -0.1384  0.1510 -0.0374
18820W        W37024  11.514   5.833  14.879  0.0435  0.0117  0.2428
18821W        W37025  17.845  10.093   5.034 -0.1753  0.0511 -0.1291
18822W        W37026   2.204  16.052  12.460  0.1089  0.2169  0.0979
18823W        W37027   7.183   1.353  12.915 -0.7974 -0.1505 -0.0729
18824W        W37028   7.309  11.307   2.906  0.1621  0.0588  0.4519
18825W        W37029   8.506  11.653  14.409 -0.3003  0.0055  0.2089
18826W        W37030   5.007   2.574  14.134  0.0407  0.1119  0.2132
18827W        W37031  18.314   1.737   5.020  0.2569  0.0578  0.2703
18828W        W37032   2.205   4.612  11.842 -0.2552 -0.0936  0.0968
18829W        W37033  11.802   2.233   2.862 -0.0721  0.2821 -0.4436
18830W        W37034   2.168   0.388   1.759 -0.0517 -0.1411  0.0469
18831W        W37035  17.264   8.632   2.928 -0.2499  0.0629  0.5806
18832W        W37036  17.931   1.531   0.149 -0.3186 -0.0537  0.0153
18833W        W37037  17.634   8.192  11.219  0.0841  0.0667  0.5904
18834W        W37038   9.083   0.049  13.583  0.0329  0.1121 -0.0361
18835W        W37039  17.712   1.642   5.639 -0.0559  0.1503  0.2833
18836W        W37040  11.487   4.054   3.628  0.0525  0.0393 -0.3493
18837W        W37041   1.654   3.806  13.059  0.0660 -0.1343 -0.0367
18838W        W37042  18.019  18.459  14.881 -0.0774  0.0511 -0.1626
18839W        W37043  18.442   2.229  13.215  0.1870 -0.0741 -0.2417
18840W        W37044  14.681   0.635  14.003 -0.0240  0.0851  0.3147
18841W        W37045   8.323   9.781   1.158  0.1869  0.0787 -0.1654
18842W        W37046   2.417   1.949  10.944 -0.1007  0.0200 -0.1996
18843W        W37047   5.231  15.737  11.492  0.1242 -0.0575  0.3737
18844W        W37048  12.173  12.897   2.527  0.0330  0.1600 -0.2655
18845W        W37049   2.495  12.428   9.833  0.0437 -0.1353 -0.0347
18846W        W37050  16.528   9.848  10.293 -0.1472  0.1283  0.0115
18847W        W37051  17.266   7.493   3.739 -0.1965  0.0822 -0.0592
18848W        W37052  16.444   3.112   4.288  0.2164 -0.1746  0.1544
18849W        W37053   9.670   5.194   0.945  0.2339 -0.2154  0.0122
18850W        W37054  14.409  18.174   4.703 -0.0236  0.5600  0.1976
18851W        W37055   2.555  12.163   1.799  0.2897  0.0197  0.1045
18852W        W37056  17.721  13.244   4.035  0.0882  0.0675  0.1857
18853W        W37057   0.445   2.783  13.017  0.1418  0.0460 -0.3584
18854W        W37058   9.853   9.677   4.533  0.1513 -0.1344  0.1170
18855W        W37059   0.245  17.564   0.148 -0.4663  0.1778 -0.0597
18856W        W37060   4.623  18.451  11.506  0.0652 -0.4868 -0.0024
18857W        W37061  16.378   5.997   2.179 -0.2486  0.1557  0.0422
18858W        W37062   5.842   6.223   0.293 -0.0407 -0.0229  0.0894
18859W        W37063  13.415   1.962   0.928  0.2839 -0.1549 -0.2174
18860W        W37064  13.828   8.490   2.746 -0.0539  0.1167  0.0213
18861W        W37065  16.369  15.174   1.009  0.2695  0.1802  0.0465
18862W        W37066   1.358   4.304   3.900 -0.0501 -0.1337  0.0191
18863W        W37067   0.250   0.649   3.285  0.3305 -0.0073  0.0437
18864W        W37068   7.693   6.241  14.538  0.0025 -0.0056 -0.1819
18865W        W37069   9.580   2.203  13.799 -0.1952 -0.1643 -0.1904
18866W        W37070   1.207   5.171   2.255 -0.0639 -0.1360  0.1924
18867W        W37071   3.775   3.164  14.970  0.1498  0.0268  0.0167
18868W        W37072  10.238  17.511  14.276  0.1152  0.0553  0.1090
18869W        W37073   6.423   3.279   1.159  0.2827 -0.0705 -0.3264
18870W        W37074   3.247   1.612   3.001 -0.3219  0.1114 -0.1420
18871W        W37075  13.889  12.896   3.014 -0.3046 -0.2636 -0.1852
18872W        W37076   9.502   3.164  12.479  0.1133  0.0989 -0.4905
18873W        W37077  18.586  16.192   2.800 -0.0137  0.1129 -0.2184
18874W        W37078   7.730   9.638  14.485  0.0963 -0.0540 -0.1010
18875W        W37079   8.325  11.957   2.281  0.3897  0.4387 -0.0953
18876W        W37080  10.447   6.619  11.223 -0.0074  0.0464  0.4220
18877W        W37081  13.488  10.385   0.010  0.0516  0.2464  0.0918
18878W        W37082  17.331  16.557  15.099  0.2680  0.0120 -0.2107
18879W        W37083   6.138   6.906   3.868  0.2509  0.1185  0.0586
18880W        W37084  15.252   1.054   0.528  0.0022  0.1306 -0.0815
18881W        W37085  10.970   4.855   4.045  0.1222  0.0893 -0.0268
18882W        W37086  18.597   2.719   4.030 -0.1298  0.0455 -0.0633
18883W        W37087  11.404  16.092   0.852  0.0226  0.1692  0.1073
18884W        W37088   6.499   0.244   3.003  0.2007  0.1128  0.3820
18885W        W37089  16.484  15.213  14.612  0.0584  0.1778  0.1297
18886W        W37090   2.597  17.378   1.300  0.0557 -0.0235 -0.0874
18887W        W37091   9.509   6.289   3.181 -0.1064  0.1577  0.0294
18888W        W37092   7.347   0.568   2.926 -0.0938  0.2135 -0.0294
18889W        W37093   8.340  12.163  13.657 -0.1791  0.0217  0.0772
18890W        W37094   1.223  13.795  12.732 -0.1820 -0.0880 -0.1804
18891W        W37095   6.221   4.756  10.547  0.2377  0.1555 -0.0225
18892W        W37096   8.884   0.357  10.684  0.1060  0.3175 -0.0496
18893W        W37097   9.853  12.008   3.480  0.0676  0.1107  0.2194
18894W        W37098   1.348   1.071   9.672 -0.0335  0.3141  0.2525
18895W        W37099   2.311  13.604   1.414 -0.2651  0.0447  0.0578
18896W        W37100  17.493   6.339   5.028  0.1089 -0.2258 -0.0199
18897W        W37101   2.339  13.404   0.135 -0.0077 -0.1533  0.0519
18898W        W37102   1.902  10.342  10.822  0.0378  0.0083  0.3644
18899W        W37103   5.373  17.913   1.525 -0.0679  0.0727 -0.0296
18900W        W37104   0.518  16.041  13.614 -0.1376 -0.1771  0.1526
18901W        W37105   8.588  14.413   2.979 -0.0149 -0.0050  0.1471
18902W        W37106   7.997  11.142   1.267 -0.2221  0.5846  0.0278
18903W        W37107   5.440  11.190  11.564 -0.0074  0.3356  0.0257
18904W        W37108   0.333   9.493   2.775  0.2383 -0.0935 -0.2691
18905W        W37109  17.268   8.503  14.842 -0.1188  0.0513  0.1010
18906W        W37110  10.418   0.068  12.859 -0.0510 -0.2055  0.2284
18907W        W37111   6.813   4.685   0.833 -0.0437  0.2019 -0.2226
18908W        W37112   3.117   0.394  13.051  0.0038 -0.0689 -0.1827
18909W        W37113   9.685   8.151  11.562 -0.0616 -0.3688 -0.0934
18910W        W37114  18.417  17.687   0.907 -0.4710  0.0895  0.1321
18911W        W37115  18.253  10.164  15.411 -0.2140  0.2414  0.0678
18912W        W37116  12.310   2.607  12.665  0.2165  0.3311 -0.0801
18913W        W37117   4.818   5.226  14.831 -0.5328 -0.3544 -0.1642
18914W        W37118  17.472  16.738   3.536 -0.2462  0.0361  0.2234
18915W        W37119  18.675  12.376   5.091 -0.1376 -0.0845  0.0582
18916W        W37120  10.312  13.376  11.151 -0.3397 -0.1148  0.2950
18917W        W37121   9.293  17.380  14.981 -0.1230  0.0322  0.0575
18918W        W37122  13.337  13.999   3.987 -0.1539 -0.0450 -0.0738
18919W        W37123  10.656   8.052  13.958 -0.2532  0.1235 -0.0357
18920W        W37124  10.682  15.785   4.774 -0.0306 -0.1540 -0.1035
18921W        W37125  11.875   8.947  11.044 -0.1490 -0.0174 -0.0457
18922W        W37126   9.140   8.740   2.268  0.2521 -0.0651 -0.1983
18923W        W37127  12.023  16.388  11.790 -0.2051  0.1252 -0.2301
18924W        W37128  18.120   8.688   3.560  0.0817 -0.1073  0.0722
18925W        W37129   0.231  11.388   5.075  0.4191 -0.0975  0.1254
18926W        W37130   3.273  16.041   4.000 -0.0747 -0.0563  0.1544
18927W        W37131   1.899  16.118  11.922 -0.2249 -0.2164 -0.2436
18928W        W37132   4.893   9.943  14.149  0.1799 -0.0805  0.0146
18929W        W37133   8.087   0.833  10.197 -0.1176  0.2213 -0.0950
18930W        W37134  11.917  15.514  11.695 -0.0281 -0.0124 -0.1971
18931W        W37135  15.881   2.131  11.367 -0.2634  0.0733  0.1054
18932W        W37136  14.650  10.685   0.340  0.1000 -0.1562 -0.0284
18933W        W37137  10.246  10.285   1.118  0.0741 -0.0738  0.0264
18934W        W37138  15.618  16.435   1.529  0.0358  0.1292 -0.0293
18935W        W37139  17.446   5.843  12.103 -0.0978  0.0585  0.3202
18936W        W37140   3.021   7.077   1.746  0.2866 -0.4268 -0.1229
18937W        W37141  18.432  18.672   3.612  0.1682 -0.2317  0.0904
18938W        W37142   8.803   7.884  14.586  0.0535 -0.0976  0.0768
18939W        W37143  17.471  12.736   2.608 -0.2910 -0.1040 -0.0442
18940W        W37144  15.740  12.782  12.561 -0.1693  0.1737  0.1043
18941W        W37145   3.822  14.340   0.602  0.0925 -0.0873  0.0218
18942W        W37146   1.514  15.416  11.572  0.3881 -0.0076  0.1041
18943W        W37147   6.278   4.251   2.101  0.2496 -0.3195  0.1068
18944W        W37148   2.224   8.943  12.478  0.2294  0.0484  0.1745
18945W        W37149  10.959   3.940   3.829  0.0589 -0.0892 -0.1590
18946W        W37150   3.239  10.895  13.093 -0.2822 -0.0766  0.1660
18947W        W37151   7.026   4.891  12.189  0.2801  0.1437  0.3047
18948W        W37152   9.832   5.328  11.799  0.0655 -0.1672  0.0746
18949W        W37153  12.569   3.409   2.955 -0.3596  0.0523 -0.0003
18950W        W37154  17.613   5.063   4.610 -0.0042  0.1205  0.0517
18951W        W37155  10.373   4.065   4.874 -0.1538  0.2596 -0.0500
18952W        W37156   8.771   2.821  12.600 -0.0627 -0.1225 -0.1504
18953W        W37157   8.901  17.184  13.879  0.1804 -0.1724  0.0449
18954W        W37158   5.531   4.478   0.808 -0.0125 -0.1407 -0.1168
18955W        W37159  18.661  14.303   1.190  0.2919 -0.3674  0.1719
18956W        W37160   1.205   4.021   0.077 -0.0659 -0.3549  0.0160
18957W        W37161  17.289   3.370   0.603  0.3954 -0.0571 -0.2054
18958W        W37162   9.153   4.853   4.503 -0.0064  0.0984 -0.2864
18959W        W37163   7.720  11.234  11.992 -0.1295 -0.1561 -0.4043
18960W        W37164   0.213   7.965   1.359  0.1435  0.2032 -0.2961
18961W        W37165   1.429  15.371  12.099 -0.1628  0.3069  0.0983
18962W        W37166  12.910   7.362   0.074  0.2993 -0.2024  0.2361
18963W        W37167  15.375  13.377   3.797  0.1220 -0.1712 -0.0960
18964W        W37168  15.492   3.159  14.655 -0.0144 -0.1014  0.1555
18965W        W37169  13.430  13.933  14.752  0.0326 -0.1186 -0.0338
18966W        W37170   8.926   5.402   1.861 -0.0846  0.0008  0.0370
18967W        W37171   4.078  18.141   3.266 -0.1442 -0.0352 -0.3730
18968W        W37172  16.794   3.372   3.949  0.0574 -0.0737 -0.1770
18969W        W37173   4.835   4.221  12.023  0.2722  0.2269 -0.1630
18970W        W37174  13.435  15.114  14.767 -0.1340  0.2662 -0.1377
18971W        W37175   0.934  11.306   4.333  0.0119  0.0525  0.4779
18972W        W37176  16.255  12.309  12.349  0.0650  0.3251  0.0250
18973W        W37177   5.077  13.224   2.295 -0.0174  0.0224 -0.0453
18974W        W37178  10.477  17.554  12.083  0.1779  0.4089  0.1508
18975W        W37179   1.902  17.448   2.032 -0.2308  0.2946  0.2379
18976W        W37180  14.873   3.999  12.673  0.0654  0.1539 -0.0249
18977W        W37181   6.337   5.825   1.481 -0.3228  0.3162  0.0860
18978W        W37182  17.507  11.223   3.590 -0.2065  0.0761  0.4592
18979W        W37183   5.831   4.947  12.838  0.1447 -0.2267 -0.0177
18980W        W37184   6.009   4.458  13.061  0.1536 -0.0101  0.0516
18981W        W37185   9.369  12.883  10.427  0.4418  0.2313 -0.1265
18982W        W37186  14.927   9.424   2.833  0.0990  0.2626 -0.0202
18983W        W37187  18.694   8.984   2.771  0.1744  0.0756 -0.1303
18984W        W37188  13.981   5.931   0.091 -0.3862  0.2730  0.0444
18985W        W37189  12.974  17.982   4.442 -0.0265 -0.2105 -0.0534
18986W        W37190  13.931   8.165   3.697 -0.0456 -0.0720 -0.0940
18987W        W37191  13.543   8.355  10.435 -0.0141 -0.0493 -0.2307
18988W        W37192  14.875  13.676   2.613 -0.1069 -0.0498  0.0240
18989W        W37193   6.550  14.620  12.075 -0.1753 -0.2354 -0.0989
18990W        W37194  14.308   7.427   4.394 -0.0377 -0.0698  0.0617
18991W        W37195  18.040  17.561  11.944  0.2137  0.2035  0.0713
18992W        W37196  10.718   3.711   0.812  0.1548 -0.1740  0.0088
18993W        W37197   8.420  13.600   3.489  0.1683  0.0158  0.1529
18994W        W37198  13.986   4.714   2.082  0.0992  0.0265 -0.0175
18995W        W37199  11.373  17.029   3.960  0.0011  0.1434 -0.1930
18996W        W37200  14.976   0.843   1.474  0.1309 -0.1423 -0.0172
18997W        W37201   5.448   2.519  13.375 -0.3763  0.1214  0.0409
18998W        W37202   0.548  11.010  14.292 -0.0753  0.0036  0.0397
18999W        W37203   8.814  17.210  14.974 -0.1429 -0.0238 -0.1584
19000W        W37204   5.506  18.646   4.898 -0.0694  0.1771  0.0150
19001W        W37205  16.021   5.552  11.133  0.0024 -0.0462 -0.0428
19002W        W37206   0.972   2.111   1.070  0.1234 -0.3426  0.3073
19003W        W37207  15.215   7.327  14.009  0.1396 -0.0055  0.0582
19004W        W37208  12.706   8.838   5.252  0.1815  0.2559  0.1062
19005W        W37209   9.463  18.593   1.940  0.2304  0.0233  0.0823
19006W        W37210   2.059   7.274   0.550  0.0553  0.1683 -0.3005
19007W        W37211  16.351   9.296  13.083  0.0290 -0.2457  0.1329
19008W        W37212   4.113  15.407  12.933 -0.0096 -0.0362  0.0135
19009W        W37213  16.636  10.141   1.424 -0.1635 -0.3519  0.0770
19010W        W37214   6.406  14.440  13.955 -0.0135 -0.2055  0.0816
19011W        W37215   7.222   0.117   2.755 -0.2177  0.0455 -0.0251
19012W        W37216   5.231   2.028  13.134  0.1097  0.1491  0.0021
19013W        W37217   0.784  15.564  15.384 -0.0386 -0.1840  0.1353
19014W        W37218  15.957   2.959   0.089  0.2328 -0.1225  0.0261
19015W        W37219  18.509   2.874  14.437  0.0848 -0.1807 -0.1116
19016W        W37220  12.187   9.953  11.287  0.0605  0.0970 -0.0394
19017W        W37221  14.701   1.604  14.966  0.1840  0.1823  0.1151
19018W        W37222   1.789  14.778   1.209 -0.0104 -0.0626 -0.0082
19019W        W37223   3.064  11.050  14.902  0.0545  0.3822 -0.2291
19020W        W37224   9.661   1.364  11.650 -0.4302  0.0714  0.0140
19021W        W37225   6.709  11.781  11.845 -0.2228  0.3778  0.3678
19022W        W37226  13.018  13.642  15.412  0.3520  0.0052 -0.4036
19023W        W37227   0.512   3.254   3.041 -0.0422 -0.1426  0.3636
19024W        W37228   8.037   0.896  13.486 -0.1026  0.0913  0.1578
19025W        W37229  17.383  16.121   3.256 -0.2765  0.3188  0.3162
19026W        W37230   0.924  18.057  11.846 -0.0936 -0.1070 -0.0115
19027W        W37231   6.335  13.499  14.150  0.0837 -0.1407 -0.0158
19028W        W37232  12.324   2.763  13.225 -0.2670  0.1354  0.0806
19029W        W37233  11.390  16.999  12.907 -0.1908  0.2315 -0.0053
19030W        W37234   5.282   5.785   1.915  0.0977  0.0267  0.0948
19031W        W37235  14.371  12.062   3.347  0.1141  0.0765  0.0228
19032W        W37236   0.381  14.652   2.051  0.1895 -0.2888  0.2393
19033W        W37237   4.331  18.178   2.013 -0.2351 -0.0877 -0.0882
19034W        W37238  14.970  13.181   2.810 -0.0337 -0.1827  0.0950
19035W        W37239   9.745   0.558  13.960  0.0222  0.1115  0.0332
19036W        W37240   8.959   7.528  11.937 -0.1387  0.0340  0.0927
19037W        W37241  17.769  12.109  11.332  0.2081  0.1475  0.1511
19038W        W37242  16.417   4.376  11.370 -0.4750 -0.2893 -0.3916
19039W        W37243  11.096  13.133  13.333  0.2005 -0.0718  0.0092
19040W        W37244   1.735   7.562  14.278  0.0916  0.0953  0.0257
19041W        W37245  11.013   4.970   0.783  0.1929 -0.2682 -0.1959
19042W        W37246   5.001  10.590   2.289 -0.3221 -0.2011  0.2739
19043W        W37247   5.280   2.945   2.133 -0.1615  0.3762 -0.2744
19044W        W37248   6.668  15.724   4.276  0.6506  0.0085 -0.2996
19045W        W37249  13.834   5.649  15.107 -0.0270  0.1658 -0.2377
19046W        W37250   9.683   6.094   1.919 -0.1570 -0.0591 -0.1389
19047W        W37251  12.881   7.501  15.009 -0.2379  0.2268  0.1995
19048W        W37252   8.011  18.595  10.656 -0.0597 -0.0000 -0.2422
19049W        W37253   2.851  10.040  12.872  0.0104 -0.0763 -0.1969
19050W        W37254  12.879   9.344   3.427 -0.3806 -0.1529 -0.0031
19051W        W37255  14.691   4.815  12.200 -0.2990 -0.1526  0.2416
19052W        W37256   2.145  10.548  12.548  0.2295 -0.0486 -0.3701
19053W        W37257   0.855  12.647  11.110  0.1300  0.0134 -0.0644
19054W        W37258   9.592  16.187  11.158  0.0677  0.2238 -0.1424
19055W        W37259   8.054   2.555   1.680 -0.0390  0.1388  0.1597
19056W        W37260   3.964   6.786  11.072  0.0628 -0.0099 -0.1286
19057W        W37261  12.757  15.100   3.435  0.1663 -0.1139 -0.1445
19058W        W37262   0.916   8.931  14.670 -0.0686 -0.1740  0.3565
19059W        W37263  14.390  15.765   0.225 -0.1749 -0.2436 -0.0474
19060W        W37264  18.614  16.143   1.344  0.0121  0.0420  0.1970
19061W        W37265   5.967   0.013   2.824 -0.2645  0.0027  0.2539
19062W        W37266  17.112  10.187  14.987 -0.0109 -0.0501  0.1582
19063W        W37267   9.474  15.439   0.494 -0.5780 -0.0842  0.1703
19064W        W37268   9.744   1.611  10.079 -0.1606 -0.2468  0.0864
19065W        W37269   7.702   4.278  11.626 -0.1949  0.2650 -0.0761
19066W        W37270  16.415   6.935  11.608 -0.1737 -0.1724 -0.4974
19067W        W37271   0.126  12.227   0.653 -0.3263  0.1355 -0.3358
19068W        W37272   1.899   2.363  15.427 -0.0803  0.1438 -0.0349
19069W        W37273   0.219  15.648  11.179 -0.1230 -0.0021 -0.1850
19070W        W37274  10.008  11.648   4.804  0.4117 -0.0384 -0.3259
19071W        W37275   7.249   0.295   2.141  0.0356  0.0317 -0.0782
19072W        W37276   7.784   1.572  15.149  0.0209  0.1881 -0.3450
19073W        W37277  13.516   8.587   1.462  0.0715  0.0810 -0.1974
19074W        W37278  12.894  16.665  10.591  0.2501  0.1725 -0.0257
19075W        W37279  11.021   8.262   4.100  0.1435  0.1556  0.0703
19076W        W37280   1.682  10.082  10.442  0.2386 -0.1257 -0.0680
19077W        W37281  13.729   5.039   2.402  0.1684  0.0387 -0.1530
19078W        W37282  10.421   9.110   4.478  0.1178 -0.1274 -0.0173
19079W        W37283   8.194   3.391   1.013  0.0406  0.0619  0.1337
19080W        W37284   2.393   5.090   4.230 -0.0674 -0.1590  0.3128
19081W        W37285  12.638   2.422   0.392 -0.2209 -0.2812  0.5454
19082W        W37286  16.234   8.882   0.753 -0.1049  0.0843  0.1509
19083W        W37287   4.546   2.598   1.884  0.1110  0.0850  0.0495
19084W        W37288   5.591   7.955   1.719 -0.0934 -0.2576  0.1863
19085W        W37289  13.109  18.002   0.038 -0.0207 -0.3312 -0.1516
19086W        W37290   7.536   3.264  12.363  0.0370 -0.0391  0.3526
19087W        W37291   7.735  15.284   3.351  0.4293  0.1810 -0.0629
19088W        W37292  10.256  15.453   2.743  0.3020 -0.0460 -0.1159
19089W        W37293  15.127   6.872  15.396 -0.1303  0.0857  0.3830
19090W        W37294   8.987   5.224   2.640 -0.0263 -0.1095 -0.3081
19091W        W37295  18.149   2.582  13.530  0.0102  0.2202  0.3598
19092W        W37296   7.959   7.684   2.230  0.2332 -0.2013 -0.2839
19093W        W37297   8.663   9.914   0.806 -0.2310  0.3298 -0.0188
19094W        W37298   4.325  14.278  13.269  0.0281  0.0998 -0.1440
19095W        W37299   2.773   6.504  15.421 -0.0677  0.0162 -0.1674
19096W        W37300   3.601  17.955   0.450 -0.1438  0.2787 -0.2092
19097W        W37301   9.009  11.723   0.740 -0.2973  0.2905 -0.0254
19098W        W37302  13.865   3.903  13.438 -0.1810 -0.0442 -0.0600
19099W        W37303  11.699   9.553  15.420  0.1532 -0.1236 -0.0731
19100W        W37304  14.604  13.360  13.025 -0.0268 -0.3125  0.3800
19101W        W37305   9.726  15.865   1.431 -0.1183  0.0545  0.0826
19102W        W37306  17.205  17.679   4.302  0.2231 -0.0133 -0.0643
19103W        W37307  13.045  14.151   0.707 -0.2726 -0.1467 -0.3232
19104W        W37308  11.424  15.459  14.599  0.2458  0.3088  0.1473
19105W        W37309   7.332  10.993   4.588  0.1453 -0.3960 -0.1853
19106W        W37310  13.735   0.197  12.592 -0.0710 -0.2682  0.1338
19107W        W37311   0.607   0.335  13.155 -0.0818 -0.1075 -0.2765
19108W        W37312   7.741  10.942   1.997  0.1300  0.0650  0.0354
19109W        W37313   4.079   0.056   3.519 -0.1807 -0.1795 -0.2692
19110W        W37314   3.465  13.861   0.072 -0.1555  0.0376 -0.2421
19111W        W37315  18.017  15.337   3.434 -0.1635  0.1140  0.2361
19112W        W37316  13.558   4.566  14.009 -0.1122  0.2532  0.1107
19113W        W37317  16.225  10.309  14.838  0.0432 -0.3162 -0.0813
19114W        W37318   5.055   1.874   4.150  0.0403 -0.0623  0.1291
19115W        W37319   8.209  14.887   5.131 -0.3700  0.1018 -0.0675
19116W        W37320   8.252  12.650   3.107  0.1079  0.1072 -0.0074
19117W        W37321   8.936   7.818   3.269  0.1923 -0.1070 -0.2180
19118W        W37322  11.497   8.722  11.289  0.1198  0.0913 -0.0075
19119W        W37323   8.254   4.925   2.008 -0.0452 -0.1264 -0.4029
19120W        W37324   5.339   0.646   2.642 -0.0123 -0.3277  0.2240
19121W        W37325   2.468   5.663   4.264 -0.2101 -0.1576 -0.1026
19122W        W37326   2.120  11.621  10.728 -0.0390  0.0699 -0.1272
19123W        W37327  18.339   6.323   0.099  0.0082 -0.0703 -0.3305
19124W        W37328   7.689   8.427   3.968  0.2185  0.0462 -0.0161
19125W        W37329   4.792  16.733   5.486  0.1493 -0.0920  0.2182
19126W        W37330   4.378   8.665  14.637  0.5394  0.1937 -0.0224
19127W        W37331  13.375  16.113  11.461 -0.3826  0.1808 -0.0928
19128W        W37332   0.454   5.676   2.442 -0.2153  0.0978 -0.2423
19129W        W37333  11.725  15.690   2.809  0.2386  0.1714 -0.3089
19130W        W37334   2.809  18.505  10.720 -0.2774  0.1369  0.2303
19131W        W37335   4.592  14.367   4.763 -0.0749  0.0005 -0.1961
19132W        W37336   8.144   7.915   4.509 -0.1949 -0.0346 -0.1533
19133W        W37337   2.020  12.038   1.678  0.0723  0.1575  0.0099
19134W        W37338   2.913   3.274  11.134 -0.1165  0.0831 -0.2009
19135W        W37339   4.342  11.368   0.713 -0.0278  0.2786  0.2474
19136W        W37340  16.181   6.700   4.092  0.0782  0.1518 -0.0712
19137W        W37341   9.264  10.056  12.835  0.0840 -0.3426 -0.1417
19138W        W37342  13.924  16.867   0.552  0.2647 -0.0989  0.4214
19139W        W37343  11.682  13.846   5.456 -0.2285  0.1662  0.1395
19140W        W37344   4.380   1.112  14.627 -0.0417  0.1532  0.1711
19141W        W37345   3.131   0.520   0.691  0.0125 -0.0236 -0.1835
19142W        W37346   8.133  16.220   3.104 -0.1348  0.0166  0.0139
19143W        W37347  15.833  17.205  10.810  0.0924  0.3126  0.2723
19144W        W37348   1.653  11.753  11.634  0.0076  0.4674  0.1511
19145W        W37349   2.863  14.707   4.500 -0.3014 -0.0431  0.0386
19146W        W37350  17.356   5.547  14.640  0.0474  0.0326 -0.2272
19147W        W37351   0.574  17.223  13.214 -0.1226 -0.3154  0.1670
19148W        W37352  11.475   0.130   3.375 -0.0144  0.1547 -0.1035
19149W        W37353  18.318   6.026   3.749 -0.0495 -0.0682 -0.0290
19150W        W37354  10.052   2.395   5.269  0.0539 -0.2894  0.1799
19151W        W37355   0.282   4.777   4.323  0.0529 -0.3431 -0.2395
19152W        W37356  13.474  11.714  12.508  0.1970  0.2003  0.1769
19153W        W37357   0.018  11.626   1.435  0.3383 -0.0598 -0.0649
19154W        W37358  15.235  12.162  10.088  0.2213  0.0969 -0.0785
19155W        W37359   1.997   0.715   4.038 -0.2994  0.0034 -0.0493
19156W        W37360   8.589  17.012   1.940 -0.2101  0.2506  0.0998
19157W        W37361   0.658   0.310  14.629 -0.0722 -0.2848  0.0028
19158W        W37362  15.844  12.213   5.570  0.0541 -0.0818 -0.0404
19159W        W37363  13.843  17.578  10.843 -0.0919  0.0477  0.0992
19160W        W37364   7.410  10.344   3.357 -0.3530  0.0592 -0.0644
19161W        W37365   9.825  10.076  14.611  0.0846  0.0946 -0.1037
19162W        W37366   7.059   3.372   2.391  0.3095 -0.0317 -0.2426
19163W        W37367  11.292   6.440   4.518  0.1500  0.0185 -0.1575
19164W        W37368   3.677   9.839  11.307 -0.0062  0.0337  0.0070
19165W        W37369   0.360  16.854  11.497 -0.2524  0.1691 -0.0295
19166W        W37370   2.856  12.566  11.674  0.0385 -0.0362  0.0505
19167W        W37371  14.248  13.072   3.348 -0.0362  0.0639 -0.1576
19168W        W37372  17.845   0.854   1.470  0.1567 -0.1105 -0.3329
19169W        W37373   3.196   9.194  11.812 -0.0022  0.0686  0.0176
19170W        W37374  10.687  12.986   2.358  0.0094 -0.6755 -0.4757
19171W        W37375   6.657   7.336   0.226  0.4471 -0.1050  0.0901
19172W        W37376   8.261   0.004  14.379  0.1893 -0.0964 -0.3042
19173W        W37377   7.039   6.359  12.333  0.1288  0.1152  0.1658
19174W        W37378  17.788   1.884   4.887 -0.0949 -0.1154 -0.0920
19175W        W37379   2.292  12.493   3.343  0.1194 -0.2968 -0.1580
19176W        W37380  13.683   5.112  14.943 -0.0994 -0.2029  0.3398
19177W        W37381  16.366   0.195   4.205 -0.0320 -0.1171  0.0668
19178W        W37382   4.840   0.575   3.721  0.1113 -0.3621 -0.1551
19179W        W37383   8.362   0.537   4.379  0.4193  0.2604 -0.1632
19180W        W37384   2.455   2.633  11.338 -0.0576 -0.1261  0.6963
19181W        W37385   6.498   6.646   0.922  0.3631  0.3079  0.0379
19182W        W37386   2.122  14.881   0.738 -0.0550 -0.0080  0.0613
19183W        W37387  15.090  16.057   5.819 -0.3146  0.0633  0.0259
19184W        W37388   8.038   6.230   1.995 -0.0617 -0.0359  0.1418
19185W        W37389  17.857   2.323   0.779 -0.1216  0.0130 -0.3479
19186W        W37390   8.359  17.266  10.119 -0.0107  0.1016  0.1429
19187W        W37391   5.663   3.178   3.829 -0.2553  0.2565  0.1989
19188W        W37392   4.530   5.723   2.285  0.1250 -0.1025 -0.2368
19189W        W37393   3.632  11.008  12.224 -0.1995 -0.1505 -0.1033
19190W        W37394   7.542  15.223  13.210 -0.1566  0.2237 -0.1291
19191W        W37395  11.964  17.066   2.003  0.1433 -0.1107 -0.2135
19192W        W37396   4.573   0.720   1.601  0.1261 -0.1245 -0.1306
19193W        W37397   9.077   8.937  12.834 -0.1599 -0.0571 -0.2510
19194W        W37398   9.708   6.989   0.692  0.0725 -0.0415 -0.0666
19195W        W37399   3.166  11.853   3.370 -0.6008  0.0976 -0.0732
19196W        W37400   4.478   5.296  12.192 -0.0003  0.0813  0.1780
19197W        W37401  13.570  15.766  12.744 -0.2291  0.0180  0.1320
19198W        W37402   3.369   2.118  13.543 -0.2110  0.1180 -0.2572
19199W        W37403  11.127   4.995  13.609  0.0001  0.0519  0.0238
19200W        W37404   3.957   7.214  13.195 -0.0363  0.2812 -0.0873
19201W        W37405   2.404   8.686   2.446  0.0071 -0.0459  0.0910
19202W        W37406   3.366   3.936   1.293 -0.1256 -0.3047  0.2437
19203W        W37407   6.780  15.610  11.580 -0.3231 -0.2023  0.2258
19204W        W37408   9.052  17.928   4.256 -0.2576  0.0906 -0.0794
19205W        W37409   5.775  14.846   4.108 -0.0029 -0.2548 -0.2445
19206W        W37410   5.244   0.990   3.021 -0.3478  0.0925 -0.1197
19207W        W37411  10.704   5.494   2.431 -0.2035  0.2562  0.0943
19208W        W37412   5.721   0.286   3.537 -0.3107 -0.1772 -0.0954
19209W        W37413  10.370   4.095   0.515 -0.2925  0.0520 -0.0379
19210W        W37414  12.585   1.437  13.477 -0.0532  0.1346  0.0835
19211W        W37415  17.488  14.660   3.097  0.0657  0.0749 -0.4685
19212W        W37416  10.772  17.137  14.584  0.0487  0.1049  0.0815
19213W        W37417  17.562   4.592   2.088 -0.0171  0.1128  0.3309
19214W        W37418  13.781  16.743  10.802 -0.1886  0.1680 -0.0217
19215W        W37419  11.871   6.615   2.506 -0.2188  0.2092  0.1220
19216W        W37420   4.489  17.552   1.251  0.1780 -0.0767 -0.2126
19217W        W37421   9.637   6.093  10.866 -0.4573 -0.1647 -0.1759
19218W        W37422   3.041   8.026  15.356 -0.2041  0.0182 -0.2381
19219W        W37423   0.103  12.964  11.465  0.1071 -0.0687 -0.0704
19220W        W37424   7.888  14.442   1.010 -0.0379  0.3686  0.0360
19221W        W37425   6.433   7.263   2.670 -0.0951 -0.0493 -0.1249
19222W        W37426   6.622   9.984   3.408 -0.1154 -0.0635 -0.3733
19223W        W37427  15.971   2.634  11.212 -0.0396 -0.2390 -0.3132
19224W        W37428  18.523   7.362  12.625  0.2016 -0.1573 -0.2704
19225W        W37429   7.958   0.387  13.729  0.0072  0.0440 -0.1083
19226W        W37430  11.991  14.247  12.516  0.0309  0.1046  0.1520
19227W        W37431   7.672  10.827   1.506 -0.2267  0.1524 -0.1475
19228W        W37432  10.653   1.254  14.066  0.1870 -0.0055 -0.0340
19229W        W37433  15.421   4.020  13.012 -0.3346  0.2205  0.0493
19230W        W37434  17.799  16.878  10.969  0.0994  0.2229 -0.1820
19231W        W37435   7.319   5.934   3.487  0.3852 -0.1391  0.4308
19232W        W37436   2.086   2.682   3.892  0.0489  0.3199  0.0946
19233W        W37437   8.629   9.277   4.312  0.0428  0.2669  0.0471
19234W        W37438  11.657   3.187  11.327  0.0102 -0.0489 -0.0436
19235W        W37439   7.143  16.412  12.608  0.3092 -0.1734 -0.2599
19236W        W37440   7.044   3.067  15.135 -0.3059  0.0312 -0.2481
19237W        W37441  13.373   1.135  13.943 -0.0035  0.4150 -0.3602
19238W        W37442  12.150  15.969   3.543  0.0556 -0.0164  0.1582
19239W        W37443  13.229  15.356   2.682 -0.0667  0.3366  0.0589
19240W        W37444   5.920   0.668  10.936 -0.2431  0.2647  0.1382
19241W        W37445  16.775   1.713  13.098 -0.2937 -0.1430 -0.1545
19242W        W37446  10.884  16.603  13.611 -0.0069  0.0187 -0.0446
19243W        W37447   8.025   4.635   3.767 -0.3167  0.1706 -0.0478
19244W        W37448   6.793  15.512   0.695 -0.0849 -0.0748 -0.3741
19245W        W37449   4.121  15.870   9.942  0.0055  0.1473 -0.0863
19246W        W37450   4.159  10.194  14.722 -0.0050  0.0438 -0.0866
19247W        W37451  17.062   6.203  14.160  0.1640  0.0100 -0.0186
19248W        W37452   2.119   2.177   0.443 -0.1457 -0.0428  0.0352
19249W        W37453   7.835  17.991   0.467  0.0417  0.1200 -0.5832
19250W        W37454   9.992   0.165   3.690 -0.0693 -0.0198 -0.0671
19251W        W37455  11.786   9.673  14.958  0.1411  0.0065 -0.1529
19252W        W37456   3.142  10.959  11.420  0.1219  0.0885  0.0894
19253W        W37457  15.804  10.065  11.391  0.1598 -0.0411  0.3077
19254W        W37458   7.610   2.326  11.308 -0.0489 -0.1574 -0.3283
19255W        W37459  11.328   0.101   3.972 -0.3885 -0.0791  0.1491
19256W        W37460   4.464  18.183  14.881  0.0536  0.0021  0.0672
19257W        W37461   3.911  14.375  11.094  0.1017 -0.0397  0.1787
19258W        W37462  16.187  12.932   2.657  0.1319 -0.2124 -0.0114
19259W        W37463   9.808   6.628   4.494 -0.2332  0.0800 -0.0176
19260W        W37464  14.992   0.884  11.198  0.0953 -0.0713 -0.1979
19261W        W37465   6.574   9.699  11.899 -0.1163 -0.0618 -0.1285
19262W        W37466   9.307   3.344  11.383 -0.0605  0.2538 -0.2023
19263W        W37467  15.213   6.836   0.870 -0.0484  0.2461 -0.1114
19264W        W37468  18.067   8.117  14.663  0.2391 -0.0906  0.0235
19265W        W37469   8.740  15.619   2.641 -0.0408  0.1467  0.3914
19266W        W37470  15.197  14.593   2.652 -0.1175 -0.2357  0.0155
19267W        W37471  10.349   5.624  10.842 -0.2310 -0.3014  0.1294
19268W        W37472   0.288  16.593  11.906 -0.2231 -0.2018 -0.0796
19269W        W37473  17.212   8.656   3.388 -0.0337 -0.2117 -0.1671
19270W        W37474  17.549   6.471  12.717 -0.5837 -0.1218 -0.3727
19271W        W37475   1.243  13.280  14.081 -0.2617 -0.1533  0.0512
19272W        W37476   7.621  12.520   0.203  0.2224  0.0643 -0.5692
19273W        W37477   2.448   0.903   1.683 -0.1855  0.2240  0.1184
19274W        W37478   3.184  11.716   4.260  0.0221  0.3335  0.0613
19275W        W37479  17.950   0.881  11.960  0.0938  0.5329  0.0771
19276W        W37480  12.605   6.962   5.060 -0.1324 -0.2397 -0.3351
19277W        W37481  15.537   9.919  13.890 -0.0366  0.0499  0.3593
19278W        W37482   0.574   3.936   1.252  0.2168 -0.0401  0.1141
19279W        W37483  14.363  12.527  11.728  0.0291  0.2736  0.1184
19280W        W37484  14.697  16.857  10.003  0.2191 -0.1806  0.0650
19281W        W37485  12.954  16.591  15.295  0.0279  0.1544  0.2679
19282W        W37486   7.748  10.747  15.454  0.2318 -0.0526  0.1691
19283W        W37487   9.897   6.821   1.151  0.0840  0.1489 -0.1392
19284W        W37488   4.549   4.683  11.252 -0.0927 -0.3338 -0.3060
19285W        W37489  11.294   0.500   5.689 -0.1572  0.2568  0.3905
19286W        W37490   0.032  12.899   0.475 -0.0499  0.2196 -0.1644
19287W        W37491  13.813   8.415  13.293 -0.1591 -0.1207  0.1006
19288W        W37492   3.129   3.735   0.913  0.0623  0.0509  0.1305
19289W        W37493   8.395  18.231   2.325 -0.1501  0.2179 -0.1368
19290W        W37494   9.930  10.061   1.526  0.4101  0.0053  0.1882
19291W        W37495   4.858   5.010  10.976 -0.2422 -0.1440  0.0375
19292W        W37496  12.008  16.514   4.304  0.1296  0.3455 -0.5217
19293W        W37497  16.592  17.191  13.773 -0.2120  0.1544 -0.0923
19294W        W37498  10.560   5.730   5.432 -0.3265  0.0175  0.2217
19295W        W37499  13.063  14.435  14.791 -0.2805 -0.2240  0.1585
19296W        W37500  14.199  16.240   2.979  0.0184 -0.1501  0.3501
19297W        W37501   5.473   7.504   2.000 -0.3942 -0.0538 -0.1292
19298W        W37502  16.801   7.797  11.691  0.2695 -0.0282 -0.0609
19299W        W37503   5.943   9.880  13.282 -0.1659  0.1492  0.2442
19300W        W37504   3.646   5.365   0.579 -0.1531  0.1239 -0.0334
19301W        W37505   1.061  16.901   1.785 -0.1969 -0.1611  0.3122
19302W        W37506  12.574   7.327  12.050  0.5176  0.0164  0.2999
19303W        W37507   6.893   7.095   4.208  0.1426  0.2058 -0.0657
19304W        W37508  16.757   7.275  15.139  0.0791 -0.1390  0.0666
19305W        W37509   9.875   6.239   1.132 -0.0110 -0.0582  0.1776
19306W        W37510   1.147   3.712   2.561  0.1814 -0.0173  0.1400
19307W        W37511   8.211  10.983  12.187  0.0700  0.2763 -0.3171
19308W        W37512   5.784  10.257  11.610 -0.0218  0.0878  0.0564
19309W        W37513  14.243   1.785  15.161 -0.0968 -0.1187  0.2119
19310W        W37514   9.234   3.834  11.067 -0.1471  0.2385 -0.0730
19311W        W37515   3.049  14.828   9.948 -0.0322 -0.0480  0.0012
19312W        W37516  10.780   3.875   2.947 -0.0109  0.0932  0.1842
19313W        W37517  14.553   3.083  12.186  0.0296  0.2858 -0.1563
19314W        W37518   1.423   5.291  12.294 -0.0587  0.1394 -0.0817
19315W        W37519  17.618   4.630  13.018  0.2072  0.3212 -0.1934
19316W        W37520  13.091   2.622  13.753 -0.3064  0.0454 -0.3238
19317W        W37521  16.874  11.051  12.940 -0.2669  0.1767 -0.3305
19318W        W37522   2.585  13.387  13.595 -0.1120 -0.0313  0.2488
19319W        W37523   1.686   1.381   4.597  0.2291  0.0318  0.0225
19320W        W37524   8.345   6.831  12.423  0.0308 -0.0139 -0.0609
19321W        W37525   4.725  16.805  14.328  0.1708 -0.0480  0.2010
19322W        W37526  14.559   5.344   2.191 -0.4511 -0.1002  0.1280
19323W        W37527  10.436   7.298   5.410 -0.0664  0.4218 -0.1792
19324W        W37528   5.873  16.066   3.796  0.0741 -0.3401 -0.0487
19325W        W37529   8.761  17.839  14.581  0.1050 -0.0215 -0.2074
19326W        W37530   2.592  14.934  11.774 -0.1081 -0.0081  0.1626
19327W        W37531  11.334   4.940   1.219  0.1250 -0.0981 -0.1974
19328W        W37532  14.835   9.458   0.297  0.1790 -0.1698 -0.2294
19329W        W37533   7.453   0.595  11.230  0.1127  0.0746 -0.0913
19330W        W37534  12.164   0.389  10.128  0.2295  0.0014  0.1047
19331W        W37535   6.307   7.964  15.410 -0.0057  0.1144 -0.0631
19332W        W37536   6.097   4.752  13.696 -0.1139 -0.2458 -0.2913
19333W        W37537   6.602  12.119   1.259  0.0707  0.1227  0.2821
19334W        W37538  10.882  14.130   0.216 -0.1870  0.3000 -0.1085
19335W        W37539   6.460   6.770  14.516  0.1360 -0.3162  0.0243
19336W        W37540   6.149  13.824  11.127  0.3023 -0.1529 -0.0611
19337W        W37541   4.946  11.791  14.637 -0.0234  0.2011 -0.1904
19338W        W37542   1.536   0.118   0.135 -0.0182  0.1104  0.1702
19339W        W37543   6.722  11.798  12.971 -0.2359  0.2365  0.1876
19340W        W37544   3.132   9.149  13.314  0.0448 -0.2902 -0.0057
19341W        W37545   1.764  13.009  13.253  0.0429  0.1565  0.0308
19342W        W37546   5.312   8.621  10.766 -0.1621  0.0144 -0.1529
19343W        W37547  18.442  14.364   5.677  0.1967  0.1178 -0.2076
19344W        W37548  17.166   6.135   3.662  0.3197 -0.1254  0.0101
19345W        W37549   4.930  16.191   2.091  0.0031  0.0916 -0.0898
19346W        W37550  13.821  12.095  11.335  0.0092  0.0061 -0.1827
19347W        W37551   3.634   3.632  11.276  0.1274 -0.1152  0.5453
19348W        W37552  15.614   2.157   9.881  0.4291  0.2021 -0.0581
19349W        W37553   3.925   2.692   0.204 -0.0504 -0.2763 -0.1049
19350W        W37554   2.160  18.277   0.160 -0.2151 -0.0492  0.0446
19351W        W37555   1.780  10.994   0.521 -0.2136  0.1061  0.0452
19352W        W37556   6.250   1.135  15.047  0.0668 -0.0676 -0.0972
19353W        W37557   2.655  12.133  11.446  0.0099  0.3293  0.1161
19354W        W37558   6.057   2.401   2.754  0.0927  0.1371  0.0788
19355W        W37559   4.043   3.198  11.864 -0.3231 -0.2274 -0.0103
19356W        W37560  11.564   5.396   1.899  0.2909  0.0170 -0.3030
19357W        W37561   6.673   2.072   4.025  0.1076  0.1072 -0.0207
19358W        W37562  14.873   3.954  13.217  0.1638 -0.2831 -0.2056
19359W        W37563   4.775   4.768  12.407 -0.2997 -0.0107 -0.1557
19360W        W37564   1.959   1.012  14.547 -0.1387 -0.0915  0.1041
19361W        W37565  14.949  16.999   1.070 -0.1938  0.1581  0.0248
19362W        W37566   1.282  11.594   3.024  0.0697  0.0142  0.0931
19363W        W37567   5.585   3.190  11.612 -0.0087 -0.0074  0.2971
19364W        W37568  10.091   8.296   4.400 -0.0453  0.2000 -0.3321
19365W        W37569  16.470  12.007  13.734  0.2440  0.0419  0.0917
19366W        W37570   9.345  14.627  12.176 -0.0956 -0.0964  0.0443
19367W        W37571  12.457   4.411  14.860 -0.3625 -0.0871  0.3323
19368W        W37572   0.428  16.029   3.488  0.0229 -0.1694 -0.2576
19369W        W37573   1.464   9.213  12.576  0.2883 -0.0495 -0.3771
19370W        W37574   6.390  11.669  12.473  0.1574  0.2712  0.2886
19371W        W37575  13.762  16.718   3.873 -0.2731  0.3499 -0.1497
19372W        W37576   9.699  11.396  10.051  0.0289  0.1958 -0.1293
19373W        W37577  18.369  16.996  12.709  0.1860 -0.1198 -0.0885
19374W        W37578  12.661   7.070  15.109 -0.0139  0.2401  0.1502
19375W        W37579  15.599  12.475   4.183  0.1612  0.1488  0.3512
19376W        W37580  15.891   2.759  13.890 -0.3222 -0.0311 -0.0646
19377W        W37581   8.265  10.617   3.122 -0.0894  0.0681  0.0551
19378W        W37582   6.065  11.754   2.435  0.0778  0.0016 -0.1434
19379W        W37583   9.775  15.415   5.102  0.4030 -0.0726 -0.0653
19380W        W37584  11.590   0.785   1.663 -0.1429  0.0435 -0.1468
19381W        W37585   7.219   7.830  12.786  0.1419  0.1339  0.0638
19382W        W37586  10.252  14.289  11.838 -0.2410 -0.3382  0.1200
19383W        W37587  17.322   8.502  12.252  0.0465 -0.0394  0.0925
19384W        W37588   4.594   5.655  14.215 -0.0428  0.1249  0.1280
19385W        W37589  13.519  12.913  13.623 -0.0449 -0.0587  0.0206
19386W        W37590   6.250   6.492  11.981  0.3144 -0.1380  0.4325
19387W        W37591  14.833   9.609   5.177 -0.0459  0.2166 -0.1166
19388W        W37592   1.764  11.791   4.133 -0.1613  0.0042  0.0305
19389W        W37593  18.298   3.594   4.693 -0.2364  0.1463  0.1800
19390W        W37594  10.363  13.116  14.608  0.5766 -0.0477 -0.0639
19391W        W37595  12.771   8.804  10.928 -0.0011 -0.3541  0.0504
19392W        W37596   9.686  16.327   2.521  0.1065 -0.0660  0.1518
19393W        W37597   6.918  15.866  14.321  0.2002 -0.0520 -0.1717
19394W        W37598  17.719   4.490   4.634 -0.0705  0.0681 -0.1771
19395W        W37599   6.258  11.384  11.183 -0.1782 -0.1945 -0.0315
19396W        W37600   6.910  14.394   4.208  0.0548 -0.3232 -0.2851
19397W        W37601  14.681  15.778   1.081 -0.1096 -0.0801  0.0202
19398W        W37602   6.651  16.864   3.500  0.1132  0.2804  0.1378
19399W        W37603  11.245   1.642  14.517 -0.1784  0.0686  0.0297
19400W        W37604   2.340   1.015  11.254  0.0645 -0.0029 -0.1904
19401W        W37605   3.600  18.478   5.571 -0.0709  0.3654 -0.0675
19402W        W37606   5.242   2.102   0.172 -0.0034 -0.1569  0.0853
19403W        W37607  18.372   3.883  12.940 -0.1593  0.0419  0.0747
19404W        W37608   5.700  15.555  10.453 -0.0013 -0.3827  0.1826
19405W        W37609   3.477   8.440  12.387  0.0854 -0.5015 -0.0852
19406W        W37610  14.293  17.533  13.469 -0.2292 -0.3507 -0.2487
19407W        W37611   9.265  16.265   3.776  0.3669  0.0855  0.0156
19408W        W37612  17.427   7.186   0.250  0.0065 -0.1228 -0.4004
19409W        W37613  17.440  14.154   3.366  0.0599 -0.1653  0.1333
19410W        W37614  14.715  16.438   1.882  0.0763  0.0588 -0.1242
19411W        W37615  11.803  13.539  14.367 -0.1358 -0.0762  0.0587
19412W        W37616  11.002   8.546   3.668 -0.2766  0.2678 -0.0390
19413W        W37617   1.204  11.491   5.660  0.2102  0.1397  0.1484
19414W        W37618  13.941   3.545   4.714  0.0213 -0.0708  0.2886
19415W        W37619  14.220  12.438  14.205  0.1445 -0.2986  0.0544
19416W        W37620  17.771  11.472  12.985 -0.3687 -0.2240  0.1760
19417W        W37621  12.640  12.825  14.830 -0.2586  0.1701 -0.2330
19418W        W37622   8.698   7.884   3.739 -0.1738 -0.1445  0.2464
19419W        W37623   4.884   6.135  15.330  0.0397  0.2087  0.0126
19420W        W37624   4.749  12.879   2.357  0.3299 -0.2156 -0.1991
19421W        W37625  11.233   9.577   1.052 -0.0596 -0.1688 -0.2292
19422W        W37626  10.222   7.596  14.374 -0.1770  0.1445  0.0526
19423W        W37627   6.101  18.218   2.168 -0.1465  0.0665  0.0608
19424W        W37628  16.891  12.373  11.405  0.2610  0.0050  0.1538
19425W        W37629   9.693  13.886  14.978  0.0300  0.1094 -0.3157
19426W        W37630  12.092  16.608  14.865  0.1715  0.1518 -0.4122
19427W        W37631   9.550   9.553   0.067 -0.0961  0.1893  0.2249
19428W        W37632   6.637  10.313  10.094 -0.0007 -0.0799 -0.0809
19429W        W37633  13.564  15.862   3.578 -0.1959  0.0484 -0.1520
19430W        W37634   9.741   2.031   2.015  0.2176  0.0587 -0.4177
19431W        W37635  12.705  12.930   3.454 -0.3756 -0.1445 -0.0033
19432W        W37636  12.800  10.054  12.649  0.0113  0.1375  0.0760
19433W        W37637   3.856  17.246  14.522  0.1600  0.3705  0.1400
19434W        W37638   4.914   8.362   3.803  0.2418 -0.2767 -0.0775
19435W        W37639  18.293   4.540  12.481  0.2352  0.4587  0.0572
19436W        W37640  10.137  18.078   2.358 -0.1919 -0.1145  0.2453
19437W        W37641   6.520  15.425   9.807 -0.0800 -0.3449 -0.2035
19438W        W37642  13.616   4.496   2.512  0.0562  0.1443  0.1160
19439W        W37643  18.649  17.228   5.378 -0.0603  0.1387 -0.1081
19440W        W37644  15.392   8.201   3.068 -0.1447 -0.0671  0.1980
19441W        W37645  15.801  17.064   4.577  0.1140 -0.3643  0.1539
19442W        W37646   9.235   3.319   2.460  0.2492  0.2635 -0.0739
19443W        W37647   8.985  13.053  11.472  0.0463  0.3041  0.0949
19444W        W37648   6.499  15.278  14.358  0.2353 -0.3266 -0.0779
19445W        W37649   7.910   2.023   0.834  0.1267 -0.0245  0.3124
19446W        W37650   5.038  11.641   4.231  0.1438 -0.4990 -0.3387
19447W        W37651   2.284   4.844   2.965 -0.3908  0.0369  0.3429
19448W        W37652  12.483   8.139  12.205 -0.2278 -0.0861  0.1629
19449W        W37653  16.677  16.278   3.159  0.0450 -0.4645  0.0380
19450W        W37654   7.485  10.570  12.602 -0.1848  0.0294 -0.2874
19451W        W37655  13.126  15.413   1.621  0.0170 -0.2134 -0.0617
19452W        W37656   6.355  13.367   0.521 -0.0298 -0.1207 -0.1593
19453W        W37657  15.533   3.852  11.368  0.2407 -0.3277 -0.1574
19454W        W37658  16.937   2.463  13.791  0.2247 -0.2145  0.1246
19455W        W37659   3.710  12.507   1.626  0.0868 -0.1272  0.2015
19456W        W37660  14.835   9.785   4.446 -0.0898  0.1703  0.1332
19457W        W37661   6.391   2.394   4.365 -0.1638  0.1721 -0.0641
19458W        W37662  12.024   2.036  11.154 -0.0509  0.1809 -0.2835
19459W        W37663  16.821   2.507   2.188 -0.1138 -0.0798  0.1023
19460W        W37664  16.592   7.651   0.060  0.0626 -0.3169 -0.2374
19461W        W37665   7.248  13.337   0.776  0.0233 -0.3297  0.0639
19462W        W37666  17.059  10.347   4.527  0.3221  0.0382  0.0872
19463W        W37667   4.496   3.844   4.023  0.0506  0.0142 -0.1141
19464W        W37668  10.641   3.276   1.576  0.1281 -0.1130 -0.0499
19465W        W37669   3.222   6.051   2.049  0.1774 -0.4105  0.0098
19466W        W37670   9.768   4.987   1.373 -0.3149 -0.2226  0.1238
19467W        W37671  16.215   3.466   4.585  0.0936  0.1016 -0.0480
19468W        W37672  16.743  13.925  10.799 -0.2804 -0.1469  0.0529
19469W        W37673  16.084  12.465   2.669  0.1416 -0.0177 -0.0271
19470W        W37674   9.453   6.922  14.411 -0.0897  0.1574  0.0635
19471W        W37675  14.617   2.303   0.377  0.0530  0.0450  0.3303
19472W        W37676   0.757   8.861  11.824  0.0410 -0.2126 -0.4340
19473W        W37677   6.614  10.656   3.237  0.3432 -0.0010  0.4025
19474W        W37678   2.563  17.414   4.316 -0.2837 -0.1034  0.1010
19475W        W37679  14.703   2.319   2.161 -0.1507  0.0496 -0.0921
19476W        W37680  10.714   4.338   4.054 -0.0277  0.1388 -0.0230
19477W        W37681  10.337   7.062  13.529 -0.2948  0.0928 -0.1170
19478W        W37682   8.045   6.521   4.278  0.0092 -0.0427 -0.0902
19479W        W37683  17.655  13.158   0.045  0.0705 -0.4660  0.1862
19480W        W37684   4.709   8.246  12.277  0.1274  0.0800  0.0022
19481W        W37685  17.649   2.460   4.035  0.2144  0.1181 -0.1771
19482W        W37686   3.144   6.679   4.260 -0.1056 -0.0657 -0.0002
19483W        W37687  11.056   1.639  14.994  0.3340  0.0124 -0.0389
19484W        W37688   1.852   3.695  14.982 -0.0902  0.1554  0.1787
19485W        W37689  17.581   2.542  15.395  0.1710 -0.0810  0.2612
19486W        W37690   1.828   2.727   2.783  0.0686 -0.0670  0.0622
19487W        W37691   6.593  17.415   3.690  0.1485 -0.1389 -0.1787
19488W        W37692  18.054  16.330   0.011  0.1887  0.1243 -0.4883
19489W        W37693  10.017  14.890  14.996 -0.0984  0.1317  0.0326
19490W        W37694  15.074   1.412   2.183 -0.0709  0.3586 -0.1580
19491W        W37695  10.249   5.160  10.881  0.1082  0.1428  0.4419
19492W        W37696   2.589  14.106   2.042 -0.2463  0.2335  0.4292
19493W        W37697   4.150  12.255   4.023 -0.0055  0.3774  0.3118
19494W        W37698   1.395   0.837   3.255 -0.2512 -0.2848  0.1358
19495W        W37699  13.254  10.297   0.491 -0.0590 -0.0572 -0.3242
19496W        W37700   8.488   0.265  11.516  0.2066 -0.0423 -0.3210
19497W        W37701   1.308   1.752  14.385  0.0193  0.0245  0.1110
19498W        W37702   8.023  14.388   2.991 -0.2321 -0.1714  0.1268
19499W        W37703  13.307  17.432   3.590 -0.0891 -0.0438  0.6857
19500W        W37704   7.134  16.411   1.888 -0.2163  0.0104  0.0569
19501W        W37705  12.971  17.726  13.308 -0.0124  0.0419  0.0211
19502W        W37706   1.564   7.032   0.703  0.0320  0.1503 -0.4969
19503W        W37707   1.272   3.588   4.310 -0.1465  0.0019 -0.5291
19504W        W37708  13.472  17.499   0.780  0.0331  0.1900  0.0102
19505W        W37709   6.732  13.443   2.515 -0.1770  0.5040 -0.1829
19506W        W37710  11.259   6.589   1.808 -0.2852 -0.0390  0.0674
19507W        W37711   9.702  16.858   1.983  0.2782  0.1998  0.1768
19508W        W37712  11.492   4.898   0.562  0.1135 -0.0819  0.0448
19509W        W37713  11.817  18.324  11.683 -0.0910  0.3026 -0.1698
19510W        W37714  10.219   3.034  14.140  0.1550  0.0768 -0.1562
19511W        W37715   1.240   3.209  13.589 -0.3451  0.0999 -0.0841
19512W        W37716   5.504   9.390   2.419 -0.1181  0.1588 -0.4066
19513W        W37717  12.577  16.222  15.446  0.5717  0.1832  0.0358
19514W        W37718  18.454  15.336  14.990 -0.0073 -0.1111 -0.0178
19515W        W37719   2.916   1.973  11.160  0.1423 -0.2949  0.1303
19516W        W37720   6.739  18.489   4.152 -0.0747  0.1887 -0.0125
19517W        W37721  13.966  18.636   2.040  0.3631 -0.1964 -0.4409
19518W        W37722  18.649   8.811  13.155  0.2898  0.0086 -0.2778
19519W        W37723   2.729   8.992  11.857  0.2418 -0.1362  0.1616
19520W        W37724   9.243  12.728  13.727 -0.2727 -0.2142  0.0340
19521W        W37725  14.675  16.622  11.166 -0.1481 -0.2431  0.0522
19522W        W37726   2.883   9.014   2.592 -0.0558 -0.3539 -0.5499
19523W        W37727   2.267  12.918   2.889  0.0766  0.1481 -0.0561
19524W        W37728   8.986   2.297  15.155 -0.1759 -0.1776 -0.0491
19525W        W37729   2.472  11.323  14.216  0.1366  0.1596 -0.2824
19526W        W37730   2.763  17.049  10.915 -0.0831  0.1551 -0.1251
19527W        W37731  12.039  13.429  12.437 -0.1829  0.3385 -0.1663
19528W        W37732  11.477  11.615   2.621  0.3605  0.0714  0.2141
19529W        W37733   6.153  15.557  15.397  0.1250 -0.1367 -0.0423
19530W        W37734   6.719  14.199  10.570  0.1638  0.2875  0.2426
19531W        W37735  13.698   7.488   1.913  0.0339  0.0699  0.1552
19532W        W37736  15.761  15.922  15.119  0.0731  0.0655 -0.2057
19533W        W37737   8.857  14.725   2.486  0.1195  0.0296  0.2605
19534W        W37738   6.420  12.544  12.381  0.1681  0.0489  0.1286
19535W        W37739  14.113   6.179   0.566  0.2208  0.2226 -0.1407
19536W        W37740  16.388  11.718   3.221 -0.1542  0.0387 -0.1248
19537W        W37741  10.767   9.352   2.396  0.3097  0.2220  0.1107
19538W        W37742  14.155   4.829   3.899  0.0630 -0.0649 -0.0459
19539W        W37743  12.448  11.485   4.675  0.0868 -0.3702 -0.0211
19540W        W37744   0.827  14.656   3.230 -0.0855 -0.0486 -0.2121
19541W        W37745  17.004   3.014   3.133  0.2422 -0.2810  0.1182
19542W        W37746  16.422   1.965  14.347  0.2091 -0.0060 -0.0855
19543W        W37747  14.721   1.171  12.008  0.1499  0.0428 -0.2137
19544W        W37748   6.897  14.350  11.067 -0.1216 -0.2317 -0.3742
19545W        W37749  15.216  16.693   1.391 -0.1854 -0.3766  0.2979
19546W        W37750   0.252   8.815   3.927 -0.0288  0.0472  0.3763
19547W        W37751  11.584  15.575  14.082 -0.0486 -0.2289 -0.0469
19548W        W37752  18.387  17.429  11.523  0.0894  0.2771  0.1535
19549W        W37753  13.456  16.439  15.010  0.1937 -0.3833  0.0555
19550W        W37754   0.424   8.828  14.807 -0.5026 -0.2438  0.2117
19551W        W37755   1.458   2.489   0.265 -0.3924  0.0989  0.0345
19552W        W37756  14.610   5.593   4.046  0.3030  0.1089  0.0401
19553W        W37757  10.937   7.921   3.049  0.1197  0.2846 -0.1927
19554W        W37758   5.531  12.185  15.158  0.3181  0.0428  0.0699
19555W        W37759   2.046   8.304   2.642  0.1542  0.3854 -0.1964
19556W        W37760   9.791   5.141   2.392 -0.0806 -0.0993 -0.0096
19557W        W37761   0.131  14.396   0.390 -0.2074  0.0227  0.2258
19558W        W37762   9.791  14.859   0.348  0.0845 -0.0635  0.0302
19559W        W37763  11.119  17.140   2.581 -0.2081 -0.1635 -0.0028
19560W        W37764   3.874   3.257  13.059  0.1995  0.2122 -0.0453
19561W        W37765   7.937   2.019   3.829  0.4056  0.0318  0.2361
19562W        W37766  18.670  13.160  13.916  0.2591 -0.0351  0.1479
19563W        W37767   3.594  13.361   3.484 -0.1784  0.1098 -0.0527
19564W        W37768   1.072  17.206   3.788  0.0508 -0.2765  0.0605
19565W        W37769   8.129  13.110   0.295 -0.0831  0.1516  0.0804
19566W        W37770   6.542   0.474  14.310  0.3492 -0.1837 -0.0104
19567W        W37771   8.008   4.108  12.566  0.0101  0.0600 -0.3687
19568W        W37772   1.680   3.231  13.815  0.2385 -0.0308 -0.1800
19569W        W37773   6.334   6.881   2.271 -0.2296  0.2830 -0.0795
19570W        W37774   7.809  12.926   1.413 -0.0775 -0.0502 -0.1480
19571W        W37775   4.671   9.545   5.836  0.1404 -0.1483 -0.1571
19572W        W37776   4.738  11.334   1.713  0.0782 -0.0904 -0.0852
19573W        W37777  13.797   7.197   1.483 -0.0221 -0.0005  0.0945
19574W        W37778  15.892   3.184   0.687 -0.2912 -0.0722 -0.0375
19575W        W37779  10.052   7.326   0.495  0.1686  0.1932 -0.0222
19576W        W37780  15.370   4.162   2.760  0.1593 -0.0368  0.1866
19577W        W37781  15.862  14.280  11.378 -0.3197 -0.4512 -0.2344
19578W        W37782  17.082   0.225  12.702  0.2664 -0.2220  0.0108
19579W        W37783  12.158  17.937   0.005  0.2085 -0.2636 -0.0329
19580W        W37784   9.278  12.498   2.932 -0.0256  0.4194 -0.0969
19581W        W37785   4.390  16.882   2.370 -0.0694  0.3396 -0.0159
19582W        W37786   3.828  17.088   4.027  0.1220 -0.0423  0.0614
19583W        W37787   2.719  10.132  12.383 -0.4216 -0.1853  0.2411
19584W        W37788   8.188   8.465   0.247 -0.0284 -0.0141 -0.0862
19585W        W37789   6.647  17.473  15.385 -0.2602  0.0013 -0.0449
19586W        W37790   3.174  13.788  15.142  0.0253 -0.0269 -0.1776
19587W        W37791   3.821   9.712   0.535  0.1394 -0.2300  0.2142
19588W        W37792  10.647  11.617  13.520 -0.1045 -0.1095  0.1642
19589W        W37793   6.147   1.099   0.928 -0.1230 -0.2224  0.2254
19590W        W37794  11.108  18.380   3.764 -0.0328  0.3002 -0.2698
19591W        W37795  16.606   9.074   1.216 -0.1179 -0.2154  0.0878
19592W        W37796  18.507  14.061   3.134 -0.2695  0.1696 -0.5006
19593W        W37797  17.164  13.328  15.441 -0.0880  0.2480  0.1175
19594W        W37798  16.194   2.421  10.685 -0.0805 -0.0242  0.1956
19595W        W37799  16.452  18.351  13.037 -0.1338  0.2032 -0.3425
19596W        W37800   4.487  10.932   0.458  0.1068 -0.0991 -0.1783
19597W        W37801   2.999  15.402   5.039 -0.1396 -0.1501 -0.0884
19598W        W37802  18.138   1.373   2.930  0.0573  0.2934 -0.0589
19599W        W37803  12.339   0.466  14.629 -0.1648 -0.2296  0.0215
19600W        W37804  11.763   8.896  12.837  0.0236  0.1494  0.0648
19601W        W37805   3.438   8.400  11.598 -0.3530  0.1018 -0.0447
19602W        W37806  10.361  17.890  12.473  0.1594 -0.1092 -0.0711
19603W        W37807   9.892   9.430  13.462 -0.0609  0.1894 -0.1624
19604W        W37808  15.179   0.686   9.995 -0.0711 -0.0693  0.0172
19605W        W37809   7.740   9.187   0.655 -0.3661  0.0844  0.0412
19606W        W37810   3.728   7.234  13.779  0.1989  0.0640  0.0406
19607W        W37811  17.712  10.800   2.515  0.3186  0.0738  0.0493
19608W        W37812  13.227   6.399   0.094 -0.0695 -0.5142 -0.0927
19609W        W37813  12.631  12.511   4.556  0.1616  0.1240  0.0738
19610W        W37814   0.131   8.531  13.574  0.2956 -0.0076  0.2586
19611W        W37815   3.807   5.305   2.761  0.0733 -0.0358  0.1049
19612W        W37816   5.753   3.825  13.530  0.0555 -0.2339 -0.0783
19613W        W37817   3.876  14.358   3.363  0.0690  0.1708 -0.2659
19614W        W37818   5.314  11.998  12.364 -0.3302 -0.2797  0.1288
19615W        W37819   3.865  16.679  11.395  0.1566 -0.1427 -0.1420
19616W        W37820   1.361   0.213  12.985  0.2631 -0.0132  0.0411
19617W        W37821  16.476   6.794   1.700 -0.1032 -0.2181  0.0963
19618W        W37822   0.877   3.507  11.400 -0.0992 -0.2412 -0.0406
19619W        W37823   3.152   2.398  15.274  0.1807 -0.0026 -0.0821
19620W        W37824   8.281   2.052  10.337 -0.1560  0.1303  0.5571
19621W        W37825   4.027   6.848  12.469  0.0021 -0.0819 -0.2079
19622W        W37826   2.957   8.325   3.055  0.1178 -0.1930  0.1582
19623W        W37827   2.715  10.168   3.878  0.0015  0.1620 -0.1314
19624W        W37828  16.007   7.600  14.438  0.0341  0.0611 -0.1073
19625W        W37829   2.071   6.421   5.701 -0.2633  0.1206 -0.0682
19626W        W37830  17.210   0.979   3.925  0.3243 -0.1718  0.1333
19627W        W37831   7.621   4.142  12.197  0.0403  0.2950  0.0167
19628W        W37832   3.443  12.870  12.915 -0.3232  0.2822 -0.1375
19629W        W37833  15.269   5.011  11.905  0.0189 -0.2090 -0.0074
19630W        W37834  15.514   6.120   4.267  0.3739 -0.4563  0.1984
19631W        W37835  11.320  15.276  12.979  0.3131  0.1452 -0.0783
19632W        W37836   9.757  10.920  10.266  0.4972  0.1875  0.2956
19633W        W37837   0.441   3.710   0.193 -0.1455  0.0551  0.0308
19634W        W37838   8.329   5.412  12.097  0.1994  0.0032 -0.0433
19635W        W37839  10.063  11.649   4.289 -0.0897 -0.0501 -0.2608
19636W        W37840  13.372  12.021   1.477 -0.0651 -0.1427  0.0280
19637W        W37841  18.054  15.620  14.799 -0.0197 -0.1850  0.1040
19638W        W37842  14.608   9.663   1.381 -0.0092 -0.2025  0.2711
19639W        W37843   5.342  13.969  11.141 -0.1314  0.4248  0.2705
19640W        W37844  11.545   0.776   3.775 -0.0506  0.4197 -0.0673
19641W        W37845   3.916  13.292   2.223 -0.0948 -0.0377 -0.2182
19642W        W37846   0.530  17.122  11.881 -0.2508 -0.1121 -0.2365
19643W        W37847   2.662  13.773  12.886 -0.2700 -0.2110  0.0112
19644W        W37848   6.411  12.871  12.868 -0.1018 -0.0697  0.0765
19645W        W37849   8.556   2.081  11.342 -0.0998  0.1623  0.0931
19646W        W37850   7.273   5.574  13.904  0.2359  0.2221 -0.3863
19647W        W37851   2.493   9.105   3.425  0.0169  0.2500  0.2935
19648W        W37852   7.068   0.294   0.510 -0.0477  0.3580  0.2142
19649W        W37853  17.388  17.498   1.176  0.1860 -0.1131  0.0506
19650W        W37854   7.138  15.060   1.374 -0.1204 -0.2428  0.1032
19651W        W37855   7.974   2.923   2.274  0.2498  0.1440  0.2129
19652W        W37856   3.282   5.920   2.501  0.1707  0.2186 -0.0903
19653W        W37857   2.897   0.186   3.717 -0.5118  0.1756 -0.0703
19654W        W37858  16.586   2.828   2.793  0.1424 -0.0242  0.3549
19655W        W37859   8.228   5.116   3.207 -0.1238  0.1653 -0.4117
19656W        W37860  18.017  15.374  12.732 -0.0788 -0.2150 -0.1066
19657W        W37861  11.939  17.571  11.039  0.1151 -0.1102 -0.1360
19658W        W37862  15.608  12.287   1.722 -0.0145 -0.1284  0.1804
19659W        W37863   1.308  14.093   0.224 -0.2599  0.0830 -0.2543
19660W        W37864   8.190   4.174  12.093  0.2715  0.4184  0.1467
19661W        W37865   9.421  10.253  14.995  0.2163  0.0716  0.0024
19662W        W37866   8.722  14.727   3.993  0.0354 -0.2143  0.1388
19663W        W37867  13.227  13.597   1.944 -0.1698  0.3240  0.1567
19664W        W37868   6.177   8.026  14.726 -0.1594 -0.0359  0.0768
19665W        W37869  16.240  17.773   3.370  0.1012 -0.3158  0.1860
19666W        W37870  12.826   9.137  12.056  0.0697  0.1322 -0.0544
19667W        W37871   0.171   1.264  12.351  0.1233  0.0679 -0.0468
19668W        W37872  18.655   5.991  10.060  0.0438 -0.0758  0.1479
19669W        W37873   7.681  12.363   4.337 -0.2402  0.2200 -0.3130
19670W        W37874  15.453   7.333   0.025 -0.0436  0.1990 -0.0251
19671W        W37875  15.520   0.678   2.520  0.1358 -0.1070 -0.0167
19672W        W37876   9.172   0.200  14.052  0.1061 -0.1853  0.0529
19673W        W37877   2.308   7.017  14.109 -0.1545 -0.1546  0.0454
19674W        W37878   2.034   9.837   4.152  0.3179 -0.2021 -0.0233
19675W        W37879  16.114  18.064  15.038  0.2005 -0.1369 -0.2517
19676W        W37880   6.736   9.355  13.704 -0.0005 -0.0533 -0.1579
19677W        W37881   3.895   8.075  14.038 -0.0486  0.0601 -0.0152
19678W        W37882  14.846  16.164  13.781  0.2432 -0.1308 -0.0617
19679W        W37883  17.052  11.926   3.759 -0.1694  0.1176 -0.2127
19680W        W37884   6.201   8.521   1.307 -0.1452  0.2176 -0.1253
19681W        W37885   5.187   2.287   0.595  0.2078 -0.4052  0.3690
19682W        W37886  12.416  12.736   0.837 -0.0751 -0.1939  0.0594
19683W        W37887   6.569  17.573   1.154  0.1835 -0.1921  0.1276
19684W        W37888  10.458   9.440  12.774 -0.0617  0.1507 -0.1596
19685W        W37889  12.482   1.834  12.174 -0.2046  0.2953  0.1259
19686W        W37890   3.574   1.758   1.003  0.0697  0.0129 -0.1020
19687W        W37891   0.787  17.323   1.811  0.2673  0.0994  0.0310
19688W        W37892   4.008   3.968  11.430  0.1394  0.1067  0.1453
19689W        W37893  15.471  16.105   1.889 -0.1978 -0.2212 -0.0344
19690W        W37894   5.468   4.814   1.640  0.0850 -0.1205  0.1057
19691W        W37895   5.577   5.108   3.941 -0.1022  0.1495  0.0425
19692W        W37896   7.869   5.596  10.709 -0.4105  0.1902  0.1234
19693W        W37897  16.893  16.058   3.539 -0.3843 -0.0588  0.0203
19694W        W37898   2.681   7.352  14.328 -0.1453 -0.0420  0.0095
19695W        W37899  11.651   5.276   1.403  0.3587 -0.3367  0.2405
19696W        W37900  17.774  13.360   4.511  0.0407 -0.1750 -0.1316
19697W        W37901   0.741   2.866   3.958  0.0479 -0.2696 -0.1379
19698W        W37902   7.622   5.372  11.462  0.0764 -0.0415  0.1028
19699W        W37903   5.694   5.598  11.716 -0.0864 -0.1646  0.1026
19700W        W37904   7.641   4.931   0.413  0.1228 -0.3234  0.1644
19701W        W37905  13.588   6.155   0.434 -0.1975  0.1425  0.0547
19702W        W37906   6.930  14.964  11.069 -0.1559 -0.1729  0.2456
19703W        W37907   7.767  18.238  11.585  0.0318 -0.3486 -0.0130
19704W        W37908  14.108  15.357  11.534  0.0406 -0.1130  0.0421
19705W        W37909   0.147   9.925   0.605 -0.0556  0.1803  0.1661
19706W        W37910  17.158  15.155  11.753  0.2003  0.1302  0.0576
19707W        W37911   8.037  11.356   3.685 -0.0539 -0.0610  0.1649
19708W        W37912   0.097   4.661  12.228 -0.1637 -0.2403  0.1054
19709W        W37913  12.698   9.351   1.105 -0.1576  0.1029  0.1619
19710W        W37914   4.255   3.725   3.585 -0.0808  0.0454 -0.1615
19711W        W37915   1.003  17.773   3.586  0.0784  0.0081 -0.1207
19712W        W37916  16.010  11.048   9.975  0.2394  0.1252 -0.1930
19713W        W37917   4.160   4.555   5.511  0.1526  0.1041 -0.0011
19714W        W37918  11.190  10.012   1.389  0.4536  0.4434  0.1549
19715W        W37919  12.855   2.153   0.047 -0.0276 -0.0172  0.1884
19716W        W37920  12.932  12.897   4.425  0.0777  0.4044  0.0995
19717W        W37921   1.714  14.914  14.437  0.0371 -0.0026  0.0307
19718W        W37922  15.779   9.803  10.464 -0.1099  0.1751 -0.2055
19719W        W37923   3.976   7.923   4.774  0.0788  0.0003  0.0350
19720W        W37924  17.525  18.104   0.469 -0.0407 -0.3731  0.0363
19721W        W37925   6.021   1.965   0.494 -0.3578 -0.0120 -0.1951
19722W        W37926   6.313   0.276  13.009  0.0351  0.1541 -0.0789
19723W        W37927  15.240  14.906  13.635 -0.2312 -0.0747 -0.0832
19724W        W37928  12.808  15.351   4.525 -0.0580 -0.1589  0.2755
19725W        W37929  17.532  12.335  10.833  0.0978  0.3255  0.2543
19726W        W37930  11.185  18.425  12.476  0.2734  0.3069 -0.3202
19727W        W37931  11.701  16.462   0.395  0.1001  0.3763 -0.1157
19728W        W37932   5.157   2.011  10.127  0.1630  0.1034  0.2169
19729W        W37933  15.900  12.474   2.127 -0.3073  0.2432  0.0893
19730W        W37934   0.190  18.335   2.721  0.1815  0.1265  0.0250
19731W        W37935   2.792  17.225   0.271  0.1108 -0.1758  0.2836
19732W        W37936  15.251   7.153  12.341  0.0587 -0.1968  0.1526
19733W        W37937   4.549   2.419  14.947  0.0668  0.2104 -0.1602
19734W        W37938  17.798   7.663  14.442  0.2007 -0.1280  0.2412
19735W        W37939   4.960  14.704  13.663  0.0460  0.0654 -0.0180
19736W        W37940  12.103   0.841  11.261 -0.0748 -0.1242 -0.0332
19737W        W37941   6.173   4.537   4.372  0.1002 -0.1229 -0.2221
19738W        W37942  11.721   2.277   3.924  0.0490 -0.0050  0.3444
19739W        W37943   9.818  18.610   4.108 -0.2114  0.3852 -0.1052
19740W        W37944  14.313   1.604   4.473  0.1483  0.0941  0.0500
19741W        W37945  15.028  18.611   3.045  0.1461 -0.1081  0.0021
19742W        W37946  10.068  10.711  13.033  0.0328 -0.0169  0.1069
19743W        W37947   0.767  18.396  12.183 -0.1431  0.0999  0.0017
19744W        W37948  16.312  10.645   2.241 -0.0117  0.0015  0.1711
19745W        W37949   6.306   8.977   0.576 -0.3725  0.1850 -0.0632
19746W        W37950  16.124  10.075  13.871  0.0110 -0.1465 -0.1255
19747W        W37951  12.345   6.593   2.171 -0.2296 -0.1268  0.3314
19748W        W37952   8.508  14.899   3.138 -0.0027  0.0012  0.0282
19749W        W37953  11.724  10.384  13.531 -0.0221 -0.3263 -0.0887
19750W        W37954   1.129  17.350  11.113  0.0234 -0.1376  0.1564
19751W        W37955   6.894  12.723  14.163 -0.0753 -0.1673 -0.0432
19752W        W37956   3.158   8.776  11.534  0.4296 -0.6676 -0.5270
19753W        W37957   7.870  17.609   2.010  0.0291 -0.1372  0.0449
19754W        W37958   6.354   2.177  14.494  0.1852 -0.0140  0.1105
19755W        W37959   0.948  13.368   1.813 -0.1608 -0.0889  0.0237
19756W        W37960  15.470   0.358  14.525 -0.1970 -0.0859 -0.1496
19757W        W37961  15.367   3.809  14.191  0.3109 -0.1671 -0.0367
19758W        W37962  17.927  16.624   2.961  0.0994 -0.2028  0.1021
19759W        W37963   1.028  13.106   1.005 -0.4777 -0.0479 -0.4282
19760W        W37964  15.708   7.807   3.179 -0.0971  0.0250  0.1224
19761W        W37965  10.664   1.882  13.375 -0.3107  0.0867  0.0718
19762W        W37966  12.815   8.779   4.752  0.0731 -0.1027  0.0650
19763W        W37967   5.924  17.324   0.853  0.3357 -0.2842 -0.0608
19764W        W37968  15.488  10.767  12.022  0.0191 -0.0311 -0.0408
19765W        W37969  18.434   1.608   3.245 -0.1259 -0.1289  0.1558
19766W        W37970   4.847   4.901  11.945 -0.0289  0.2156  0.1005
19767W        W37971  15.660  16.084  11.777 -0.3046 -0.2177 -0.2791
19768W        W37972   8.727   5.368  14.665  0.4131  0.1659 -0.2160
19769W        W37973   3.637  12.131   1.331 -0.1023  0.1659  0.1862
19770W        W37974   0.828  18.677  14.291 -0.1195 -0.1615  0.0900
19771W        W37975  12.391  12.138   0.541  0.1946  0.0366 -0.1885
19772W        W37976   3.739   8.836  11.561  0.1736  0.0942 -0.3891
19773W        W37977  12.567  10.535  12.919 -0.0795  0.2112 -0.0223
19774W        W37978   9.340   7.160  14.926 -0.2026 -0.2815  0.2345
19775W        W37979   1.023   3.765   1.427 -0.2855  0.0093 -0.1820
19776W        W37980   2.944   8.322  11.564 -0.0514  0.2023 -0.0880
19777W        W37981  16.803   6.248   0.956 -0.4154  0.2510 -0.2120
19778W        W37982  17.607  14.989   0.637  0.2332 -0.0745 -0.0231
19779W        W37983   1.004  15.444  14.436 -0.1289 -0.1623  0.1378
19780W        W37984  11.274   8.632  13.525  0.1491  0.2824  0.0357
19781W        W37985   0.699  13.006  14.950 -0.2839 -0.0669  0.1278
19782W        W37986   0.953   6.085  10.613 -0.0830 -0.1524 -0.1772
19783W        W37987  10.069   5.664  13.934  0.2810 -0.0181  0.0010
19784W        W37988  17.184   1.539   1.153  0.0343 -0.1657 -0.2445
19785W        W37989  10.694  10.387   2.538  0.0840 -0.1957 -0.2364
19786W        W37990   5.585  13.090   1.560 -0.0287 -0.2505 -0.0440
19787W        W37991   9.430  14.839   0.754  0.0993  0.5305  0.2559
19788W        W37992  10.005  10.118   3.191 -0.0243 -0.0236 -0.0082
19789W        W37993   5.065  18.469   5.195  0.3186 -0.1002  0.1303
19790W        W37994  10.892   2.794   0.747  0.0182 -0.1678  0.0571
19791W        W37995  16.402  10.831  11.724 -0.2067  0.2696  0.1552
19792W        W37996  16.314   5.396   0.723 -0.0518 -0.2737 -0.0455
19793W        W37997  13.832   4.815   0.207  0.4207 -0.1905  0.0422
19794W        W37998  12.356   0.490   2.327  0.1795  0.2420 -0.1186
19795W        W37999  16.062  15.493   3.583  0.0761  0.0803  0.0236
19796W        W38000  14.011  14.454  13.311 -0.1180  0.0667 -0.2423
19797W        W38001   0.736   4.846   4.121 -0.1295  0.1301 -0.2894
19798W        W38002   1.644   5.499  13.915 -0.0661 -0.1581  0.0207
19799W        W38003  12.942   1.195  12.626  0.3259 -0.0232  0.1841
19800W        W38004  14.249  12.670  12.609 -0.1922 -0.0023 -0.1247
19801W        W38005  17.996  10.474   2.940 -0.2398  0.0758 -0.1123
19802W        W38006  15.935  16.947  14.823  0.1190 -0.2155  0.0392
19803W        W38007  15.332   5.641  11.793  0.1873 -0.0886  0.1173
19804W        W38008   2.153   6.744   2.921  0.1017  0.0109 -0.3996
19805W        W38009   6.373  11.432  13.810 -0.0032 -0.0093  0.0631
19806W        W38010  10.391   8.690  13.996  0.1020  0.6401  0.1287
19807W        W38011   6.987   7.889  11.470 -0.1871  0.1758 -0.1603
19808W        W38012  17.002   0.807   3.264 -0.2331 -0.2902  0.1989
19809W        W38013  17.582   6.588  13.226  0.0519 -0.5555  0.0600
19810W        W38014  15.885   6.278   0.121  0.0856 -0.3430  0.4150
19811W        W38015  17.646  18.090   1.948  0.0167  0.0009 -0.1954
19812W        W38016   4.963   5.017   9.921  0.2346  0.2202 -0.0271
19813W        W38017   3.480   5.010   1.896 -0.1928 -0.1022 -0.2709
19814W        W38018   7.989  13.127  11.570  0.0929  0.1455 -0.2819
19815W        W38019   1.935   2.218  12.610  0.2284 -0.0252 -0.2205
19816W        W38020  10.848   7.670  15.388  0.0927 -0.0859  0.0748
19817W        W38021   4.339   7.840  13.066  0.2251  0.0444 -0.0395
19818W        W38022   4.905  16.111  10.462  0.1352  0.1682  0.0115
19819W        W38023  10.128   0.815   4.523 -0.1588 -0.3515  0.1068
19820W        W38024   2.820   8.630  13.646  0.0164 -0.0488 -0.1975
19821W        W38025  14.126   7.237   3.525 -0.2069 -0.0819 -0.0853
19822W        W38026   0.333  17.396   5.026  0.0487 -0.0749  0.0632
19823W        W38027   5.408  18.526  12.612  0.2869 -0.1040 -0.0698
19824W        W38028  12.498  13.854  11.920  0.0880 -0.2384 -0.0339
19825W        W38029  18.546   8.949   3.580 -0.0070  0.3032  0.0462
19826W        W38030   5.224  13.679  10.713  0.0066  0.0243  0.2522
19827W        W38031  17.602   4.549   2.604  0.1794 -0.2491 -0.0464
19828W        W38032  17.708   1.722  12.019  0.1420 -0.0671  0.0696
19829W        W38033  15.198   9.586  11.113  0.1362  0.4094  0.0010
19830W        W38034  17.990  16.217  13.995 -0.0637 -0.1626  0.3044
19831W        W38035  13.003  14.259   3.033  0.1412 -0.0808  0.0868
19832W        W38036  11.809   6.807  12.557  0.4131 -0.0213  0.1204
19833W        W38037  10.353   6.033   4.611  0.2088 -0.1876 -0.0598
19834W        W38038  17.874   5.031  11.685  0.0243 -0.3670  0.0118
19835W        W38039  13.549   8.038   3.350 -0.2611 -0.0743 -0.0423
19836W        W38040  17.507  18.425  15.193  0.3082 -0.0630 -0.0369
19837W        W38041   4.123   5.421   1.498 -0.0176 -0.0859 -0.0078
19838W        W38042   7.106   2.583   1.582 -0.1636 -0.2010  0.0421
19839W        W38043  14.938   6.488  15.147 -0.0195  0.2313 -0.1762
19840W        W38044  13.543  11.455  11.890 -0.1153 -0.0463 -0.0418
19841W        W38045  17.392   1.909  12.527  0.2418  0.0573  0.1804
19842W        W38046  13.879   2.784  12.878  0.3113 -0.4057  0.0457
19843W        W38047  11.703   9.251   1.503 -0.0535  0.0202 -0.1304
19844W        W38048  18.459  15.463   1.957  0.3238 -0.2792  0.0994
19845W        W38049  12.845   7.579  13.997 -0.0226 -0.2615  0.2809
19846W        W38050   5.768   2.903   0.163  0.0967 -0.0244 -0.1548
19847W        W38051   1.442  11.811   0.521 -0.4308  0.0305 -0.1921
19848W        W38052  17.318   3.906  13.343  0.2316 -0.1508  0.2305
19849W        W38053   6.714   4.576  13.087 -0.2613  0.1049  0.2299
19850W        W38054  18.300  16.542  15.103  0.3219  0.2156  0.2748
19851W        W38055   9.840   9.620  11.758  0.2383  0.2121  0.4186
19852W        W38056   5.141  13.979   1.253  0.0906  0.2036  0.3604
19853W        W38057  14.345  11.393  10.376 -0.1735 -0.0055  0.0475
19854W        W38058   4.824   4.127   1.541  0.2921 -0.1950  0.0298
19855W        W38059   5.942  10.001  13.788 -0.3638 -0.2260  0.1068
19856W        W38060   1.463  17.580   2.230  0.0215 -0.4894  0.1660
19857W        W38061   4.344  16.629   1.485  0.1194  0.4435  0.2335
19858W        W38062   3.422   4.752   3.381  0.0029 -0.1368  0.0957
19859W        W38063  14.097   9.521  12.147 -0.0853  0.0405  0.1202
19860W        W38064  17.769  10.830   4.726  0.0485 -0.1604 -0.0485
19861W        W38065  10.242  12.854  13.740 -0.1093 -0.6373  0.1465
19862W        W38066  11.606  13.541   1.541 -0.0558 -0.1505 -0.0719
19863W        W38067  15.151   0.567  10.457 -0.2698 -0.1838  0.0746
19864W        W38068   8.847  12.118   0.995 -0.0028 -0.1161 -0.0866
19865W        W38069   7.555   1.744   3.034 -0.3071 -0.0801  0.1956
19866W        W38070  16.036   9.813   0.737 -0.5793  0.2973 -0.0883
19867W        W38071   2.901  17.268   2.912 -0.0888  0.1711  0.0750
19868W        W38072  18.183   2.024   4.113  0.2880  0.0649  0.0963
19869W        W38073  10.158  13.805  14.088 -0.0893  0.3588 -0.0278
19870W        W38074   0.912  14.663   0.961  0.2125  0.3162  0.1100
19871W        W38075  11.092   6.091  14.718 -0.1316  0.1624 -0.0496
19872W        W38076   6.360   5.763   0.986 -0.1217 -0.0270 -0.3133
19873W        W38077   3.135  10.328   9.903  0.1431 -0.3476  0.3533
19874W        W38078   8.566   9.256  12.124  0.0315 -0.4110  0.0330
19875W        W38079   8.336   8.136  12.311  0.4181  0.0974 -0.0067
19876W        W38080   3.255   3.683  12.165 -0.0454  0.1628  0.1440
19877W        W38081   6.266  15.654   1.108  0.2562  0.1676  0.3393
19878W        W38082   7.467  14.867   1.718  0.1388  0.1998  0.0663
19879W        W38083   1.631  12.761  12.760 -0.2187 -0.0105  0.0880
19880W        W38084  14.684  16.607  10.423  0.1636 -0.0111  0.1793
19881W        W38085   6.038   4.835  12.202  0.3468 -0.0027 -0.1232
19882W        W38086  17.458   4.116   4.918 -0.1106 -0.2039 -0.0092
19883W        W38087   6.059   8.163  11.779  0.0523  0.0543  0.3268
19884W        W38088  13.885  15.512   1.500 -0.1248 -0.1292 -0.0706
19885W        W38089  10.395   1.458   3.676 -0.2811 -0.0886  0.0668
19886W        W38090   3.845   8.713  14.538  0.3919 -0.2012 -0.1336
19887W        W38091   1.657  16.495   0.943 -0.1021 -0.0828  0.1399
19888W        W38092   4.265  14.860  10.113  0.0922  0.1150  0.0869
19889W        W38093  11.170  12.959  12.184 -0.2052  0.1197  0.0190
19890W        W38094   0.187  14.955  12.413 -0.0120  0.1819  0.2103
19891W        W38095   8.153  11.083  11.696  0.1390 -0.1194  0.0058
19892W        W38096   6.301   2.135  13.871  0.1234  0.1441 -0.0380
19893W        W38097   2.457   9.082  10.916  0.0330  0.4044 -0.2543
19894W        W38098  18.075  10.993   1.948  0.0675  0.2513  0.0452
19895W        W38099   7.370  16.494  10.990  0.1369 -0.3664  0.1142
19896W        W38100   1.089   0.804   2.127  0.0910 -0.3612  0.2284
19897W        W38101   0.932  11.925  11.918  0.0244  0.1010  0.3091
19898W        W38102   3.016  12.827   3.218  0.1187  0.0211  0.1097
19899W        W38103   2.404  17.332  13.594 -0.3358  0.0919 -0.1613
19900W        W38104   8.450  17.923  12.799 -0.0133 -0.2592  0.0003
19901W        W38105   7.435  12.583  10.941  0.1956  0.0680 -0.3813
19902W        W38106   0.806   2.449  12.843  0.1617  0.1594  0.0175
19903W        W38107   1.730   2.866   3.261  0.4354  0.0232 -0.0070
19904W        W38108   8.314   5.141  11.031 -0.0624 -0.0442  0.1389
19905W        W38109  17.889  11.224  15.462  0.0185  0.1370 -0.3520
19906W        W38110   2.080  16.091   0.912  0.4519  0.0003 -0.1545
19907W        W38111  11.444   4.848   1.697 -0.4804 -0.0184  0.0317
19908W        W38112  17.710  11.071  12.569 -0.1146  0.1230 -0.3036
19909W        W38113  13.869   1.354   4.349  0.0763 -0.0383  0.0910
19910W        W38114   0.646  13.014  13.446 -0.1699  0.2058  0.3052
19911W        W38115  13.263  13.441  11.921  0.1508  0.0171 -0.2519
19912W        W38116  16.949   4.881   1.591  0.0182 -0.1418  0.0900
19913W        W38117  14.163  10.021  11.414 -0.0603  0.2053 -0.2297
19914W        W38118  14.571  10.673  14.837 -0.3304  0.0550 -0.0862
19915W        W38119  10.461  13.060   4.040 -0.2983 -0.0081 -0.2802
19916W        W38120   8.187   2.664   4.669 -0.0207  0.0427  0.2904
19917W        W38121   2.070   4.024   0.303 -0.1128  0.0210  0.0664
19918W        W38122   4.903   6.529   4.004 -0.2451  0.1004 -0.0733
19919W        W38123   0.509   1.752  13.268 -0.1051 -0.1071  0.3458
19920W        W38124  15.409   7.964  15.160  0.1198 -0.1736  0.0189
19921W        W38125   2.147   8.197   3.511 -0.3367 -0.2008  0.0715
19922W        W38126   5.326  15.717  14.474 -0.2734  0.0030 -0.0754
19923W        W38127   8.811  15.310  13.326  0.1978  0.2338 -0.2793
19924W        W38128   1.998   5.025   0.596 -0.2100  0.1115 -0.0560
19925W        W38129  14.080   5.691   0.512 -0.0359  0.0547 -0.2757
19926W        W38130   5.613   0.063   2.014 -0.2037  0.2017 -0.0757
19927W        W38131  14.718   8.466   0.361  0.2441 -0.2752 -0.2191
19928W        W38132   6.045  16.289   0.701 -0.0265 -0.0573 -0.1589
19929W        W38133   4.898   8.442  14.676 -0.2056 -0.2896 -0.1395
19930W        W38134  10.943   7.198   4.490 -0.2504 -0.0515  0.1686
19931W        W38135  16.207  16.653   1.705  0.1186  0.2430 -0.1325
19932W        W38136   1.008  17.712   0.950  0.2191  0.3763 -0.3342
19933W        W38137   3.490  18.053   2.623  0.0375  0.1828 -0.1386
19934W        W38138   7.937   5.520   3.398  0.3181  0.1329 -0.0347
19935W        W38139  12.475  11.650   1.879  0.0232  0.4463 -0.0038
19936W        W38140  16.699  17.244  15.460  0.1173  0.0494 -0.1856
19937W        W38141   4.835  13.324  10.735  0.1082  0.1303 -0.3995
19938W        W38142   2.081  16.995  14.659  0.1939  0.0454 -0.1809
19939W        W38143  13.495  18.409   0.239 -0.1402  0.4409  0.0203
19940W        W38144  18.537   1.803   2.791 -0.1786  0.0532 -0.0253
19941W        W38145  12.727  12.901   2.144 -0.3464  0.0455 -0.0017
19942W        W38146   5.954   5.695  12.140  0.0187  0.1416  0.4119
19943W        W38147  11.743   7.275   1.769  0.1493  0.2855 -0.0083
19944W        W38148  12.836  11.516   0.387  0.2498 -0.1734 -0.1314
19945W        W38149   7.017   2.165   3.663 -0.2101 -0.0445 -0.0150
19946W        W38150  17.856  15.841   3.244  0.0091 -0.1930 -0.3951
19947W        W38151   6.946   5.193  13.869  0.0346 -0.0645 -0.0969
19948W        W38152   8.131  10.273   3.896 -0.0044  0.1274  0.0091
19949W        W38153  15.787   8.690  15.040 -0.2035 -0.0969  0.2169
19950W        W38154   3.642  13.711   2.565 -0.3391  0.0879 -0.3491
19951W        W38155   9.833  14.462  12.133 -0.0292 -0.1114 -0.3534
19952W        W38156  16.847  16.052  11.945  0.3285 -0.1565 -0.0846
19953W        W38157  12.328  18.256   2.937 -0.2515  0.2171  0.1497
19954W        W38158  12.176   5.163  15.003  0.0860  0.2882 -0.2471
19955W        W38159   7.871   9.463   1.480 -0.0042 -0.1125  0.0442
19956W        W38160   0.175  16.247  12.482 -0.0711 -0.0096  0.2208
19957W        W38161   1.543  10.620  11.617 -0.2093 -0.1177  0.1451
19958W        W38162   5.678  13.605   3.718  0.1271  0.1640 -0.2070
19959W        W38163   8.201  13.673   1.207 -0.1730 -0.0346 -0.1503
19960W        W38164   2.889   5.501  10.312 -0.2856 -0.2232  0.0812
19961W        W38165  16.594  11.848  13.186  0.0345 -0.3978  0.3097
19962W        W38166   6.062  10.439   2.545 -0.0572 -0.0063  0.4259
19963W        W38167  11.659  10.923  13.570  0.2727 -0.1107 -0.0509
19964W        W38168  13.969  11.242   4.952 -0.1541 -0.0918 -0.0932
19965W        W38169  13.361   0.888  10.810  0.0322 -0.0123  0.2912
19966W        W38170   0.909  15.338  10.060  0.2448  0.0473 -0.1329
19967W        W38171   6.494   8.119   4.884  0.1257  0.0655  0.1036
19968W        W38172  17.296   4.533   5.759 -0.0188 -0.2518  0.0594
19969W        W38173  12.506  17.832   2.442 -0.1523 -0.2032  0.3997
19970W        W38174   5.557  16.654  12.930  0.3212  0.4057 -0.2057
19971W        W38175  14.749  17.624  15.457  0.1486  0.3485  0.0170
19972W        W38176  14.316   0.633   1.628  0.1506 -0.0552  0.1571
19973W        W38177  17.816   3.771   0.181 -0.0898  0.2804  0.0136
19974W        W38178  17.037  13.757   1.242 -0.1023 -0.1104 -0.1995
19975W        W38179   7.792  12.471   2.948  0.1486  0.1381  0.0622
19976W        W38180  16.702   8.968   2.293  0.2037 -0.2445 -0.4026
19977W        W38181   9.306  14.070  14.526 -0.0869 -0.0475 -0.2333
19978W        W38182   5.923  11.162   1.614 -0.1770  0.2495  0.0230
19979W        W38183  11.490   5.966  12.506  0.1972 -0.2013 -0.3150
19980W        W38184   9.916   2.319  13.423 -0.0384 -0.0405 -0.0401
19981W        W38185  10.363   4.500   2.330  0.1197  0.0760 -0.0256
19982W        W38186  16.740   3.621   1.461  0.2948  0.1499 -0.0152
19983W        W38187  11.699  14.786   2.234  0.3318 -0.2136 -0.1384
19984W        W38188   1.698  17.829  12.703  0.0315  0.1685 -0.0148
19985W        W38189   6.204  18.520  14.146  0.0870 -0.0219  0.3812
19986W        W38190   9.329   4.706  10.654 -0.0455 -0.0466 -0.0250
19987W        W38191  11.626  12.203   1.876  0.0677  0.1045  0.1730
19988W        W38192   7.328   3.386   4.871  0.0658  0.0111 -0.0510
19989W        W38193   3.278   1.480  14.528  0.3116  0.1798  0.1543
19990W        W38194   3.599  12.486   2.156  0.0631 -0.1916  0.0995
19991W        W38195  17.166   9.645  12.535  0.1727  0.3577 -0.1708
19992W        W38196  13.563   3.901   1.274 -0.2848  0.4599 -0.0602
19993W        W38197   5.861   7.292  12.129  0.3375 -0.2260  0.1061
19994W        W38198   9.035  14.990   5.841 -0.0796 -0.0997 -0.0079
19995W        W38199  15.846  18.193  12.839  0.0898  0.1629  0.1525
19996W        W38200  10.649  13.770   4.639 -0.1364 -0.0967  0.1522
19997W        W38201   7.562   3.589  14.489  0.1988 -0.4248  0.1193
19998W        W38202   7.019  16.627   2.729 -0.0502  0.0469 -0.2162
19999W        W38203   3.220  14.337   4.522 -0.0196  0.7768 -0.2621
20000W        W38204  10.758  14.798   2.463 -0.0559 -0.0912 -0.0794
20001W        W38205  17.606   5.255  13.282  0.0283  0.0719 -0.2789
20002W        W38206  11.651   5.246  14.884 -0.3683  0.0377 -0.1534
20003W        W38207  13.258  10.700   0.785 -0.0225  0.1954 -0.1184
20004W        W38208  12.223  11.936   1.534 -0.0339  0.3632 -0.0976
20005W        W38209   0.655  16.507   0.304 -0.1465  0.1586 -0.1468
20006W        W38210   1.039  14.745  15.051 -0.2085  0.0003 -0.0787
20007W        W38211  15.608  17.522  14.049 -0.2868  0.1111  0.1905
20008W        W38212   9.725   8.735  11.571  0.3474  0.0684  0.4325
20009W        W38213   5.025  14.694  12.096  0.1413  0.0115 -0.0966
20010W        W38214  17.725   5.195  14.593  0.0988 -0.0418 -0.1715
20011W        W38215   8.745   7.303   0.657  0.0159 -0.4166 -0.0912
20012W        W38216   7.845   3.866   5.244 -0.1395  0.3205  0.0802
20013W        W38217  16.424  14.439   1.648  0.2317  0.0766 -0.1297
20014W        W38218   5.371   6.395   3.884  0.3715  0.1686  0.1575
20015W        W38219  13.202   2.521  11.222  0.1775  0.0626 -0.2364
20016W        W38220  18.543  10.449  10.965  0.1409 -0.1755 -0.3238
20017W        W38221  17.482   5.440  12.354  0.1477 -0.3120  0.0642
20018W        W38222  17.178  17.987  11.135  0.1701 -0.0465  0.1166
20019W        W38223   2.236  13.575  14.388  0.0459  0.0486  0.2852
20020W        W38224   8.336  10.368  13.553  0.0220  0.0234 -0.1102
20021W        W38225   9.111  15.250  14.750  0.0256  0.3095 -0.1546
20022W        W38226   9.026  18.281   1.815  0.4773  0.1553 -0.2507
20023W        W38227   3.222  16.484  15.454  0.0586  0.0846  0.1964
20024W        W38228  12.262   2.078  11.742 -0.0316  0.0557 -0.1471
20025W        W38229   3.843   0.940  11.506  0.0480  0.3457 -0.1217
20026W        W38230  11.317  12.583   1.758  0.2083 -0.0894 -0.1270
20027W        W38231   5.773  15.264   3.188 -0.0324 -0.0034 -0.0207
20028W        W38232  13.687   4.211  12.665  0.2667 -0.0057 -0.0378
20029W        W38233  15.641  13.578   0.596  0.0241 -0.3875  0.3133
20030W        W38234  14.368   8.208   4.017 -0.0322 -0.0919 -0.2576
20031W        W38235   0.199  11.605  10.904 -0.1240  0.0155  0.0419
20032W        W38236  15.139  15.365  13.311  0.0917  0.1047 -0.0852
20033W        W38237   4.977   1.419   3.904 -0.1452  0.1179  0.2002
20034W        W38238   6.484  12.373   0.123 -0.2489  0.3726  0.0937
20035W        W38239   6.912  10.459   3.997  0.0352  0.0080  0.0837
20036W        W38240  14.007   6.739   4.276 -0.0551 -0.0676  0.0210
20037W        W38241  12.286  13.429   4.265 -0.1436 -0.2955  0.2666
20038W        W38242   7.145  11.166   5.059 -0.1989  0.0157 -0.1795
20039W        W38243  17.282   9.528  13.737 -0.2380 -0.0695 -0.1246
20040W        W38244   6.335   8.151   3.088  0.1020  0.1311 -0.0353
20041W        W38245   6.846  14.302  15.263  0.0675  0.0433  0.1252
20042W        W38246   7.009   6.202   0.807  0.0644 -0.2302  0.0412
20043W        W38247   4.015   2.641   4.033 -0.3326  0.1870 -0.1839
20044W        W38248   5.950   9.616   0.209 -0.1122 -0.0172 -0.0950
20045W        W38249   1.152   0.913   0.314  0.0956  0.2996  0.0333
20046W        W38250   2.415   9.386  15.384  0.1667  0.0890 -0.0191
20047W        W38251  16.844   5.333   1.831 -0.2332  0.1128  0.2802
20048W        W38252   5.836   7.203   0.316  0.1269  0.0175  0.1825
20049W        W38253  10.363   4.365   4.482 -0.0533 -0.0203  0.5025
20050W        W38254   3.473   1.776   1.591  0.1390 -0.0316  0.3389
20051W        W38255   7.517   3.904  11.280  0.0064 -0.0594  0.0047
20052W        W38256  16.869  10.131   0.952  0.0124  0.0664 -0.0626
20053W        W38257  14.763  12.777   2.567 -0.3473  0.1929  0.1015
20054W        W38258   4.014  13.892   3.023 -0.0961 -0.2341 -0.0804
20055W        W38259  17.257   6.358  13.602  0.0907  0.2448 -0.0892
20056W        W38260   4.825   0.115  11.775 -0.1060 -0.2444 -0.0619
20057W        W38261  12.679   9.064   1.512 -0.1399 -0.1468 -0.0320
20058W        W38262   2.282   8.737  14.270 -0.2431 -0.0620  0.0258
20059W        W38263   1.309  12.105  12.697  0.3176 -0.0973 -0.2175
20060W        W38264   8.768  16.981  13.424  0.1035 -0.0517 -0.1626
20061W        W38265  10.852   0.262  14.616  0.0758  0.2908  0.0863
20062W        W38266  16.595  18.609   0.047 -0.0648 -0.0887  0.2641
20063W        W38267   3.589   4.616  13.109  0.0283  0.1270  0.4089
20064W        W38268  16.087  14.349   4.910 -0.1446  0.0912 -0.0430
20065W        W38269   9.885  17.123   0.455  0.0913 -0.1156 -0.0587
20066W        W38270  11.153  13.436  12.470  0.0522  0.0103  0.3231
20067W        W38271   4.913  15.454   1.114  0.2487 -0.0885  0.1462
20068W        W38272   9.837  13.074  14.840 -0.1343 -0.2186  0.2201
20069W        W38273   8.277   2.368  12.420  0.2026  0.3009 -0.0673
20070W        W38274   2.029   6.668  13.072  0.2756  0.2370  0.1592
20071W        W38275  14.520  18.012  12.087  0.0646 -0.1084  0.1563
20072W        W38276   0.425   7.604  14.458 -0.0065 -0.0108 -0.0300
20073W        W38277  15.166  16.403   4.934 -0.3903 -0.0238  0.0183
20074W        W38278   4.343  10.981   4.587  0.0466  0.1253 -0.2302
20075W        W38279   9.569  12.397   3.372  0.2026 -0.2369 -0.3235
20076W        W38280   5.897  14.897   2.075 -0.2168 -0.3159  0.1263
20077W        W38281   2.058  11.259  12.915 -0.1520 -0.2036  0.1381
20078W        W38282   1.996  15.982   1.720  0.1089 -0.1060  0.1107
20079W        W38283   2.194   9.453  12.528  0.0204  0.0468  0.1833
20080W        W38284  10.018  17.131   3.004  0.2042 -0.1510 -0.0649
20081W        W38285  17.040   2.474   1.533  0.2561  0.3703 -0.2186
20082W        W38286  18.210   4.600   3.925 -0.2090 -0.0546  0.2525
20083W        W38287  14.652  15.428   2.563 -0.0098  0.1954  0.0890
20084W        W38288  13.664  15.587  14.826 -0.0355  0.1317  0.3984
20085W        W38289   4.144  11.107  12.954 -0.1294 -0.1622  0.2514
20086W        W38290  17.446   3.979  12.329  0.2801  0.0489  0.0910
20087W        W38291   3.977  14.215   4.492 -0.0882 -0.0870 -0.1428
20088W        W38292   9.339   3.877  14.156  0.0772  0.1811 -0.1444
20089W        W38293   8.040   1.859   5.338 -0.0307  0.1220  0.1827
20090W        W38294  18.116   9.275   1.604 -0.1564  0.2918 -0.0439
20091W        W38295   7.955   4.585   1.554  0.0200  0.0306 -0.2611
20092W        W38296  17.299   5.115  14.323 -0.0994  0.0206  0.3631
20093W        W38297  14.506   5.170  15.253 -0.0837  0.2278  0.1276
20094W        W38298   5.343   1.838   4.634  0.3403 -0.0365 -0.3110
20095W        W38299  14.852   2.077  14.911 -0.0290  0.4202  0.2930
20096W        W38300  17.412  11.992   0.458 -0.2499 -0.1983  0.2253
20097W        W38301  16.510  13.558  12.743  0.1952 -0.0124  0.2825
20098W        W38302   0.287   7.550   4.954 -0.0973  0.1691  0.1021
20099W        W38303   4.378   3.750  11.148  0.3736  0.0445  0.0240
20100W        W38304   5.347   3.808  10.941 -0.1116 -0.1232 -0.2091
20101W        W38305  12.283  10.100   9.872 -0.0338  0.3114  0.1285
20102W        W38306   9.023  16.724   3.940  0.2641  0.0213 -0.0622
20103W        W38307   7.762  11.797   2.282 -0.4541 -0.1181 -0.1883
20104W        W38308   2.678   3.305   3.168 -0.1135 -0.0995  0.2465
20105W        W38309   6.512  15.407   0.224  0.1280  0.2033  0.1015
20106W        W38310   0.465   2.858   1.394  0.0566 -0.0841  0.3506
20107W        W38311  18.693  14.962   1.195 -0.0641 -0.1588 -0.0034
20108W        W38312  11.836   2.672   1.933 -0.0087  0.4089  0.4183
20109W        W38313  12.752   9.342   1.883  0.0110 -0.1783 -0.0297
20110W        W38314  17.739   8.530  14.186 -0.4673 -0.1050  0.2400
20111W        W38315   7.023   5.759   3.834  0.0460  0.1143  0.0482
20112W        W38316   6.244  12.417  11.877  0.3435  0.0224  0.0597
20113W        W38317  11.251   2.172   1.269 -0.0391 -0.0225  0.0799
20114W        W38318   2.634   7.622   2.176 -0.2012  0.0761  0.3479
20115W        W38319  13.898  18.501   1.289 -0.3203  0.2931  0.1926
20116W        W38320  17.016   1.669   2.760 -0.2474 -0.0722 -0.4123
20117W        W38321   3.977   8.601  13.973 -0.0496 -0.1600  0.0035
20118W        W38322  12.774   0.365   1.967 -0.2946 -0.0044  0.1272
20119W        W38323  11.408   8.555  15.309  0.2877 -0.0307  0.0791
20120W        W38324   0.796  17.755   4.158  0.0054 -0.1467 -0.0161
20121W        W38325  15.756   0.673   4.370  0.1263 -0.0095  0.0751
20122W        W38326  17.349   4.268  13.716 -0.2565 -0.2331  0.0309
20123W        W38327  18.157   4.965   4.763 -0.0167 -0.1394 -0.1028
20124W        W38328   1.531  12.185  14.862 -0.0187 -0.2876 -0.0125
20125W        W38329  17.925   6.891  14.079 -0.0355 -0.2490  0.0911
20126W        W38330   2.234   6.713  15.223  0.1575 -0.1764  0.0449
20127W        W38331  17.176   3.807  11.508 -0.0893 -0.0705  0.1222
20128W        W38332  12.836  13.241   0.249 -0.2730 -0.3860 -0.1139
20129W        W38333  10.433   0.471  13.500  0.1096 -0.0723  0.2069
20130W        W38334   1.769  15.550  14.719 -0.0309  0.0582 -0.1774
20131W        W38335   6.283  12.850  15.203  0.1316  0.4469  0.1238
20132W        W38336   6.308  10.193   4.172  0.2623 -0.2417  0.0159
20133W        W38337   7.830  11.286  14.751 -0.0700 -0.1397 -0.0738
20134W        W38338   9.089   9.715  10.259  0.1739  0.1097  0.0606
20135W        W38339  16.867  16.197  10.599 -0.4900  0.4699  0.0677
20136W        W38340  13.296   3.113   4.172  0.0080  0.1016 -0.0665
20137W        W38341   6.553   3.941  11.039 -0.1701  0.1001 -0.2083
20138W        W38342  12.903   8.668   1.997  0.0414  0.0774  0.3046
20139W        W38343  18.362   2.263   1.664 -0.0223 -0.0797 -0.0744
20140W        W38344   5.605   9.912   3.732 -0.1574  0.3537 -0.0830
20141W        W38345   9.654   6.843  12.079  0.1099 -0.2479  0.0654
20142W        W38346   2.777  10.885  11.773  0.0943  0.0721  0.0622
20143W        W38347  18.149  14.284   1.645  0.0557  0.0246  0.0672
20144W        W38348   6.365  12.351  12.963  0.0679  0.1725  0.3900
20145W        W38349   3.677   1.763   4.503 -0.2852  0.0078  0.0532
20146W        W38350  14.735   0.540   3.551 -0.1195  0.0091 -0.3383
20147W        W38351   2.891   9.448   1.379 -0.1507 -0.1202 -0.0652
20148W        W38352  17.424  15.583   3.403  0.3673 -0.5106 -0.0329
20149W        W38353  13.032  16.755   1.039  0.0229 -0.2291 -0.1249
20150W        W38354   0.119   2.717  10.133 -0.1339 -0.0014 -0.3710
20151W        W38355   9.809  16.092   4.106 -0.1598 -0.2103  0.1451
20152W        W38356   4.234   5.956  10.888 -0.2349  0.0632  0.0281
20153W        W38357  13.637   6.432   4.134 -0.1500  0.0502 -0.2134
20154W        W38358   6.573   8.838  14.505  0.0106 -0.1603 -0.1280
20155W        W38359  11.451   3.831  13.094  0.0394  0.1623  0.3352
20156W        W38360  11.703   8.302  13.656 -0.1288 -0.2102  0.1015
20157W        W38361  11.635   5.548  13.980 -0.3498 -0.1162  0.0586
20158W        W38362  15.090  14.097   2.366 -0.1626  0.1921  0.2353
20159W        W38363  18.629   6.373  11.579 -0.0157 -0.1378 -0.0253
20160W        W38364   9.822   2.161  10.957 -0.3341 -0.4065 -0.1403
20161W        W38365   8.788  14.681   3.475  0.2639 -0.2369  0.2413
20162W        W38366   9.213  13.084   4.385  0.1131  0.0447  0.0387
20163W        W38367  12.794  17.012   3.854 -0.0468  0.2120 -0.0267
20164W        W38368   2.461  10.543   0.637 -0.2275  0.3675  0.0685
20165W        W38369   3.718  11.275   2.231  0.0964  0.0945 -0.1116
20166W        W38370   6.229  15.566  14.700  0.2022 -0.3240 -0.0791
20167W        W38371   5.430  16.907  15.174  0.3555 -0.2537 -0.1612
20168W        W38372   4.924  18.570  12.560 -0.0399 -0.1621 -0.1304
20169W        W38373  15.280   7.905  14.666  0.3968  0.2577  0.2257
20170W        W38374  10.550  12.989  11.385 -0.0961  0.2630 -0.0005
20171W        W38375   6.459   9.554   3.114  0.1891  0.0392  0.0931
20172W        W38376  14.879   4.283  11.166 -0.0852 -0.0942  0.1450
20173W        W38377  18.636   6.262   0.655 -0.4395 -0.3340 -0.0034
20174W        W38378  17.465   1.828  11.562  0.2423  0.4501 -0.1411
20175W        W38379  16.727   8.856  13.864  0.0483 -0.0502 -0.1116
20176W        W38380   4.070   9.149   1.802 -0.0565  0.1485  0.1067
20177W        W38381   8.588  15.680  13.937  0.2173 -0.2918  0.1712
20178W        W38382   5.896   1.639   3.819  0.1354  0.1489 -0.1009
20179W        W38383   4.171   7.811   4.287 -0.0137  0.1696 -0.0775
20180W        W38384  15.993   7.064   2.318  0.0607 -0.1888 -0.1096
20181W        W38385   9.253  16.572  12.265 -0.1589  0.1350  0.5556
20182W        W38386  18.234  15.701  13.907 -0.1297  0.0977 -0.1947
20183W        W38387   4.305   0.138   0.174  0.3114  0.2544 -0.1063
20184W        W38388  15.472  13.355  12.643 -0.1064 -0.1262  0.0951
20185W        W38389   9.545  16.562   4.082 -0.1662 -0.0445  0.1247
20186W        W38390   0.566  10.188   0.660  0.0430 -0.2076 -0.0135
20187W        W38391   3.303   9.164   1.147  0.0592  0.1835  0.0706
20188W        W38392  17.239   7.984  12.024 -0.3091  0.0710 -0.0423
20189W        W38393   2.311  11.582   3.294  0.0301 -0.2012  0.3619
20190W        W38394  15.363   2.220  15.132  0.4460  0.0585 -0.0769
20191W        W38395   0.849   9.085  13.386  0.0330 -0.2988  0.0460
20192W        W38396  13.874  10.780  12.592 -0.0721  0.1302 -0.3004
20193W        W38397  16.681  16.793  11.323 -0.2874  0.4058  0.0830
20194W        W38398  14.266   0.939  13.747  0.2147 -0.1486 -0.2324
20195W        W38399   7.512   0.542   3.761  0.0253  0.1466 -0.0252
20196W        W38400  12.314  11.025  13.045 -0.0473 -0.2268 -0.1529
20197W        W38401   5.387  17.562  15.354  0.0421 -0.0576 -0.1218
20198W        W38402  10.246  16.663   1.713  0.0816 -0.0252  0.2138
20199W        W38403  10.968  13.508  13.951  0.1400  0.0629 -0.0114
20200W        W38404   9.634   3.818  12.030 -0.1285  0.2098 -0.1247
20201W        W38405   7.409   0.659   0.404  0.0801  0.0462 -0.0745
20202W        W38406  10.151  10.068   0.667 -0.1086 -0.1296  0.0177
20203W        W38407   9.822   9.267   2.036 -0.2694 -0.1597  0.0179
20204W        W38408   9.382   2.694  13.500  0.0671  0.2170 -0.1380
20205W        W38409  15.112  15.730   1.410  0.1005  0.0649  0.0942
20206W        W38410  14.906   0.063   3.697  0.0698  0.1639  0.2843
20207W        W38411  13.852  12.404  13.793  0.3700  0.1369 -0.3964
20208W        W38412   1.418   4.960   0.107  0.0332 -0.0325 -0.3821
20209W        W38413  17.656  11.810   2.527  0.0881 -0.0295 -0.1536
20210W        W38414  18.537  12.827  12.209  0.0268  0.0394  0.0235
20211W        W38415   2.839   9.308   3.007  0.1667 -0.0187 -0.2678
20212W        W38416  18.088   0.275  14.731  0.1369 -0.3054  0.0341
20213W        W38417  16.148  15.495  13.965  0.2232 -0.1624 -0.3399
20214W        W38418   6.624   7.095  15.216 -0.4702  0.0463 -0.2947
20215W        W38419   8.167   0.910   1.629  0.1645  0.1747 -0.3537
20216W        W38420  16.097  15.127  12.224 -0.3346  0.2314  0.4765
20217W        W38421  15.513  17.009  11.272 -0.2146 -0.2412  0.0318
20218W        W38422  17.194   2.327   4.303  0.3602  0.0892 -0.0913
20219W        W38423   7.121   6.563  13.562 -0.1589 -0.0111 -0.2283
20220W        W38424  17.664   2.392  11.496 -0.0523  0.1770 -0.0145
20221W        W38425  10.441  18.135   1.976 -0.1466  0.0437 -0.1893
20222W        W38426   0.517   3.574  15.103  0.2080  0.2625  0.1476
20223W        W38427   6.887   9.034  14.063  0.1207  0.1051  0.2299
20224W        W38428   8.543   2.807  14.371  0.2094 -0.0977  0.1098
20225W        W38429   3.702   1.111   2.022 -0.1151  0.0083  0.1440
20226W        W38430  11.095   1.924  12.745 -0.2144 -0.0628  0.0673
20227W        W38431  11.137  12.571  11.834 -0.0192  0.0365  0.0959
20228W        W38432  12.629   1.364  12.222  0.0635 -0.0219  0.0389
20229W        W38433   3.890   7.197  14.782 -0.0738 -0.1464  0.0061
20230W        W38434   3.542   1.364  11.513  0.1897  0.4969 -0.0657
20231W        W38435  10.368   8.041   3.502 -0.0834 -0.2201  0.0832
20232W        W38436   6.779   0.240   1.395  0.1464  0.0933  0.0706
20233W        W38437  13.883   9.649  15.042 -0.0014 -0.0675  0.0761
20234W        W38438  17.072  12.574   1.112  0.2462  0.0337 -0.1175
20235W        W38439   1.542  10.954   3.064  0.1839  0.1466  0.1465
20236W        W38440  15.542   8.911   1.814  0.1979 -0.2824  0.2539
20237W        W38441   0.366   0.528   1.006  0.0681 -0.2118 -0.4284
20238W        W38442  10.401  17.098  13.642 -0.2039  0.0015  0.1526
20239W        W38443  10.838   6.718   3.084 -0.2206  0.0930  0.2543
20240W        W38444  15.081   1.166  13.231  0.0735  0.0175  0.1145
20241W        W38445  16.722  14.150   3.261 -0.1033 -0.1520  0.1861
20242W        W38446   7.901   5.244  14.970 -0.0860  0.1202  0.1467
20243W        W38447   3.755   1.437   9.858  0.3555 -0.0800 -0.3713
20244W        W38448  16.593   0.114  12.583  0.0067  0.4972  0.0651
20245W        W38449   6.341  13.923   1.510  0.0364 -0.1240 -0.0751
20246W        W38450   5.085  12.763  12.376 -0.2408  0.0152  0.0808
20247W        W38451  14.414   6.540   2.997 -0.1461 -0.0295 -0.1070
20248W        W38452   1.342  18.608  14.237  0.2455 -0.0774  0.0321
20249W        W38453  15.257   9.685  10.554  0.2516  0.1148 -0.1616
20250W        W38454   3.142   9.354  12.735 -0.0190  0.1047 -0.0871
20251W        W38455   1.445  14.920  15.279 -0.0567 -0.1416 -0.1054
20252W        W38456  15.702   3.835   2.210 -0.0765 -0.0514 -0.6805
20253W        W38457   6.520  10.541  14.759 -0.3184 -0.4840 -0.0869
20254W        W38458   8.216   8.930  13.727  0.2546  0.0607 -0.2160
20255W        W38459   2.361  12.393   0.401  0.1010 -0.2329  0.1948
20256W        W38460  13.081   7.466  11.942 -0.2490 -0.1176  0.0586
20257W        W38461   6.069   1.593   2.941  0.0453  0.1177  0.1509
20258W        W38462   9.591   3.930  10.677  0.1124 -0.0140  0.1359
20259W        W38463  12.393  13.609   1.287  0.5302  0.0682  0.0039
20260W        W38464  17.482  12.397  14.515 -0.2781 -0.0554 -0.2625
20261W        W38465  11.633  10.192   0.663  0.1972  0.0236 -0.1173
20262W        W38466   9.568   9.254  11.566  0.0481  0.0441  0.2550
20263W        W38467  18.144  10.378   2.436  0.1019 -0.1649  0.0534
20264W        W38468  11.856  18.568   3.725  0.1766 -0.1676  0.0833
20265W        W38469   4.210   9.993   2.030 -0.1573 -0.0149 -0.0400
20266W        W38470   1.900   2.444   0.833  0.2494 -0.2397 -0.0518
20267W        W38471  15.239   6.925  13.358  0.0261 -0.0444 -0.0928
20268W        W38472   3.390  17.302  12.252  0.0110 -0.0623  0.5047
20269W        W38473  14.478  11.616  14.285 -0.0280  0.0919  0.2141
20270W        W38474   8.964  13.117   1.501  0.4406 -0.2336 -0.2347
20271W        W38475   3.917  13.790   0.301  0.3527 -0.2300  0.0272
20272W        W38476   5.198  10.278   0.735 -0.1541  0.1989  0.3390
20273W        W38477  16.647   4.882  12.378  0.2474  0.0841  0.1360
20274W        W38478  11.670  13.055   2.476 -0.1315  0.0146 -0.3430
20275W        W38479   7.404  10.285   3.900  0.0867 -0.1293 -0.0592
20276W        W38480  17.634  15.235   3.114  0.1155 -0.2249  0.3314
20277W        W38481   7.828   9.690  13.968  0.1335 -0.2305  0.1334
20278W        W38482  18.373  12.007  13.259 -0.1383  0.0174  0.0161
20279W        W38483  15.500  16.386   5.687  0.0402 -0.1616 -0.0894
20280W        W38484   0.038   3.549   4.283  0.0562  0.0459  0.0777
20281W        W38485  16.149  17.261   2.588  0.0308  0.1148  0.0738
20282W        W38486   6.095  15.558   4.379  0.1092 -0.2374  0.3099
20283W        W38487   2.376  16.836  15.395 -0.0481 -0.0876 -0.1813
20284W        W38488   3.110  12.644   2.786 -0.1537  0.3106  0.1860
20285W        W38489  12.238  12.062   3.249 -0.1226  0.2936  0.4331
20286W        W38490  17.987  16.066   4.544 -0.0082  0.3679 -0.0107
20287W        W38491   8.511  14.275   2.211 -0.0685 -0.0345 -0.0986
20288W        W38492   1.071   0.007   1.538  0.0421 -0.1245 -0.0232
20289W        W38493   9.003  17.432   1.919 -0.0585 -0.0047  0.1708
20290W        W38494  14.332   7.385   1.662  0.0857  0.2611  0.0461
20291W        W38495   4.343   9.471  11.328 -0.0971 -0.0681 -0.0578
20292W        W38496   5.228  18.524   2.224  0.0979 -0.1482  0.0063
20293W        W38497   0.236  16.209  11.255  0.0236 -0.1208  0.1536
20294W        W38498   4.564   4.912   0.091  0.1547 -0.2911  0.1458
20295W        W38499  11.020   0.375  15.034 -0.3913  0.0946  0.1934
20296W        W38500   2.630  13.132   3.127 -0.1299  0.0557 -0.1114
20297W        W38501   1.950   9.464   2.157 -0.1076  0.0510  0.3542
20298W        W38502  15.885  11.018   2.291 -0.2816 -0.1728  0.2136
20299W        W38503  10.273   9.825  12.549  0.2895  0.0891 -0.0344
20300W        W38504   8.611  12.645   4.029  0.1694  0.0401  0.0328
20301W        W38505   9.512   9.127   1.157  0.1381  0.5313  0.2507
20302W        W38506   7.202   4.952  12.790  0.0878 -0.1339 -0.1948
20303W        W38507  11.180  14.549   0.905  0.1447  0.1412 -0.1531
20304W        W38508   0.293  10.933   2.730 -0.0637  0.2318  0.0733
20305W        W38509  13.596   2.763   1.492 -0.1505  0.0248  0.0469
20306W        W38510  11.919  10.673   0.006 -0.0728  0.1166 -0.0562
20307W        W38511   6.496   5.493  13.919 -0.0330  0.0901  0.0449
20308W        W38512  10.617  16.579   3.598  0.1683 -0.0223 -0.1486
20309W        W38513  14.301   4.728   0.501  0.1524  0.2921 -0.0322
20310W        W38514  14.957   9.448  12.037  0.0752 -0.0167  0.1006
20311W        W38515   7.772  16.977  12.411 -0.0727  0.0808 -0.0631
20312W        W38516   4.998   3.105  12.285 -0.1683  0.3569 -0.0911
20313W        W38517   3.878   7.526   3.141  0.0885 -0.3035 -0.0978
20314W        W38518   2.685   3.912   1.158  0.0069  0.1073 -0.2181
20315W        W38519  15.218  17.927   3.922  0.0029 -0.2717  0.3632
20316W        W38520  15.333  17.953   2.364  0.1228 -0.0175  0.0563
20317W        W38521  10.452   8.343   2.303 -0.2139 -0.2271 -0.4186
20318W        W38522   8.012   5.100  10.570 -0.1942  0.1164 -0.2450
20319W        W38523   9.538  15.805  14.072  0.1154 -0.0169  0.2230
20320W        W38524   3.343  15.951   0.692 -0.0057  0.2219  0.0384
20321W        W38525  17.371  11.677   4.133 -0.0882  0.0350  0.2298
20322W        W38526  16.797  12.000  14.544 -0.0769  0.0833  0.0587
20323W        W38527  16.751  14.823   1.780  0.0096  0.2926 -0.1036
20324W        W38528  13.386   1.910  14.628  0.0664  0.2558 -0.1061
20325W        W38529  18.504   8.942  12.127 -0.4052  0.1001 -0.0118
20326W        W38530  10.008   2.544   0.499 -0.2445 -0.1163 -0.0303
20327W        W38531  15.042  13.079   1.108  0.1056  0.1982 -0.0873
20328W        W38532  16.134  15.258   2.063  0.2835 -0.3206  0.0316
20329W        W38533  15.375  17.513  11.063  0.1455  0.0558  0.5049
20330W        W38534   0.209  13.327   0.251  0.3280  0.0786 -0.0641
20331W        W38535  18.213  13.333   2.040 -0.0564 -0.1291 -0.1599
20332W        W38536   6.312   0.822  10.632 -0.0735  0.1897  0.1369
20333W        W38537  17.302  11.310  12.724 -0.3596  0.1515 -0.0579
20334W        W38538   9.589   7.675   5.433 -0.1537 -0.0484 -0.2730
20335W        W38539   0.687   9.254  14.087  0.0456  0.0624  0.1538
20336W        W38540  12.173   1.007   0.406 -0.3088  0.0121  0.1150
20337W        W38541   5.923  14.912   2.859  0.0983  0.5479 -0.2455
20338W        W38542  17.477   9.850   0.569  0.1513  0.1295 -0.0906
20339W        W38543   9.851  16.343  15.372 -0.5247  0.1179  0.1683
20340W        W38544   7.777   0.579  15.224 -0.5166 -0.1192 -0.1251
20341W        W38545  11.738  10.840   1.297  0.0555 -0.1501 -0.2088
20342W        W38546  14.530   9.184  11.308 -0.0066 -0.1658 -0.1726
20343W        W38547   3.387  14.223   0.417 -0.0668 -0.1161  0.1517
20344W        W38548  12.983  13.163   2.978  0.2097  0.1881 -0.0827
20345W        W38549  11.791   7.445  12.341 -0.0568 -0.0074  0.2471
20346W        W38550   8.540  14.766  12.533  0.1096  0.0793 -0.1602
20347W        W38551   4.280   5.574   0.228  0.0979  0.0188  0.1237
20348W        W38552   3.311  15.769  14.734  0.0053  0.1482  0.1365
20349W        W38553   5.533   3.604  13.138  0.0063 -0.1178  0.1024
20350W        W38554  10.690  17.408   5.224 -0.1550  0.0515  0.1529
20351W        W38555   8.206   9.032  11.644 -0.0760  0.4150  0.0382
20352W        W38556   0.242   7.157   4.286 -0.3849  0.1956  0.4364
20353W        W38557   1.439   5.240   3.865 -0.0197  0.2205  0.3886
20354W        W38558  14.448   0.025   0.546  0.2635 -0.1830  0.1936
20355W        W38559   2.905   2.029   1.341 -0.1442 -0.2180  0.0814
20356W        W38560  14.491   4.693  11.126  0.0909 -0.1892  0.2003
20357W        W38561  12.336  17.768  11.358 -0.2560 -0.0074  0.0474
20358W        W38562  18.043   7.903   2.769 -0.1465 -0.1505 -0.0653
20359W        W38563   5.716  17.434   1.650  0.0972 -0.1016 -0.3224
20360W        W38564   4.332  14.572   1.741 -0.0971  0.2326 -0.2458
20361W        W38565  11.729  14.543  12.162 -0.0086  0.1517 -0.0523
20362W        W38566  12.328   8.920   4.854  0.1370 -0.2407 -0.0127
20363W        W38567   8.961  10.149   0.409  0.1227  0.2339 -0.0938
20364W        W38568  13.464  12.167   3.126  0.0842 -0.1423  0.0730
20365W        W38569   8.359   6.052   3.998 -0.1031 -0.0037  0.1009
20366W        W38570   0.462  13.831   1.562 -0.2333  0.1756  0.2265
20367W        W38571  14.986   5.700  14.582 -0.2144  0.2837  0.1491
20368W        W38572  15.327   3.567  13.311 -0.1854 -0.1008 -0.1759
20369W        W38573   1.318   5.784  10.441 -0.1206  0.1897  0.0272
20370W        W38574   6.608  11.688  11.368  0.3978 -0.0434  0.0199
20371W        W38575  12.407   7.575   1.387  0.1722 -0.3297  0.1776
20372W        W38576   2.458  14.442  15.348 -0.0858  0.1041  0.2418
20373W        W38577  16.853  12.989  11.751  0.0808 -0.2224  0.1614
20374W        W38578   6.080  12.596   3.072 -0.3081 -0.0149 -0.2818
20375W        W38579  18.078  17.753  11.076  0.0384 -0.1476 -0.2028
20376W        W38580  14.907   4.116  14.233  0.1283  0.2500 -0.3172
20377W        W38581  16.381  10.215   0.681  0.1405 -0.2566 -0.0419
20378W        W38582  16.166   2.393   1.796  0.0334 -0.0847 -0.0731
20379W        W38583   5.932  14.690  15.315  0.0690  0.0080 -0.0383
20380W        W38584  13.048   1.571  13.688  0.0940 -0.1415 -0.0691
20381W        W38585  13.447   9.846   1.220  0.1104  0.1391 -0.2435
20382W        W38586   0.595  16.536   3.506  0.3489  0.0002  0.0953
20383W        W38587   4.203  16.019   4.287 -0.0853 -0.0056 -0.0012
20384W        W38588  10.171   6.839   0.656  0.3858 -0.2926  0.3078
20385W        W38589  10.851  13.583  13.395 -0.0361 -0.0979 -0.2203
20386W        W38590   1.102   6.597   4.084 -0.1069 -0.0860 -0.4310
20387W        W38591   1.186  10.405   2.093  0.2067  0.1279  0.1468
20388W        W38592   5.956   7.401  14.454 -0.1682 -0.1124  0.0165
20389W        W38593  12.604   7.099  14.526  0.0471 -0.3640 -0.0879
20390W        W38594   3.008   9.708   3.862 -0.1736  0.0782 -0.0101
20391W        W38595   7.706   0.487   3.226 -0.0969 -0.1145 -0.2451
20392W        W38596  16.274  13.883   0.147  0.2000  0.2256 -0.0084
20393W        W38597  18.521  10.516  12.436 -0.1603 -0.1932 -0.0451
20394W        W38598  12.081   3.091  11.909  0.1854  0.2672  0.0174
20395W        W38599   8.313   5.077   2.689  0.0427 -0.1586  0.2495
20396W        W38600  17.957   8.141   4.211  0.1503  0.3808  0.6791
20397W        W38601   6.265  18.494  12.533 -0.0678  0.0663 -0.1767
20398W        W38602   4.380   2.506   2.383  0.1768  0.2662  0.1849
20399W        W38603  14.857   9.839  13.206  0.1712 -0.0663 -0.0075
20400W        W38604  10.482  15.064  14.689  0.1043 -0.4456  0.0030
20401W        W38605  10.059  13.567  14.768  0.0996  0.1699  0.3987
20402W        W38606  13.661   3.283  12.681  0.0196 -0.3569  0.4062
20403W        W38607   8.006   0.443   1.582 -0.1222 -0.3165  0.2594
20404W        W38608   7.163  10.050  10.955 -0.1189  0.0325 -0.0298
20405W        W38609   0.224   2.914  14.815  0.1448 -0.1635 -0.2179
20406W        W38610  17.288   4.685   2.942  0.0529  0.1579  0.0052
20407W        W38611   9.248   5.448   1.093 -0.0635 -0.1039  0.3645
20408W        W38612   1.253  18.443   0.401  0.0529 -0.1096  0.0410
20409W        W38613  13.466   8.962   0.671  0.1806  0.2295  0.2803
20410W        W38614   4.147  17.133   4.465  0.2642  0.0120  0.2273
20411W        W38615  15.238  16.705   2.766 -0.0790 -0.0666  0.1855
20412W        W38616   1.110  10.433   0.504 -0.1627 -0.1176 -0.0097
20413W        W38617   4.271   4.805   0.923 -0.1516  0.0444 -0.1919
20414W        W38618  10.566  16.618   4.175  0.2857 -0.0762 -0.0203
20415W        W38619   3.472  10.216  15.071  0.2828 -0.0002 -0.0298
20416W        W38620   8.045   3.374  12.575  0.1126  0.0859 -0.2538
20417W        W38621  10.159  10.727   3.189  0.2282 -0.2888  0.0029
20418W        W38622  15.481   5.910   0.943  0.3518  0.0749  0.0009
20419W        W38623  12.090  15.716   0.956  0.1498  0.2751  0.0168
20420W        W38624  17.539  15.681   2.377 -0.1126 -0.1167 -0.1436
20421W        W38625  16.350  16.120   4.298  0.0368  0.1062  0.0625
20422W        W38626  12.602   7.751  13.426 -0.0150 -0.1539 -0.0763
20423W        W38627  16.468  12.620   3.748  0.1650  0.0245 -0.3384
20424W        W38628   6.030   6.577   0.980  0.1193 -0.1947 -0.2194
20425W        W38629  18.101  15.147   0.681  0.0542  0.1066 -0.5180
20426W        W38630  13.655  16.580  11.289 -0.2136  0.4702 -0.0024
20427W        W38631   0.141   3.855  12.159  0.0400 -0.1749  0.1149
20428W        W38632  10.112   1.284  14.792 -0.1606 -0.1733  0.3381
20429W        W38633  10.753   9.413  13.738 -0.0485  0.0076  0.2194
20430W        W38634  13.699  15.892   2.742  0.3131  0.3808 -0.1813
20431W        W38635   3.906  12.072   0.283 -0.2316  0.0277  0.0699
20432W        W38636   8.871  13.374   4.030 -0.4312  0.1925  0.0284
20433W        W38637   8.410  10.629  12.502 -0.1556 -0.1336 -0.1482
20434W        W38638  14.140   4.180   2.389 -0.1295  0.0365  0.4436
20435W        W38639  17.468   4.778   1.662 -0.0290 -0.2491 -0.2332
20436W        W38640   4.996  16.430  10.949  0.3258 -0.0309 -0.0753
20437W        W38641  13.831  11.944  14.734 -0.2736  0.0841 -0.0318
20438W        W38642   6.186   9.136  15.239 -0.1164  0.2957 -0.2926
20439W        W38643   4.785   3.562   0.859  0.0532 -0.2341  0.0333
20440W        W38644   6.336   6.393   2.293  0.0854  0.3287  0.1178
20441W        W38645   3.117   9.854   0.836 -0.2777  0.1585  0.0769
20442W        W38646   4.434  17.258   4.141  0.0698  0.3110  0.1486
20443W        W38647  17.908  13.827   1.646 -0.1819  0.0167  0.0360
20444W        W38648  18.162  14.337  13.861 -0.1266  0.0527  0.0307
20445W        W38649  11.024  12.939  12.676 -0.2810 -0.1764 -0.2313
20446W        W38650  15.011   3.574   4.484  0.0332  0.1186 -0.2071
20447W        W38651   6.571   7.069   3.751 -0.1214 -0.0790  0.2197
20448W        W38652  14.483   6.186  12.027  0.5747  0.1138 -0.1382
20449W        W38653  11.855   8.707  14.434 -0.2960  0.5103  0.0548
20450W        W38654   8.066   9.372   1.025 -0.0701  0.0819 -0.0757
20451W        W38655   3.527   0.308  13.838 -0.1987 -0.2092 -0.1583
20452W        W38656   3.354  14.814   1.474  0.3165 -0.0847 -0.0667
20453W        W38657   1.184   4.052  10.948  0.0216  0.0456 -0.1642
20454W        W38658  12.476  12.235   1.854  0.0946 -0.2005  0.1621
20455W        W38659  16.659  17.467  14.257  0.0490  0.1968 -0.1552
20456W        W38660  13.583   5.880  11.909  0.2084 -0.0315 -0.1086
20457W        W38661   6.069   2.247  12.176 -0.1669 -0.2064 -0.0004
20458W        W38662  18.685  13.707   2.829  0.0624  0.3281  0.1252
20459W        W38663   2.345  18.264   1.064  0.0336  0.1088 -0.0776
20460W        W38664   2.495   5.947   1.697  0.1948  0.0037  0.0818
20461W        W38665   3.163  12.389  13.245 -0.1256  0.0790  0.2362
20462W        W38666   0.143   7.460   3.570  0.0117  0.2982 -0.0166
20463W        W38667   6.496   5.301  14.914 -0.1642  0.0198  0.1440
20464W        W38668  16.624   9.763   1.935  0.1528  0.1406 -0.1635
20465W        W38669  12.560  15.793  15.046 -0.1553  0.2104  0.0472
20466W        W38670   6.757  17.647   2.722 -0.2141 -0.2203 -0.1104
20467W        W38671   9.508  15.833   3.572  0.3093  0.0644  0.0967
20468W        W38672  10.017   5.441   0.185 -0.1943  0.2836 -0.2239
20469W        W38673   9.362   0.656  11.486  0.1286 -0.0266 -0.0201
20470W        W38674  14.049  18.081  13.238  0.1175 -0.0691  0.2264
20471W        W38675  11.081  13.041   2.055 -0.4070 -0.0615 -0.0972
20472W        W38676  10.200  15.632   1.540 -0.4883  0.2118 -0.1672
20473W        W38677   8.489   3.028  11.824 -0.0481 -0.3548  0.1644
20474W        W38678  13.508  11.163   2.144 -0.0006  0.6577 -0.1148
20475W        W38679  18.206  10.751  10.636  0.0167 -0.0315  0.0905
20476W        W38680   1.674  12.016  15.330 -0.1711  0.3377 -0.0108
20477W        W38681   8.269   2.026   2.811 -0.3427 -0.0135  0.0183
20478W        W38682   0.756   4.267  13.247 -0.2446 -0.3037 -0.0027
20479W        W38683   4.741   0.768  14.673  0.1919 -0.2042  0.3215
20480W        W38684   6.004  14.203  14.179 -0.0425  0.2331  0.0891
20481W        W38685  11.653  12.204  14.844 -0.1122  0.1936 -0.0016
20482W        W38686  13.093   6.975  12.839  0.0137  0.2685  0.1394
20483W        W38687  14.042   6.083  10.991 -0.0695 -0.0244  0.1187
20484W        W38688   3.527  15.824  13.306  0.2062  0.1225  0.1282
20485W        W38689   0.390   1.416   1.578  0.3617  0.1696  0.0246
20486W        W38690  12.090  17.680  13.403 -0.0592  0.1702 -0.0347
20487W        W38691  10.804   9.414  13.127  0.0691  0.2591  0.1344
20488W        W38692  12.926   2.752  12.194  0.0320  0.0785 -0.1574
20489W        W38693   2.153  16.556   1.759 -0.2855  0.0323  0.2637
20490W        W38694  14.223  13.344  12.539  0.0442  0.1535 -0.3168
20491W        W38695  10.127  12.681  11.953 -0.0491 -0.0434  0.0711
20492W        W38696  16.327   3.893   1.360 -0.0413 -0.0122 -0.2327
20493W        W38697   8.844   0.684   4.340 -0.0966 -0.4253 -0.0447
20494W        W38698   4.800  17.106   2.569 -0.3179  0.3940  0.5024
20495W        W38699  14.560  12.149  12.673 -0.1444  0.0873 -0.0892
20496W        W38700   5.456  15.068  10.719  0.0253 -0.1574  0.2165
20497W        W38701  15.489  10.760   0.008 -0.0374 -0.1039 -0.1348
20498W        W38702   0.451  15.610   2.421 -0.1560  0.1991  0.1241
20499W        W38703   9.666  18.138  15.177 -0.0453 -0.1883  0.1306
20500W        W38704   2.431   1.540   1.439  0.0944 -0.0176  0.0758
20501W        W38705  17.251  16.513   1.702  0.2253  0.1924 -0.1711
20502W        W38706   3.011  18.646   0.842 -0.0972  0.2672  0.1865
20503W        W38707   7.197   9.136   4.481  0.0350 -0.1401  0.1046
20504W        W38708  12.803  13.562   5.540  0.1749 -0.0140  0.3739
20505W        W38709  17.573   3.622  11.198 -0.0109  0.3284 -0.1905
20506W        W38710   7.100  11.004   0.637  0.0372  0.1875  0.1922
20507W        W38711  13.635   4.610  11.494 -0.3635  0.0256  0.0614
20508W        W38712  10.393   0.579   5.196 -0.1842  0.3402 -0.1996
20509W        W38713   0.075  10.299   0.275  0.2231  0.0935  0.0912
20510W        W38714   6.239   5.558  11.692  0.0118 -0.0155  0.0611
20511W        W38715  16.259   6.204  14.264 -0.0823 -0.0848 -0.3182
20512W        W38716   4.000  11.169  11.560 -0.0930  0.1249 -0.1960
20513W        W38717   9.735  12.260   2.713  0.0784 -0.0583  0.3198
20514W        W38718  11.242   9.382   3.547 -0.0299 -0.0919 -0.0703
20515W        W38719  10.623  12.634  11.731 -0.0869 -0.3540  0.1104
20516W        W38720   6.948  17.983   4.215 -0.1256 -0.0097  0.2649
20517W        W38721   0.290  16.027   4.151  0.1564  0.1325 -0.1311
20518W        W38722  15.284  14.533  13.944  0.1322 -0.4016  0.0033
20519W        W38723  11.145   3.275  11.115 -0.0525 -0.0803 -0.1203
20520W        W38724  17.829   2.360  13.864  0.0620 -0.1512  0.1440
20521W        W38725   8.021   9.608   3.307  0.0239  0.0875 -0.0872
20522W        W38726  10.004  13.360  13.825 -0.1585 -0.1373 -0.1144
20523W        W38727   3.745  15.085   1.240  0.0560  0.0998  0.0641
20524W        W38728   1.221  12.148  15.286 -0.1117 -0.1128 -0.0648
20525W        W38729  18.352   9.820   0.899 -0.1812 -0.0089  0.3127
20526W        W38730  17.078   4.917  13.551  0.0687  0.2822 -0.0231
20527W        W38731  10.067  15.935   1.916 -0.0245  0.0748  0.0991
20528W        W38732   1.192   1.718   2.531  0.0542 -0.3270 -0.1450
20529W        W38733   6.801   2.856  12.254  0.1234  0.1035 -0.1753
20530W        W38734  16.998  18.634  12.278 -0.6954  0.0185  0.0259
20531W        W38735   4.176   1.912  12.284  0.1239 -0.0408 -0.2950
20532W        W38736  14.229   5.049   2.364  0.1004  0.3617  0.1595
20533W        W38737   2.794  11.083   2.391 -0.0946 -0.0310  0.2873
20534W        W38738  10.959  17.440   4.192  0.2179 -0.0282 -0.0736
20535W        W38739   8.713   3.174   2.280  0.0023  0.0418 -0.3659
20536W        W38740  14.668   8.275   1.371  0.2449 -0.4226 -0.3696
20537W        W38741   5.015  17.648  11.500 -0.0369 -0.1004 -0.1219
20538W        W38742  10.724   7.607  14.852 -0.0968 -0.1622  0.3039
20539W        W38743   2.909   3.090  11.604  0.0647 -0.2269 -0.1191
20540W        W38744   4.549   0.249   1.556  0.2113 -0.1081  0.0738
20541W        W38745  10.689   5.056   4.871 -0.1987  0.1296 -0.1809
20542W        W38746  16.361   1.073   4.653 -0.2069  0.1275 -0.0800
20543W        W38747   1.803   9.742  11.552 -0.0527 -0.0308  0.1890
20544W        W38748   4.739   2.190  13.254  0.0906 -0.3843  0.2279
20545W        W38749  12.023   4.621  11.181 -0.4517  0.0018  0.2470
20546W        W38750   7.033   7.956   1.611  0.2821  0.1428  0.1157
20547W        W38751  11.098   8.939   3.315  0.0928  0.1924 -0.1260
20548W        W38752  12.557  15.952   9.925 -0.1136 -0.1331 -0.0400
20549W        W38753   5.222  10.338  12.200  0.1448  0.0434  0.0218
20550W        W38754  17.907  15.930  12.296  0.0259  0.3871 -0.0110
20551W        W38755  16.442   4.485   4.667 -0.1386 -0.2496 -0.0735
20552W        W38756   2.101  18.210  12.821 -0.1256 -0.0450 -0.0688
20553W        W38757   6.565   4.144  12.470  0.1950  0.0025 -0.3166
20554W        W38758   5.950  16.852  13.268 -0.0539  0.2189 -0.2221
20555W        W38759  17.727  13.302   9.902 -0.2519  0.1922  0.2049
20556W        W38760   7.322   4.819   2.569  0.1605  0.0911 -0.3090
20557W        W38761   3.234   5.388  14.536 -0.2208  0.0197 -0.2072
20558W        W38762   8.163   0.040  11.119 -0.0531 -0.0361  0.2025
20559W        W38763   3.646   5.320  13.853 -0.0557  0.2780 -0.1065
20560W        W38764   7.846   4.762  14.026 -0.0340 -0.0256 -0.0415
20561W        W38765  17.168   8.703  13.396 -0.0795 -0.0028 -0.1163
20562W        W38766   7.066  12.351   0.923 -0.1319 -0.0420 -0.0080
20563W        W38767   8.711  13.401  11.685 -0.2384 -0.1995 -0.3185
20564W        W38768   7.545   7.231  12.788  0.0465 -0.0321  0.2399
20565W        W38769  15.644   5.673  11.431 -0.2899  0.0727 -0.1961
20566W        W38770   1.343   1.386  10.896  0.0068  0.3010  0.0852
20567W        W38771  16.494   4.112  13.929 -0.4110  0.1550 -0.0304
20568W        W38772   8.048  14.399  14.052  0.0114 -0.1057 -0.0646
20569W        W38773  15.792   8.052   2.192 -0.0007  0.0817  0.0689
20570W        W38774   8.666  16.047  15.072 -0.1269  0.0823  0.2720
20571W        W38775   4.159  11.201   1.879  0.0271 -0.1470  0.0232
20572W        W38776  10.540  12.202   3.559  0.3053  0.0958 -0.0584
20573W        W38777   4.114   1.947   2.315 -0.4283 -0.2944 -0.1165
20574W        W38778   1.505   4.206   2.630  0.0758 -0.2661 -0.2286
20575W        W38779   5.574   8.403  15.400 -0.1057  0.1229 -0.0801
20576W        W38780   3.564   2.031   3.679 -0.1605  0.5239  0.2877
20577W        W38781   6.265   3.710   1.323 -0.2332  0.0200 -0.2747
20578W        W38782   6.395   7.703   2.205  0.2093  0.1528 -0.1215
20579W        W38783  12.809  16.898  11.611  0.2701  0.0792  0.1894
20580W        W38784   7.598   5.061  12.351 -0.2521 -0.1085 -0.0010
20581W        W38785   2.625   2.161  13.058 -0.1711 -0.0345 -0.1325
20582W        W38786   1.516  14.660  14.847  0.1101 -0.0572  0.1380
20583W        W38787  11.793   6.859  14.122 -0.0133 -0.0884 -0.1696
20584W        W38788  10.283   8.213  10.920  0.3517 -0.1067 -0.1573
20585W        W38789  18.484  17.552   4.229 -0.5130  0.0785  0.3239
20586W        W38790   3.612   3.996   1.768 -0.0944  0.2774 -0.1524
20587W        W38791  15.239  14.184   1.373 -0.0059  0.1881  0.1709
20588W        W38792  12.021   1.287   3.083 -0.0204 -0.2145 -0.0960
20589W        W38793  14.937  17.242  12.286  0.1811 -0.1111  0.0649
20590W        W38794  13.955   9.387  13.019 -0.1880 -0.1984  0.0817
20591W        W38795  15.882   4.164   5.605  0.3202 -0.0069 -0.2254
20592W        W38796   3.450   8.778  12.800 -0.1735  0.0574 -0.0829
20593W        W38797   5.310   4.299   1.378  0.2405 -0.2633 -0.1332
20594W        W38798   3.158   8.344  12.843  0.1576 -0.1554  0.1074
20595W        W38799  12.787   1.256  15.145  0.3208 -0.0020  0.0217
20596W        W38800  18.149  10.828   3.235 -0.1464  0.0675  0.0354
20597W        W38801  14.956  17.149   2.627 -0.1145  0.0084  0.0504
20598W        W38802  14.275   7.845  12.556  0.4532  0.1971 -0.0729
20599W        W38803  11.384   2.258  12.860  0.0618 -0.2434 -0.4387
20600W        W38804  12.825  18.403  14.998 -0.0137 -0.3039 -0.0005
20601W        W38805   2.601   4.477   4.726  0.0089 -0.0463  0.1060
20602W        W38806   6.203  17.738  11.764  0.2046  0.0451  0.2960
20603W        W38807   6.578  14.920   3.470  0.0259  0.3252  0.0931
20604W        W38808   7.610  18.660  13.057 -0.1737 -0.3035 -0.0645
20605W        W38809  17.937  15.903  11.301 -0.0786 -0.0634 -0.0031
20606W        W38810   1.307   1.607  12.874 -0.2383  0.2303 -0.0863
20607W        W38811   7.731   9.295   1.944  0.2361  0.2263  0.2190
20608W        W38812   0.183   7.354  13.151  0.0440  0.1208 -0.2234
20609W        W38813  10.780   3.736   1.776  0.0335 -0.1790  0.1804
20610W        W38814   8.627  11.513   2.898  0.2169 -0.0207  0.0757
20611W        W38815  15.528   2.785   3.200  0.0772 -0.2622  0.0733
20612W        W38816   3.410   9.012  11.207 -0.1664 -0.2486 -0.2600
20613W        W38817   6.143   2.407   1.376 -0.3715  0.3356 -0.0573
20614W        W38818  15.607  12.493  13.267  0.2666  0.0639  0.0290
20615W        W38819   8.344  11.932  12.676 -0.3138 -0.0231  0.0294
20616W        W38820  14.148   5.237   1.825 -0.0034  0.1545  0.3414
20617W        W38821  12.002   9.944  14.220  0.0070 -0.2037 -0.1282
20618W        W38822   0.203   7.167   2.005 -0.2070  0.0530  0.3874
20619W        W38823   9.869  16.203   2.970 -0.0942  0.5034  0.2105
20620W        W38824   8.961   6.951  14.684 -0.1827  0.0178  0.0977
20621W        W38825   2.917   4.072   0.665  0.2313 -0.0699  0.1216
20622W        W38826  10.823   6.233  11.284 -0.2385 -0.1481  0.1396
20623W        W38827   8.149  11.301  14.389  0.0267 -0.0958  0.0162
20624W        W38828   8.172  18.008   2.828 -0.1867 -0.1779  0.0042
20625W        W38829  13.303   3.468   1.742  0.0522  0.0746 -0.2622
20626W        W38830  16.589  11.880  11.604 -0.3521 -0.0317  0.0458
20627W        W38831   6.473   9.441   2.628 -0.3097 -0.0281  0.0615
20628W        W38832  18.013  15.844  15.236  0.0653 -0.1284  0.2188
20629W        W38833  10.123  17.112   0.004 -0.0018 -0.2031 -0.2903
20630W        W38834   3.155  17.950   3.697 -0.1292  0.1413 -0.0521
20631W        W38835   6.558  14.076   4.200  0.1890  0.2222 -0.0976
20632W        W38836  15.614   9.989   0.014 -0.0835  0.3031 -0.1223
20633W        W38837   6.738  14.690  13.612 -0.0470 -0.2306  0.0918
20634W        W38838  16.431   6.087  11.686 -0.1795  0.0160  0.2960
20635W        W38839   8.961   4.204  13.564  0.2716  0.1507 -0.0156
20636W        W38840  15.649   8.255  14.753 -0.1744 -0.2968 -0.0688
20637W        W38841   3.686   0.718   0.513  0.2211  0.0600  0.1484
20638W        W38842   3.516   1.362   4.110  0.2194  0.3497 -0.1671
20639W        W38843  14.215   8.725   2.498 -0.3752 -0.0392 -0.1575
20640W        W38844  15.580   9.001  15.350 -0.2288  0.0193 -0.2994
20641W        W38845   0.611   4.209   0.835  0.0595  0.1329  0.0169
20642W        W38846  13.985   8.143   3.088 -0.0425 -0.1321 -0.2356
20643W        W38847   0.142  15.197   3.882  0.1186 -0.0261 -0.0830
20644W        W38848   2.933  17.065  12.883  0.2355 -0.1925 -0.2751
20645W        W38849   4.035   7.359  12.496  0.0554 -0.0536 -0.0944
20646W        W38850  16.273  13.068  11.025  0.1782 -0.0649 -0.1961
20647W        W38851   6.326  12.762  14.229  0.0149 -0.0060 -0.1859
20648W        W38852   3.656  16.044   2.159  0.1190  0.1458  0.0692
20649W        W38853   1.417  18.523   3.520  0.0501 -0.2179 -0.3367
20650W        W38854  15.476   3.145   0.376 -0.1122  0.2133 -0.0687
20651W        W38855  16.163   9.018   3.954  0.3599  0.0110  0.1115
20652W        W38856  14.040  11.668  13.066 -0.4501  0.0617 -0.1162
20653W        W38857  14.211   8.145   0.539  0.1807  0.0203  0.0915
20654W        W38858  12.809  18.402   0.105  0.0617  0.0773  0.0783
20655W        W38859  14.015  14.082   0.842  0.3439 -0.0415 -0.0404
20656W        W38860  10.532   9.186  11.247  0.1970 -0.0797 -0.1791
20657W        W38861   2.203   1.802   5.211 -0.0243 -0.1989  0.0401
20658W        W38862  13.491   9.833   0.654  0.2121  0.0470 -0.0010
20659W        W38863  10.589   5.788  11.326  0.2313  0.0815  0.1592
20660W        W38864   6.225  13.087   3.108 -0.4912 -0.5418 -0.1343
20661W        W38865   8.911   2.209   2.050  0.1277 -0.2800  0.2396
20662W        W38866   1.380  13.811  14.838 -0.1923  0.1857 -0.0248
20663W        W38867  12.892   3.243  10.730  0.2959  0.0050 -0.1245
20664W        W38868   3.322   4.790  12.690 -0.0856 -0.1687 -0.0006
20665W        W38869  13.676  10.214  12.977 -0.2369  0.3220  0.1771
20666W        W38870  17.920   5.030   2.010 -0.0025  0.0531 -0.6173
20667W        W38871  16.448  17.986  12.309  0.2537 -0.2497 -0.1928
20668W        W38872  12.004   1.249   3.601  0.0150 -0.0575 -0.2139
20669W        W38873   6.210   8.863  14.008  0.0220  0.0467 -0.4086
20670W        W38874   4.837  14.455  13.238 -0.1308 -0.1366  0.1009
20671W        W38875  18.080   7.698   3.950 -0.2086  0.0207  0.0632
20672W        W38876  14.128   8.442  11.327  0.3178  0.2201 -0.1055
20673W        W38877   8.569   5.894   0.550  0.2383  0.1340  0.1773
20674W        W38878   3.344   6.247  14.793  0.1769 -0.2059 -0.2006
20675W        W38879   4.434  14.756  13.488 -0.1586  0.0304  0.0636
20676W        W38880   4.584   4.380  14.359 -0.3065  0.0022  0.0144
20677W        W38881  13.342  13.320  13.960 -0.3065 -0.0174 -0.0953
20678W        W38882  10.538  13.472  10.735  0.2870  0.2098 -0.1127
20679W        W38883  16.223  10.700   3.135 -0.1306 -0.3137  0.0615
20680W        W38884   3.616   5.656   0.098  0.0974  0.3457 -0.0682
20681W        W38885  11.432   3.099  14.006  0.0162 -0.2225 -0.3392
20682W        W38886   3.090  15.489   0.744  0.1387 -0.1245  0.2831
20683W        W38887  15.836  13.727   2.146 -0.2130  0.2189 -0.0655
20684W        W38888   4.908  13.111  12.031 -0.0411  0.0203 -0.1855
20685W        W38889   5.679  17.129  14.748  0.2972  0.0478 -0.0827
20686W        W38890  14.692  15.720   3.586  0.0351  0.0191 -0.0497
20687W        W38891   8.274  13.425   4.492  0.0269  0.1867 -0.1539
20688W        W38892  10.394  11.207   4.510 -0.1856 -0.2130  0.2459
20689W        W38893  12.025  17.634  12.923  0.4310  0.1501  0.4365
20690W        W38894   8.431  18.612   3.558 -0.0323  0.0451 -0.1876
20691W        W38895  13.883   0.761   4.570 -0.2096 -0.0420  0.0077
20692W        W38896  12.780   2.351  11.899 -0.1430 -0.0633  0.1153
20693W        W38897   4.109  12.410   2.608 -0.0655  0.1105  0.0579
20694W        W38898   1.426   6.165   4.908 -0.1183 -0.1117  0.1584
20695W        W38899  15.793   8.757  11.315 -0.0383 -0.2255 -0.3007
20696W        W38900   7.104  18.646   0.167 -0.0178 -0.0012  0.0118
20697W        W38901  11.394   9.221   2.519 -0.3095 -0.0240 -0.2582
20698W        W38902  11.770   0.966  12.570 -0.1800  0.0360 -0.3778
20699W        W38903   8.565   8.252  14.115  0.3971 -0.4415  0.0777
20700W        W38904  11.900   7.446   2.243 -0.0479 -0.0551 -0.3004
20701W        W38905   3.563   9.157   1.888 -0.1314 -0.0830 -0.0938
20702W        W38906  17.298   8.080   4.856  0.1416  0.0580 -0.1001
20703W        W38907   2.235   0.074   3.269 -0.1298  0.0913 -0.0728
20704W        W38908  11.054   0.487   4.548  0.0561 -0.0021  0.1679
20705W        W38909   8.352  10.320  14.698 -0.1873 -0.0590 -0.3968
20706W        W38910   4.274   7.130  12.842 -0.2474  0.5302  0.2626
20707W        W38911   2.489  18.382   2.480  0.2160 -0.3865 -0.3613
20708W        W38912  18.267  18.685   3.061  0.1877 -0.2195 -0.1879
20709W        W38913  17.669   3.392  10.732 -0.1257 -0.1667 -0.1933
20710W        W38914  12.416  17.271  11.153 -0.0942 -0.1458 -0.1612
20711W        W38915   6.110  11.926  10.613  0.2631  0.0964  0.0113
20712W        W38916   2.304  10.794  10.853  0.0352 -0.0553 -0.0309
20713W        W38917  11.588  18.306   0.844  0.2921  0.2455 -0.3534
20714W        W38918   5.390  12.490   4.020 -0.1421  0.1686 -0.1492
20715W        W38919   4.917   5.284  13.477 -0.0169  0.0957 -0.0902
20716W        W38920   5.721  16.375  13.364 -0.0296  0.0992 -0.3063
20717W        W38921   2.744   8.091   5.235 -0.0357  0.2959  0.1307
20718W        W38922   5.273  15.875   3.468 -0.0122  0.0790 -0.2607
20719W        W38923   2.952   4.974  14.561  0.1659  0.0543  0.1985
20720W        W38924   8.101   4.458  12.883  0.0402 -0.0594 -0.1368
20721W        W38925   3.410   7.009   2.026 -0.3593 -0.0277 -0.0979
20722W        W38926   9.955  11.877   3.001  0.0432 -0.0080  0.1293
20723W        W38927   2.381   7.150  13.211 -0.1034  0.0308  0.2268
20724W        W38928   8.464   1.036  12.261 -0.1431 -0.1422  0.1197
20725W        W38929   2.660  12.247   0.809  0.0680  0.0784  0.2240
20726W        W38930  16.380   1.952   3.983  0.1439 -0.4657  0.0679
20727W        W38931  11.463  17.607   3.294 -0.1520  0.3209  0.1411
20728W        W38932  15.815  13.828   3.740 -0.2000 -0.3474 -0.3099
20729W        W38933   0.099   1.204   1.064  0.0035 -0.0999 -0.0280
20730W        W38934  13.139  14.470  15.436  0.3055  0.0197  0.6898
20731W        W38935   6.721   6.213  11.977  0.3514 -0.3859 -0.1652
20732W        W38936  13.178   3.402  13.478 -0.1139 -0.0741  0.0465
20733W        W38937   1.044   2.112   0.255  0.0673  0.2556  0.1096
20734W        W38938   8.183  11.522  12.445  0.1909  0.1485  0.0764
20735W        W38939   2.919   1.461  15.168 -0.0771 -0.1830  0.0872
20736W        W38940  11.217   5.444   4.301  0.5280 -0.1549 -0.2557
20737W        W38941  17.982  15.713   1.988  0.2478 -0.1185 -0.1523
20738W        W38942   6.975   4.060   2.512 -0.0764  0.1225 -0.0347
20739W        W38943  13.450  12.769   4.384  0.1848 -0.2837 -0.1057
20740W        W38944   1.166   9.129  12.984 -0.0207  0.0946  0.0921
20741W        W38945   4.172  15.500   4.303  0.1707  0.0462  0.1750
20742W        W38946  17.472   7.616   2.089  0.0835  0.1055  0.1333
20743W        W38947   8.656   6.032  11.113  0.0720  0.1747  0.0404
20744W        W38948   6.741   7.199   2.307 -0.1046  0.2310 -0.2912
20745W        W38949  15.482   4.152   1.843 -0.0420 -0.3006  0.0512
20746W        W38950  16.157  15.480  11.198 -0.2159  0.2729  0.2931
20747W        W38951  16.747  17.597  13.396  0.0664  0.1695 -0.0900
20748W        W38952   8.494   8.297  13.288  0.0636 -0.3035 -0.0370
20749W        W38953  10.465  16.068  10.490  0.1166  0.2834  0.1106
20750W        W38954   4.900  13.392   4.136  0.1905  0.1840 -0.0846
20751W        W38955  13.314  13.694  10.102 -0.0482  0.0140 -0.0832
20752W        W38956   1.767  10.843  12.829  0.1692  0.2228 -0.3042
20753W        W38957   7.096   8.250  14.230 -0.1819  0.1337  0.1039
20754W        W38958  10.655   3.219   0.545  0.0408  0.0891  0.0152
20755W        W38959   2.453  18.122  10.715  0.2253  0.1441 -0.0417
20756W        W38960   0.050  18.548   3.198 -0.0948 -0.0528 -0.2510
20757W        W38961  14.807  17.360   4.433 -0.0923 -0.0710 -0.0046
20758W        W38962  15.945   4.713   4.691  0.1127  0.1196 -0.2926
20759W        W38963  14.400   9.969   1.060  0.0339 -0.0098 -0.2608
20760W        W38964  16.748  16.431   1.750 -0.2786 -0.5694  0.0315
20761W        W38965  13.911  15.680   3.262  0.6269 -0.0729  0.0415
20762W        W38966  10.417   6.689   3.371 -0.1414 -0.2162  0.0146
20763W        W38967  12.636  13.390  11.146  0.2728  0.1625  0.2696
20764W        W38968   4.608   1.024   3.880 -0.0883  0.0930 -0.0582
20765W        W38969   5.275   7.501  13.805 -0.1544 -0.1677 -0.3188
20766W        W38970  17.441  11.804   3.452 -0.0198 -0.1753  0.0374
20767W        W38971  16.587   3.540   2.457  0.1509 -0.0495  0.1662
20768W        W38972   3.176   3.509  11.494  0.0172 -0.2856 -0.1159
20769W        W38973   3.885   0.715  15.185 -0.2540  0.4618  0.0339
20770W        W38974  15.741   0.321   3.407  0.0301 -0.2520  0.0312
20771W        W38975  12.053  16.599   0.749 -0.1336  0.0865  0.1022
20772W        W38976  13.375   9.218  12.888  0.1542  0.0547 -0.2824
20773W        W38977  16.066  11.790   1.710  0.0109  0.2189 -0.1018
20774W        W38978   0.136  15.125  15.436 -0.0282 -0.0834  0.2786
20775W        W38979  12.384   3.774  10.767  0.0945 -0.3186  0.2490
20776W        W38980  13.140  13.226   1.079 -0.2646  0.0493 -0.0233
20777W        W38981  14.110  16.501  14.820 -0.0241 -0.1274 -0.0150
20778W        W38982   4.639  10.167  10.764  0.1647 -0.3113 -0.2497
20779W        W38983  18.181  13.906  11.684 -0.1663  0.0261 -0.1122
20780W        W38984   8.126  12.283  12.316 -0.1948 -0.0537  0.0066
20781W        W38985   6.324   7.078  14.857  0.0113 -0.0372 -0.0922
20782W        W38986   5.335  15.455  11.072 -0.0148  0.0974  0.0520
20783W        W38987  17.030  12.697  13.490 -0.0207  0.2071 -0.2220
20784W        W38988  14.207   1.785  13.349  0.1771 -0.2166  0.1674
20785W        W38989   6.974   7.681   0.581 -0.4953 -0.0609 -0.3285
20786W        W38990  15.631   8.509   0.085  0.0097  0.0610 -0.0904
20787W        W38991   4.469  11.847  13.698  0.0157 -0.0330 -0.1266
20788W        W38992   0.908   5.655  10.954 -0.1228 -0.1626 -0.1964
20789W        W38993   1.718   2.438   4.753  0.0211  0.0791 -0.3491
20790W        W38994   1.189  14.480   0.534 -0.1192 -0.1072 -0.0060
20791W        W38995  14.476  14.602  14.312  0.0622 -0.1336  0.2825
20792W        W38996  12.617  11.433   0.888 -0.0909  0.2554  0.2013
20793W        W38997  13.775  11.141  12.878 -0.0316 -0.0038 -0.1221
20794W        W38998   2.623   1.001   1.236 -0.5306 -0.0322 -0.0601
20795W        W38999  18.562   1.398   4.600 -0.1672 -0.0764 -0.0163
20796W        W39000  10.240   2.871   1.793 -0.4372 -0.3019 -0.1454
20797W        W39001  12.022  15.503   1.533  0.0880  0.0077  0.0593
20798W        W39002   2.413  17.173   4.720 -0.1720  0.0724 -0.0843
20799W        W39003  16.593   4.817  11.128 -0.1792  0.1185 -0.2410
20800W        W39004  16.793  12.568  15.278  0.1435  0.1181  0.0983
20801W        W39005   6.009   2.885  14.267 -0.4780 -0.1738 -0.0567
20802W        W39006   1.638  18.336   0.074 -0.0566 -0.4133  0.0205
20803W        W39007   9.777  12.718   2.519  0.1378 -0.2788 -0.1292
20804W        W39008   1.907   3.303  12.348  0.2158 -0.2747  0.0670
20805W        W39009   6.957  15.786   3.265  0.2986 -0.3666  0.2067
20806W        W39010  17.456   2.073   3.252 -0.0051 -0.2762  0.2144
20807W        W39011  16.677  10.594   0.577 -0.1720  0.1294  0.2078
20808W        W39012   3.085   0.045  12.690 -0.0884  0.0310  0.1081
20809W        W39013  10.995  12.572  10.729  0.3478  0.0533 -0.1190
20810W        W39014  12.007   6.644  11.594  0.0303 -0.0888 -0.2645
20811W        W39015  10.094  13.588   5.400  0.0540 -0.0297  0.2051
20812W        W39016  12.040   0.774   0.908  0.2707 -0.1093  0.1181
20813W        W39017   7.707   1.395  14.640 -0.1418  0.2001  0.4307
20814W        W39018  12.021   3.828   1.670 -0.0222 -0.1303  0.2501
20815W        W39019  10.834   5.861  13.785  0.0256  0.1406  0.0262
20816W        W39020   2.497   4.923  14.219 -0.0721  0.1199  0.3633
20817W        W39021   4.532   6.471   0.708 -0.0918 -0.2677 -0.3975
20818W        W39022  12.254  14.704  12.792  0.1615 -0.2836  0.3313
20819W        W39023   0.842   9.184   2.124 -0.1238  0.0769 -0.0325
20820W        W39024   0.768   2.296   4.092 -0.0924 -0.1363  0.2828
20821W        W39025   0.284  16.069   1.741  0.1414 -0.0950 -0.1280
20822W        W39026   4.768  15.033  12.981 -0.1479 -0.0725  0.1664
20823W        W39027   2.596   2.697  14.635  0.3133  0.1789 -0.2707
20824W        W39028   8.897   0.170  11.829 -0.0151 -0.5564  0.3279
20825W        W39029  11.979  14.205   2.091 -0.0655 -0.2632  0.1479
20826W        W39030  13.928   8.505   1.765 -0.0984 -0.0289  0.1590
20827W        W39031  14.938  13.461   3.580  0.2234  0.0589  0.1329
20828W        W39032   6.163   6.860  12.913  0.1276 -0.1795 -0.2045
20829W        W39033   2.014  11.061  13.488 -0.0832 -0.4440  0.1007
20830W        W39034  17.755   8.410   4.698 -0.2262 -0.0898  0.2217
20831W        W39035  15.465   7.015   3.784  0.1373 -0.1340  0.0067
20832W        W39036  18.114   2.812  15.402  0.2069 -0.1013 -0.2024
20833W        W39037   9.878   9.314   3.436  0.1640  0.1021  0.1364
20834W        W39038  10.703   2.569   2.581 -0.0831 -0.1871 -0.3023
20835W        W39039  12.953   3.165  11.474 -0.1546 -0.0945  0.0549
20836W        W39040  15.806   7.248   1.407  0.2215 -0.0111  0.2303
20837W        W39041  14.348   8.356  10.869  0.0990  0.0803 -0.0855
20838W        W39042   2.446   8.269   3.015 -0.1583  0.0817  0.1656
20839W        W39043  13.494   8.771   4.226  0.0145 -0.2258 -0.1392
20840W        W39044  17.804   1.795   3.827  0.0651  0.0021  0.1109
20841W        W39045   8.623  18.543  13.705  0.0476  0.1769  0.2064
20842W        W39046   5.920   2.945   2.880  0.0192 -0.0005 -0.4266
20843W        W39047  14.966  16.436   3.060 -0.1277  0.1029  0.1445
20844W        W39048  15.983   7.073  14.334  0.1268  0.0053  0.2874
20845W        W39049   8.191  17.386  15.158 -0.1453 -0.0421 -0.1728
20846W        W39050  11.052   0.883   2.342 -0.1464  0.2826 -0.1511
20847W        W39051  17.850  15.436  11.158  0.0443  0.0022 -0.4304
20848W        W39052  16.345   2.024  11.628 -0.0884  0.0265 -0.3857
20849W        W39053   1.010  15.841  11.634 -0.1430 -0.2354 -0.1892
20850W        W39054   5.091   9.914  10.879  0.1194 -0.1068 -0.1051
20851W        W39055   6.409   7.503   0.688  0.0230 -0.2257  0.1257
20852W        W39056   8.030  14.647  12.665 -0.0094  0.0726  0.2508
20853W        W39057   7.071  14.349   0.317 -0.0720 -0.5835 -0.3658
20854W        W39058   6.890  17.577  13.442 -0.1350 -0.0381  0.2728
20855W        W39059  15.223  12.193   0.054  0.3798  0.0891  0.0881
20856W        W39060  17.529  13.206   2.755 -0.1930  0.2200 -0.0497
20857W        W39061   7.000   4.313  13.519  0.2264  0.1254  0.0850
20858W        W39062  17.434   3.895  12.798  0.3154  0.0733 -0.3809
20859W        W39063  14.840   3.332  11.363  0.2224  0.0175  0.1603
20860W        W39064   2.404  10.990  11.441 -0.0667  0.1906  0.1131
20861W        W39065   2.981   8.873   3.305 -0.3756 -0.0344 -0.3173
20862W        W39066  17.932  12.472   2.725  0.1329  0.0649  0.0641
20863W        W39067   1.069  10.804  10.861  0.0354 -0.3229 -0.0293
20864W        W39068   8.138   9.282  12.433  0.3164 -0.1257 -0.1163
20865W        W39069  15.670   2.797   2.691  0.1491 -0.0815  0.1497
20866W        W39070   0.548  12.996   4.939  0.0957 -0.4853 -0.0709
20867W        W39071  17.968   6.531  15.344  0.1597 -0.1329 -0.2444
20868W        W39072   8.861   9.643  12.053  0.1247 -0.2768  0.4280
20869W        W39073  12.691   5.623   0.220  0.0516  0.1970  0.3021
20870W        W39074  11.107   8.919   2.159 -0.0141  0.0192 -0.0209
20871W        W39075   9.028  12.083  11.824  0.0084 -0.2469  0.1657
20872W        W39076  10.751   5.275   4.265  0.1878  0.2168  0.0309
20873W        W39077   3.342   3.514   3.249  0.3027 -0.2933  0.0412
20874W        W39078   2.247   4.508   1.404 -0.0644 -0.2965 -0.0331
20875W        W39079   3.144   4.899   0.397  0.2063  0.0407 -0.1359
20876W        W39080   3.740   8.636  11.079 -0.0409 -0.1777 -0.1098
20877W        W39081  11.094   6.208  12.204  0.0347 -0.2275 -0.0181
20878W        W39082  16.966  11.520  11.745 -0.3428  0.2439 -0.1717
20879W        W39083   3.644   3.961  12.219  0.0191 -0.2953 -0.0726
20880W        W39084  17.488   8.788   2.152 -0.1845  0.2173  0.0896
20881W        W39085  12.529  12.064  13.808 -0.1666 -0.3286  0.0493
20882W        W39086   3.677   3.630  15.164  0.0833 -0.1049 -0.4332
20883W        W39087   2.893   2.657   3.549  0.0431 -0.2301  0.1126
20884W        W39088  17.194   3.237   2.212 -0.1583  0.1002 -0.0679
20885W        W39089   6.324  13.855  13.228  0.0472  0.0011 -0.0284
20886W        W39090   2.594  11.785  15.132  0.1898 -0.3763  0.2152
20887W        W39091   9.484   2.582  11.199  0.0545 -0.2949  0.1657
20888W        W39092   7.665   1.786  13.910  0.2918  0.1738 -0.1215
20889W        W39093  11.794  17.857  11.417  0.0062  0.3660  0.0243
20890W        W39094  13.004   0.464   0.752 -0.2372 -0.0607 -0.0496
20891W        W39095   4.172   5.474  10.812  0.0270  0.2673 -0.1795
20892W        W39096   0.511   9.336  14.633  0.0651 -0.3976  0.0678
20893W        W39097  16.931  10.163   4.070  0.1886 -0.1235 -0.1323
20894W        W39098   5.161   3.706  13.999  0.2988  0.0381 -0.1464
20895W        W39099   6.686   7.177  12.483  0.0623  0.1960  0.1572
20896W        W39100   0.539   5.899   2.895 -0.0847  0.0314 -0.0888
20897W        W39101   8.075  17.369  12.006 -0.0534  0.0649  0.1065
20898W        W39102  18.562  14.276  11.363  0.0575 -0.0159  0.3076
20899W        W39103   5.934   1.126  13.226  0.0445  0.1624  0.2706
20900W        W39104   4.967   8.811  11.557  0.2297  0.1511 -0.0541
20901W        W39105   5.228  13.400  11.146  0.0525  0.0604  0.1027
20902W        W39106   0.133  18.188  14.919 -0.1117 -0.3537 -0.3374
20903W        W39107   7.882   9.727  11.676 -0.1131 -0.0221  0.3030
20904W        W39108  18.095  10.970   2.760  0.1219  0.1095  0.1167
20905W        W39109   3.298  13.049  14.483  0.0618 -0.2080 -0.0012
20906W        W39110   3.600  17.375   4.568 -0.4993  0.1198  0.1786
20907W        W39111  17.649   1.842  13.049 -0.2080  0.1038  0.0570
20908W        W39112  13.707  13.124  11.784  0.0378  0.2528 -0.0553
20909W        W39113  18.270  18.212  13.405  0.4423 -0.0362  0.2290
20910W        W39114   4.813  18.001  13.694  0.0174  0.0059  0.0341
20911W        W39115   7.548   6.622   4.097 -0.1400  0.0800 -0.0954
20912W        W39116  18.113  16.283   4.002  0.0907 -0.0832  0.3208
20913W        W39117  17.568  18.406   4.497  0.0091 -0.1124  0.0804
20914W        W39118   6.091   4.891   4.027 -0.2684 -0.0492  0.0798
20915W        W39119   3.436   8.075  13.321  0.1870  0.0381  0.0644
20916W        W39120  15.864  16.624  13.819  0.1084 -0.2891  0.0252
20917W        W39121   8.167   8.168   2.101  0.2746 -0.0652 -0.3033
20918W        W39122   4.969   2.041  11.264  0.1384  0.0868 -0.0378
20919W        W39123   5.422  12.843  11.887 -0.1067  0.0523  0.3397
20920W        W39124  11.325   0.648   3.303  0.0571 -0.1617 -0.1217
20921W        W39125   1.095   0.718  11.797 -0.1303  0.3814 -0.1935
20922W        W39126   9.672   4.563   3.177  0.1249  0.2955 -0.1475
20923W        W39127  11.564  15.557   4.149  0.0870 -0.3942 -0.0159
20924W        W39128  12.701  11.000  14.781 -0.0285 -0.1138 -0.1671
20925W        W39129   4.197   4.184   3.402  0.0080  0.3668 -0.0310
20926W        W39130   6.406  12.734  13.370 -0.2487 -0.2517 -0.1703
20927W        W39131   7.272  13.700   1.439 -0.1955 -0.0356  0.2287
20928W        W39132  14.646  16.111  11.892  0.2308  0.1963  0.3465
20929W        W39133  17.526   3.628   2.107 -0.1473 -0.3143  0.1353
20930W        W39134   1.169  18.581   3.039  0.2016 -0.4767  0.1022
20931W        W39135   4.589   4.031  15.209  0.0848  0.0999 -0.0262
20932W        W39136  18.175  12.277   1.043 -0.1242 -0.1598 -0.0237
20933W        W39137  13.751   6.828  12.089  0.1730  0.1261 -0.2078
20934W        W39138  17.384   0.949  13.794  0.0391  0.1817 -0.2233
20935W        W39139  13.605   7.122  12.878 -0.2677 -0.0480  0.4763
20936W        W39140   9.734   1.367   1.133 -0.0279 -0.1166 -0.1552
20937W        W39141  12.646   9.950   2.609  0.0405 -0.1411 -0.0120
20938W        W39142   2.353   7.579  12.850  0.2174  0.2848 -0.0220
20939W        W39143  11.344  18.469  14.018  0.2456  0.1397  0.1734
20940W        W39144   9.687   2.223   3.012 -0.0693 -0.3613 -0.0895
20941W        W39145  10.319  12.012   0.971 -0.0468 -0.0082 -0.0165
20942W        W39146  13.218  12.738   2.009  0.1728  0.3031  0.0169
20943W        W39147   1.056  10.292   3.486 -0.1339 -0.1762 -0.2592
20944W        W39148   8.546   1.771   1.482  0.1200 -0.3042 -0.0006
20945W        W39149   5.085   8.885   0.365  0.1000 -0.0033  0.0575
20946W        W39150  10.025  11.251   1.253 -0.3062 -0.2361 -0.2076
20947W        W39151   4.380   4.532  11.995 -0.0760  0.1155  0.0470
20948W        W39152   7.021  11.994  11.019  0.0137  0.1580 -0.1310
20949W        W39153   5.493   7.360   2.536 -0.4847  0.0483  0.1281
20950W        W39154   5.336  15.503  12.449  0.2271  0.3574  0.2962
20951W        W39155  10.945  18.024  13.673 -0.1875 -0.3125  0.0776
20952W        W39156  15.630   6.026  15.267  0.1072  0.1371  0.5109
20953W        W39157  15.220  17.525   1.139 -0.2016 -0.1701 -0.0751
20954W        W39158   1.040  17.808  10.913  0.2015 -0.0530 -0.1275
20955W        W39159   6.475   1.669   0.438  0.0475 -0.2593 -0.2919
20956W        W39160   8.369  14.657   1.103 -0.0116  0.1855 -0.3045
20957W        W39161   7.931  16.751   3.189  0.2813  0.2999  0.2111
20958W        W39162  15.274  13.139   3.367 -0.1161  0.3023 -0.2272
20959W        W39163  11.196   4.654  14.744  0.0519 -0.1171  0.2807
20960W        W39164   8.611  16.140  14.076 -0.2188 -0.2350  0.0781
20961W        W39165  10.979  10.556  14.973 -0.0156 -0.0400  0.1739
20962W        W39166  10.209  10.537   4.086 -0.0609  0.0843 -0.0146
20963W        W39167   1.500   2.087  12.190 -0.1678 -0.0230  0.1247
20964W        W39168   4.247  13.272  15.034 -0.0955 -0.2740 -0.0665
20965W        W39169   3.871  13.935  11.333  0.0443  0.0719 -0.2506
20966W        W39170   8.342  15.910  11.948 -0.0483  0.5686 -0.3053
20967W        W39171   8.165   4.508  11.709 -0.3318 -0.1348 -0.1276
20968W        W39172   9.766   0.246   2.837 -0.2181 -0.2968 -0.1722
20969W        W39173   4.212   0.116  13.164 -0.0962 -0.0440 -0.2189
20970W        W39174  16.318   1.163  13.780  0.2483  0.1642 -0.1199
20971W        W39175   5.448   1.974  12.156 -0.0554  0.2723 -0.0773
20972W        W39176  10.908   7.886   5.893  0.0380  0.0569  0.1195
20973W        W39177  16.796  12.108   1.254  0.1720  0.1435  0.0226
20974W        W39178  17.919   0.872   3.034 -0.0170  0.0095 -0.5503
20975W        W39179   2.937   1.941  14.829 -0.3131 -0.1376  0.2299
20976W        W39180  14.398  18.507   1.233  0.1556  0.2411  0.0684
20977W        W39181   6.503   9.559   3.640  0.1316 -0.0511  0.0570
20978W        W39182  15.821   2.298   3.089  0.3972 -0.0766 -0.1368
20979W        W39183  16.275   2.463   3.322 -0.0858 -0.0097 -0.0486
20980W        W39184   1.914  16.273   3.526 -0.2309  0.1445  0.0773
20981W        W39185  18.147   8.274   0.733  0.1519  0.2413 -0.1293
20982W        W39186  18.623   3.951   2.089  0.2151 -0.0269 -0.0494
20983W        W39187  16.134  14.065  13.516  0.0812 -0.0649  0.0174
20984W        W39188  12.373   6.790  15.441 -0.4959 -0.5783 -0.3020
20985W        W39189  16.090   0.104  12.085 -0.1993 -0.0981 -0.0602
20986W        W39190  17.724   2.808  14.103 -0.0298 -0.2207  0.2023
20987W        W39191   1.214   3.520  13.176  0.0370 -0.0403 -0.0315
20988W        W39192   9.199   6.626  12.821  0.1280  0.1179 -0.2192
20989W        W39193   4.869   2.520   2.346 -0.1473  0.1594 -0.2097
20990W        W39194  11.293   2.134   2.895  0.1945  0.1924  0.1482
20991W        W39195  15.977  13.926   4.520  0.1619 -0.0680 -0.1445
20992W        W39196   0.007  11.285   3.825  0.3988  0.1663 -0.3843
20993W        W39197   9.653   5.593   4.220  0.0113  0.0485 -0.1767
20994W        W39198  13.215  13.295  13.423  0.3776 -0.1301 -0.1359
20995W        W39199  11.078   9.793   5.858 -0.3607 -0.0326 -0.0151
20996W        W39200   4.430  17.828   3.489 -0.0197  0.2498 -0.1595
20997W        W39201   1.286  11.018   4.083  0.5184  0.0752 -0.1444
20998W        W39202   4.759   3.018  13.202  0.0494  0.0614  0.1600
20999W        W39203   4.566   6.064  14.820 -0.4531  0.0331 -0.2014
21000W        W39204   8.795  12.563  13.601 -0.1199 -0.2883  0.2720
21001W        W39205  10.885   1.814   0.458 -0.2077 -0.2013  0.0915
21002W        W39206  18.442  10.802   2.371 -0.1039 -0.2504 -0.0984
21003W        W39207   8.663   0.115   3.164  0.0036 -0.0024  0.0615
21004W        W39208  10.710  13.118   3.625 -0.0772  0.4253  0.1362
21005W        W39209  12.710   7.805  12.859  0.3656  0.2750  0.0300
21006W        W39210   0.694   1.422  15.293  0.1086 -0.0336 -0.2131
21007W        W39211   1.590  18.456   2.133 -0.3616 -0.0475  0.3110
21008W        W39212   8.481   6.604  14.156  0.2240  0.0784  0.2587
21009W        W39213   3.265   6.886   2.504 -0.2158 -0.2435  0.3134
21010W        W39214   3.866   5.958  12.326  0.2340  0.3018  0.3319
21011W        W39215  10.064   3.955  12.782  0.0627  0.0129  0.0195
21012W        W39216   6.621  13.604   2.966  0.0877 -0.1157 -0.1375
21013W        W39217  17.358  14.550  15.320 -0.1956 -0.1042  0.2099
21014W        W39218  11.796  11.425  10.884  0.0851 -0.2874  0.1923
21015W        W39219  11.008  12.428   2.613  0.1035 -0.4471  0.5341
21016W        W39220   7.019  14.268   2.334  0.0325 -0.0753 -0.1713
21017W        W39221   9.255  10.527   0.214 -0.0423  0.0673  0.1647
21018W        W39222   3.796   3.021   1.426  0.0965  0.1948 -0.1392
21019W        W39223  16.709   6.573   4.005  0.1130 -0.0867  0.1485
21020W        W39224   1.243  17.488  12.946 -0.1159 -0.1975  0.2611
21021W        W39225  10.500   2.969  12.687  0.1563 -0.2629  0.2481
21022W        W39226   3.099  10.527  12.751  0.0841 -0.3980  0.0574
21023W        W39227   6.664   2.858  12.718 -0.1780 -0.0441 -0.0279
21024W        W39228   8.654  10.150  10.932  0.0974  0.2082 -0.0896
21025W        W39229   9.989   8.027  14.623 -0.0723  0.2476 -0.0590
21026W        W39230   4.643   2.617  13.580  0.0944 -0.1729  0.0896
21027W        W39231  16.813   7.328  14.587 -0.0542 -0.1925  0.2977
21028W        W39232  17.288   4.651   0.749  0.0503  0.1642  0.0161
21029W        W39233   7.584   7.314   0.418 -0.2047 -0.0229  0.0500
21030W        W39234  12.864  15.120  12.690  0.1045 -0.3217 -0.0378
21031W        W39235  14.498   1.877  12.955 -0.0104  0.0050  0.0239
21032W        W39236   1.114   0.416  14.418 -0.0710  0.2091  0.1129
21033W        W39237  13.896  17.123   1.450 -0.0742  0.0357 -0.1348
21034W        W39238  14.761   1.842   2.314  0.1098  0.1069  0.0123
21035W        W39239   9.044   4.121  12.579  0.1967 -0.3219  0.0680
21036W        W39240  15.262  15.332   2.866  0.0076 -0.1563  0.0613
21037W        W39241   4.185  13.649  12.101 -0.0224 -0.0373  0.4096
21038W        W39242  13.381   2.897   5.366 -0.2221 -0.1832 -0.2088
21039W        W39243   3.355   1.444   0.638 -0.2442  0.4239  0.2881
21040W        W39244  10.455   7.254   0.904  0.0229  0.0388 -0.0694
21041W        W39245   2.837   1.645   1.714 -0.5017  0.0720  0.2502
21042W        W39246  17.482  10.840  10.265  0.0657 -0.0604  0.3651
21043W        W39247   2.178   5.963  11.508  0.0564 -0.2079  0.0296
21044W        W39248  17.055   5.314  13.858 -0.0411 -0.1043 -0.0259
21045W        W39249  17.918  18.197   4.869  0.0537  0.0009 -0.0031
21046W        W39250   8.603  15.604   3.281  0.4433  0.1802  0.2147
21047W        W39251   1.428  12.049  12.163 -0.1332  0.2103  0.1650
21048W        W39252   6.026   6.553   1.972 -0.3115 -0.0760 -0.3730
21049W        W39253  12.244  10.024   4.214  0.1122  0.0697  0.0384
21050W        W39254   2.486   5.581  13.885 -0.0533  0.3340 -0.1275
21051W        W39255   5.164  15.120  10.314 -0.0823 -0.0434 -0.1443
21052W        W39256  10.646  11.541  12.876  0.1315  0.2095  0.0542
21053W        W39257   4.909   9.069   3.627  0.3250  0.0908 -0.1827
21054W        W39258   9.344   4.873  15.024 -0.1202 -0.3150 -0.0984
21055W        W39259   3.195  12.254  11.379  0.0667  0.1110 -0.0032
21056W        W39260   0.050   7.925   2.687 -0.0503 -0.3145 -0.0427
21057W        W39261   4.034  15.395   1.558  0.1291 -0.0427  0.1463
21058W        W39262  15.642   7.838   4.060 -0.1086  0.1641 -0.1613
21059W        W39263  16.670  15.425   3.129 -0.3371 -0.0676 -0.1121
21060W        W39264   3.344   7.147  14.732  0.0759 -0.1771 -0.0279
21061W        W39265   2.749   5.281  11.619  0.1627 -0.1929  0.2401
21062W        W39266  16.950   0.453  11.925  0.0826  0.0785 -0.1477
21063W        W39267   5.864   6.489   2.520  0.0601  0.0454 -0.2473
21064W        W39268  13.398  15.986  14.640 -0.0619  0.1889  0.1084
21065W        W39269  13.591  15.651  12.145 -0.1279  0.0020 -0.1642
21066W        W39270  16.672  12.752  13.074  0.1017  0.2462  0.1098
21067W        W39271  13.700  10.691   3.039  0.2072 -0.0053 -0.1616
21068W        W39272   2.293   5.928   4.643 -0.1297  0.1978  0.1093
21069W        W39273  10.810   0.167  13.321 -0.1235 -0.1698  0.1410
21070W        W39274   9.864   1.806   2.783  0.0857  0.0276  0.0999
21071W        W39275  11.167  16.393  14.963  0.1642  0.0530 -0.1866
21072W        W39276  12.359   9.503  13.898 -0.1036  0.0308 -0.2105
21073W        W39277   6.312  18.025  10.896 -0.1148  0.1245 -0.0374
21074W        W39278  10.071   3.094   0.426  0.1011  0.1876 -0.0931
21075W        W39279   2.574   8.229   0.472 -0.0399 -0.1291 -0.0917
21076W        W39280   2.331  13.209  12.252 -0.1497  0.3329 -0.0824
21077W        W39281  10.579  13.482  14.957  0.0807  0.2127  0.0134
21078W        W39282   2.942  12.613  15.365  0.0058 -0.1450  0.1236
21079W        W39283   3.856   4.483   3.808 -0.2295 -0.2609  0.0743
21080W        W39284  14.568  15.246   0.260  0.0044 -0.0269  0.1137
21081W        W39285   4.096   3.310   9.642 -0.2753 -0.2171 -0.0849
21082W        W39286   6.990  11.335  11.134 -0.2091 -0.1856 -0.0474
21083W        W39287   9.971   8.723   4.164  0.2139  0.2341  0.4403
21084W        W39288   3.819  12.010  12.658 -0.0564 -0.1165  0.0083
21085W        W39289   2.357   0.452   2.971 -0.4139 -0.1582  0.2339
21086W        W39290   8.092   3.148  12.108  0.0990 -0.1298 -0.1832
21087W        W39291  13.756   3.451  11.095  0.1188 -0.1232  0.1838
21088W        W39292  14.290   7.903   4.591 -0.0515 -0.0877  0.1963
21089W        W39293   2.487   3.219   2.296 -0.1660  0.2844  0.0136
21090W        W39294  11.985  13.253   0.321  0.2744  0.1826  0.0011
21091W        W39295  13.183   4.223   1.151  0.0691 -0.0518  0.0768
21092W        W39296  10.935   8.779   4.095  0.1771  0.0442  0.0005
21093W        W39297   0.940  13.269   3.759  0.0901  0.0065  0.0685
21094W        W39298  15.850   9.213  14.880 -0.2331 -0.0632 -0.0682
21095W        W39299   7.200   9.451   1.270 -0.1273  0.0972  0.0400
21096W        W39300   1.300   1.065   5.768 -0.1154  0.2245 -0.0521
21097W        W39301  16.272  13.981   2.306 -0.1095 -0.0927  0.0929
21098W        W39302  10.320   6.171   3.130 -0.0368  0.1564  0.3617
21099W        W39303   4.645  16.516  10.570 -0.0901 -0.0345  0.0496
21100W        W39304   0.276   7.609  12.697  0.0980  0.0859  0.1815
21101W        W39305  15.325  13.966  11.894 -0.4112  0.0068  0.4052
21102W        W39306   5.757  11.462  11.973 -0.1806  0.4043 -0.1296
21103W        W39307   9.864   8.098   0.763 -0.0036 -0.1150 -0.0893
21104W        W39308   6.735   8.105   2.588 -0.1102  0.0917  0.0397
21105W        W39309  10.810  16.748   2.607  0.1009 -0.0290 -0.0584
21106W        W39310  14.551   3.426   0.471 -0.2267 -0.4453 -0.2565
21107W        W39311  15.206  14.498   1.767 -0.1981  0.0094  0.0531
21108W        W39312   4.231  16.522   0.963 -0.0856  0.0779 -0.4826
21109W        W39313   1.648  18.169  12.296 -0.0375  0.1167  0.1156
21110W        W39314  10.468  11.416   0.386  0.4012  0.0041 -0.2728
21111W        W39315   1.546  16.324  12.223  0.1276 -0.1914  0.2504
21112W        W39316  18.220  10.955  14.503  0.2460 -0.0266 -0.0464
21113W        W39317   2.089  18.453  13.919 -0.0044  0.0074  0.0355
21114W        W39318  11.253   1.409   4.843 -0.0986  0.1255 -0.1558
21115W        W39319   1.447  15.407   2.154  0.3200 -0.3567  0.2265
21116W        W39320   7.593   0.919  14.463 -0.0279  0.1073  0.1493
21117W        W39321   9.481   2.736   1.212 -0.4084  0.3080 -0.1473
21118W        W39322  14.744   4.732   3.216 -0.1015  0.0996  0.1081
21119W        W39323  11.219  13.061  13.883 -0.0409  0.0947  0.4251
21120W        W39324   3.754   2.085  13.255 -0.3837  0.0672  0.2575
21121W        W39325   8.960   6.087   0.331  0.0858  0.0586  0.3860
21122W        W39326  10.369   8.387  15.396  0.1241  0.0834 -0.2521
21123W        W39327  10.164  14.204  13.158  0.2983  0.1840  0.2651
21124W        W39328  12.583   2.919   1.476 -0.0040 -0.3987  0.1215
21125W        W39329  14.037  10.631  13.851  0.1457 -0.4883  0.1177
21126W        W39330   9.086   8.868  13.334 -0.0525  0.2723  0.2030
21127W        W39331  11.162   1.455   0.923  0.2673  0.1003  0.2923
21128W        W39332   7.749   3.124   1.182  0.1568  0.2865 -0.0012
21129W        W39333   0.589   7.863   2.274 -0.2466  0.0771  0.3406
21130W        W39334  13.174  15.823   0.711 -0.0819 -0.1089  0.1738
21131W        W39335  11.973   1.772  12.271 -0.0867  0.2147 -0.0529
21132W        W39336  15.608   9.848   0.548  0.2398 -0.2009 -0.2222
21133W        W39337   1.382  11.471   4.286 -0.1662 -0.0859 -0.2251
21134W        W39338   7.951   3.419   2.561 -0.1750  0.1867 -0.0271
21135W        W39339  15.031   7.507  11.742  0.2849 -0.0202 -0.0645
21136W        W39340  17.529   9.752   2.145  0.0008  0.1289 -0.0372
21137W        W39341  10.515  12.005  13.126  0.0269  0.1009 -0.0410
21138W        W39342   6.658  13.628   3.957  0.0100  0.0395  0.1955
21139W        W39343  18.596   8.220   0.990 -0.0425 -0.2126  0.1117
21140W        W39344   8.452   4.621   4.042  0.1660 -0.1000  0.1125
21141W        W39345   2.967  14.584   0.061  0.0880 -0.0213  0.0389
21142W        W39346  16.402  17.576   1.583  0.2505 -0.2741 -0.3083
21143W        W39347   7.028  15.209  11.488 -0.0832 -0.0484 -0.0557
21144W        W39348   6.156  17.215  14.635 -0.0324 -0.2456  0.0623
21145W        W39349   4.037  17.318  10.973 -0.0354  0.3463 -0.1537
21146W        W39350   2.449   1.223  14.742 -0.3931 -0.1273  0.2214
21147W        W39351  10.203   4.189  14.101 -0.2620 -0.0789 -0.0223
21148W        W39352   2.229  12.039  12.643 -0.0252 -0.0116  0.0709
21149W        W39353   0.716  16.007  11.173  0.0884  0.0659  0.2947
21150W        W39354   5.656   5.451   2.991 -0.0920 -0.1145 -0.0611
21151W        W39355   5.396  13.363  12.002 -0.2569  0.0914  0.0636
21152W        W39356  10.800  13.747  12.314 -0.3269  0.2247  0.0722
21153W        W39357   7.936   2.564  12.141 -0.0585  0.3493  0.1638
21154W        W39358   7.110  11.813  13.224 -0.0135  0.1097 -0.1585
21155W        W39359  16.096   6.014  15.042  0.1499  0.0700  0.3977
21156W        W39360   7.292   6.718   4.493 -0.0282  0.1529  0.0229
21157W        W39361   0.879  15.341   2.412 -0.0584 -0.2588  0.1451
21158W        W39362   7.603  11.263  15.176 -0.0285 -0.0998  0.3674
21159W        W39363   3.544   8.022  11.157  0.1413 -0.1097 -0.3226
21160W        W39364  11.082  13.967  13.687 -0.0183 -0.0722 -0.1689
21161W        W39365  16.856   9.588  13.377 -0.0865 -0.1389 -0.2243
21162W        W39366  13.891  14.849   1.018  0.0126  0.2574 -0.1216
21163W        W39367  14.190  11.247  15.411 -0.1879 -0.3238  0.1347
21164W        W39368  16.708  12.530   3.307 -0.0882 -0.2066  0.1055
21165W        W39369  18.225   9.392  11.448 -0.2877  0.1712 -0.0079
21166W        W39370   8.613  10.840  13.066 -0.1709 -0.2107 -0.1698
21167W        W39371  15.703  10.115   3.510  0.1788 -0.0389 -0.1633
21168W        W39372   9.558  12.862   0.097 -0.0735 -0.0783  0.0227
21169W        W39373   1.309   7.222   3.255 -0.1835 -0.3709  0.0060
21170W        W39374   6.316   4.027  11.933 -0.1863 -0.2823 -0.2705
21171W        W39375  16.218   0.873   0.184  0.1982  0.0515  0.1967
21172W        W39376   6.473   4.970   4.327 -0.2250 -0.0057 -0.0869
21173W        W39377  15.912   1.206   1.845  0.2961 -0.3695 -0.0625
21174W        W39378  13.281  12.246   1.049 -0.2587 -0.3012 -0.1511
21175W        W39379  14.255  13.827  13.825 -0.4404  0.0787 -0.2194
21176W        W39380  16.650  14.447   0.934  0.1382 -0.4270  0.0671
21177W        W39381  10.046  16.417  14.728 -0.3792  0.0820 -0.2914
21178W        W39382   9.890  12.096  11.267 -0.0528 -0.0060  0.2069
21179W        W39383   6.025  14.907   0.590  0.2179 -0.1102 -0.0652
21180W        W39384  11.884   9.351  13.792 -0.2380  0.3405 -0.1635
21181W        W39385   9.403   6.466   2.651  0.1800 -0.1288 -0.0695
21182W        W39386   8.441  16.820   2.797  0.0849 -0.1893 -0.0796
21183W        W39387  13.522   4.397   4.830  0.0610 -0.1227 -0.0056
21184W        W39388  17.663  14.746   4.642  0.1097 -0.0542  0.2428
21185W        W39389  13.006  16.027  15.005 -0.0099  0.3002 -0.0573
21186W        W39390  12.088   0.436  14.062  0.0663 -0.1049 -0.0733
21187W        W39391  10.686   8.962  13.049  0.0368  0.0806  0.0941
21188W        W39392  13.117   5.575  15.429  0.0929 -0.4131  0.2368
21189W        W39393  13.208  16.507   1.560 -0.2406  0.1938 -0.1538
21190W        W39394   4.637  12.276  13.033 -0.0351 -0.0150 -0.0545
21191W        W39395  12.834  15.416  13.126 -0.1295 -0.1072 -0.0929
21192W        W39396  14.334  17.986   4.285  0.3319  0.2477 -0.1235
21193W        W39397   9.003  14.275  12.229  0.0822 -0.1692 -0.2161
21194W        W39398   4.388   0.005  12.493 -0.0405  0.0597  0.2441
21195W        W39399   0.074   6.678  14.481 -0.0330  0.1379  0.2090
21196W        W39400   2.292  10.791  12.109 -0.0866 -0.2366  0.2204
21197W        W39401   3.982  11.442  14.444 -0.2051  0.4718  0.0856
21198W        W39402  16.141   4.919   2.879  0.1387  0.0730  0.0331
21199W        W39403  10.113   0.206   5.898  0.3702 -0.0151  0.5053
21200W        W39404   4.510  18.319   1.579 -0.0600 -0.2591 -0.1890
21201W        W39405   8.759   6.413  11.951 -0.1762 -0.0231 -0.2612
21202W        W39406   4.648  17.808   0.693 -0.0897 -0.0698  0.2155
21203W        W39407   0.296   8.650  12.753  0.0866  0.0518  0.0751
21204W        W39408   2.095   5.495   2.518 -0.0380  0.0893 -0.0934
21205W        W39409   7.195   1.413  14.547  0.0582 -0.0074 -0.2381
21206W        W39410  15.182   9.076   3.128  0.2612 -0.0519 -0.2939
21207W        W39411  12.802   2.627  15.176  0.1918 -0.0072 -0.2079
21208W        W39412   6.242  15.782   3.944 -0.0872  0.0008  0.0401
21209W        W39413   3.550   9.122  14.800 -0.4277 -0.1531  0.1942
21210W        W39414   3.786  16.258   4.750 -0.2158  0.0449  0.1148
21211W        W39415   2.790  15.173   2.731  0.1434 -0.1272  0.1238
21212W        W39416   8.626  13.299   2.055 -0.1853  0.1211 -0.1818
21213W        W39417  14.670   9.433  13.546  0.1812 -0.0660 -0.1036
21214W        W39418  11.599  10.789  10.940 -0.0881 -0.2068  0.3083
21215W        W39419   9.221   0.755  14.005  0.1283  0.0195  0.2890
21216W        W39420   1.327   0.111   1.941 -0.1482  0.1729 -0.0232
21217W        W39421  15.835  11.953   6.103  0.0157  0.1290  0.0209
21218W        W39422  12.671   5.195  14.729 -0.2549  0.0340  0.2549
21219W        W39423  11.838   7.816   0.777  0.2911 -0.1715  0.3406
21220W        W39424  12.543   6.094  14.975 -0.1042  0.2602  0.1520
21221W        W39425   6.577   4.225   3.571 -0.0629 -0.2884 -0.0081
21222W        W39426   9.146   0.751  15.458  0.0028 -0.0423  0.2958
21223W        W39427  16.799  16.866  15.083  0.1767  0.1945 -0.0290
21224W        W39428   1.221  11.642  12.987  0.0952  0.2015 -0.1577
21225W        W39429   6.987   6.407   4.812 -0.0568  0.0906  0.1793
21226W        W39430  10.122  17.757   1.035 -0.4761  0.2134  0.0786
21227W        W39431  13.575   1.970  11.160  0.2172  0.1154 -0.3316
21228W        W39432  15.196  11.063   1.404 -0.0856 -0.0592 -0.0658
21229W        W39433   8.452   1.237  12.992  0.2015  0.0223  0.2278
21230W        W39434   8.188   1.320   0.025 -0.2289  0.0645 -0.1207
21231W        W39435  14.191   6.972   0.853 -0.3354 -0.1754 -0.0470
21232W        W39436   6.593  17.371   0.432 -0.4556  0.0477  0.2688
21233W        W39437   7.576   7.944   1.426  0.0620 -0.1293 -0.2570
21234W        W39438  14.821   0.071   2.451 -0.2004  0.0795  0.1431
21235W        W39439   3.383  18.193   1.376 -0.0547 -0.1397  0.1726
21236W        W39440  16.787   7.519   3.503 -0.2969 -0.1305 -0.0263
21237W        W39441  12.351  13.634  15.214 -0.1051  0.2967 -0.0674
21238W        W39442  16.631   4.012   2.201  0.0713 -0.1097  0.0835
21239W        W39443   5.730  12.183   4.754  0.2942  0.2451 -0.0088
21240W        W39444   2.314   4.927   0.943  0.1430  0.2734  0.0526
21241W        W39445   6.692  16.308  14.438 -0.0129  0.2246 -0.1549
21242W        W39446  17.680  10.188   2.503 -0.2068 -0.5583  0.0436
21243W        W39447  16.208  16.147   3.067 -0.0977 -0.0370 -0.0876
21244W        W39448   2.884  16.366  13.565  0.1542  0.4184  0.0803
21245W        W39449   6.314   2.509   2.363 -0.1210  0.0615 -0.1265
21246W        W39450   9.617  11.536  13.023  0.0897  0.1300  0.2573
21247W        W39451   5.239   6.883  12.774  0.1580 -0.2962 -0.1669
21248W        W39452   4.019  18.644  12.191 -0.0223  0.2511 -0.1438
21249W        W39453  10.993   8.473   4.636  0.3187 -0.0905  0.1425
21250W        W39454  10.811   1.477  13.644  0.0813  0.0142  0.2686
21251W        W39455   5.307   9.326  14.568  0.0074  0.1539 -0.0715
21252W        W39456  18.423   0.399  12.930 -0.0642  0.2244  0.3687
21253W        W39457  11.017   5.472   2.833 -0.4666 -0.0349  0.0895
21254W        W39458   8.446   8.866  14.502  0.0817 -0.2817 -0.1603
21255W        W39459   6.429   9.505   0.657  0.0222  0.0367  0.0646
21256W        W39460   3.328   0.209   2.766 -0.4317  0.1424  0.2054
21257W        W39461   6.300  16.509  11.230 -0.0764  0.4316 -0.2049
21258W        W39462   7.745  10.295   4.271  0.3222  0.3361  0.1822
21259W        W39463  16.281  10.132  13.048  0.0221 -0.2462 -0.1048
21260W        W39464   9.235  17.138   0.241 -0.1845  0.0375  0.2568
21261W        W39465  12.850   8.370   4.462 -0.2382 -0.0852 -0.2205
21262W        W39466  13.265   1.504  12.450  0.1297  0.1867  0.0893
21263W        W39467   0.333   2.623   4.215 -0.1864  0.2386  0.0862
21264W        W39468   1.698  16.598  11.653  0.1969 -0.1317  0.0612
21265W        W39469  18.674  13.039  12.913 -0.3269 -0.3384 -0.5541
21266W        W39470   5.896  15.142  14.594 -0.0832 -0.1746 -0.1713
21267W        W39471  10.689   9.962   4.650  0.0653  0.2423  0.0498
21268W        W39472   5.074  12.750   3.743  0.1254 -0.0477  0.2914
21269W        W39473  14.419   2.513   4.579 -0.3877  0.2362 -0.0092
21270W        W39474   4.689  16.540  13.936  0.1565 -0.0208 -0.0594
21271W        W39475  11.646  15.032   4.562  0.0841  0.0662 -0.0102
21272W        W39476  14.621  13.053  11.162 -0.1166  0.0657  0.2910
21273W        W39477   6.406  11.154  14.710 -0.0565  0.0200  0.2108
21274W        W39478   4.353   5.226  11.215  0.0308  0.0560  0.0756
21275W        W39479   2.614  11.567   4.406  0.2507  0.0756  0.0938
21276W        W39480   3.868   1.688   3.989  0.1372 -0.0649 -0.1460
21277W        W39481  11.764   3.457   3.204  0.2532 -0.0246  0.0260
21278W        W39482  11.092  17.429  12.980 -0.0667  0.1987  0.0747
21279W        W39483   0.845   1.238   0.730 -0.2467  0.1009  0.0983
21280W        W39484  16.967   6.389   1.447  0.2863  0.1343  0.1771
21281W        W39485   2.323   1.449   2.426  0.0637  0.2039 -0.0503
21282W        W39486  16.115   7.895  11.849  0.3399  0.1912 -0.1928
21283W        W39487  17.658   4.220  13.304 -0.1272 -0.2793 -0.0216
21284W        W39488   4.393   7.593   3.342  0.1182 -0.1176 -0.1778
21285W        W39489   9.825   8.880   2.573  0.2004 -0.2450 -0.1979
21286W        W39490   1.048   1.341   5.346 -0.0436  0.3262  0.2973
21287W        W39491   9.272  13.701  15.181 -0.0956  0.3049  0.2360
21288W        W39492  10.878  14.303   2.323 -0.1680 -0.1722  0.3716
21289W        W39493   9.543  16.351   1.346  0.1278 -0.0268  0.1061
21290W        W39494   7.607  16.544  14.080  0.1224  0.3375  0.2545
21291W        W39495   7.887  13.156  14.850 -0.0150  0.1804 -0.0758
21292W        W39496   3.963  15.873   2.963 -0.1878 -0.0523 -0.0878
21293W        W39497   4.379   0.082   2.023 -0.3356  0.4469 -0.0977
21294W        W39498  15.084  12.680   3.022  0.0677  0.1680 -0.0890
21295W        W39499   0.507   9.871   1.932  0.1909 -0.0878  0.1430
21296W        W39500   7.796   9.238  13.804 -0.1950 -0.1258  0.2662
21297W        W39501   6.700   6.409   3.066  0.2642 -0.1285  0.2809
21298W        W39502   6.532   6.683  12.613 -0.1023  0.0168 -0.2976
21299W        W39503  15.722  14.829   4.077 -0.2336  0.2332 -0.2277
21300W        W39504  18.340  12.409   4.756 -0.0865  0.2016  0.1824
21301W        W39505  10.628   1.314   4.127  0.0358 -0.2070  0.0595
21302W        W39506   5.319   7.764  12.794 -0.0086 -0.1535  0.1125
21303W        W39507  12.168  14.316   4.173 -0.2659 -0.2375 -0.0125
21304W        W39508  18.496   3.611   1.735 -0.0612 -0.2324  0.2363
21305W        W39509   1.286  17.355   1.710  0.0378 -0.0317  0.0800
21306W        W39510  14.333   1.032   0.056 -0.0865 -0.2167  0.2681
21307W        W39511   7.815   4.841  11.482  0.0898 -0.1365  0.1401
21308W        W39512   0.098   2.211   0.222  0.0651 -0.1740 -0.1414
21309W        W39513  17.505  12.652  13.819  0.0472  0.1771  0.0277
21310W        W39514  11.470   7.086   0.169  0.0806 -0.0896 -0.0337
21311W        W39515   7.686   6.521   1.674  0.0222 -0.1430 -0.3664
21312W        W39516  12.270   4.949  11.553 -0.2898  0.0050  0.3642
21313W        W39517   2.978   9.923   1.583  0.0155  0.1851  0.2131
21314W        W39518   2.993  14.501  13.603 -0.0802 -0.2714 -0.1741
21315W        W39519  15.759  14.684  14.834 -0.0368 -0.1137 -0.2722
21316W        W39520  10.998  17.313   1.560  0.1141 -0.1773  0.0071
21317W        W39521   9.019   2.575  13.017  0.3653  0.0768  0.1118
21318W        W39522   3.863  16.973   5.558  0.3130 -0.0891 -0.2634
21319W        W39523   0.067  17.874  13.749 -0.0675 -0.0063  0.0555
21320W        W39524   7.712  11.787   2.873  0.4379 -0.1099  0.0670
21321W        W39525  11.279   0.122   2.500 -0.3079 -0.1327  0.2863
21322W        W39526  10.867  13.140   0.566 -0.0554 -0.1816 -0.0287
21323W        W39527  13.439  16.889   0.662  0.0917 -0.2634  0.0803
21324W        W39528  14.634  11.517   2.571  0.1337  0.0185  0.3625
21325W        W39529  11.898  13.409   5.296 -0.2558  0.3985 -0.0427
21326W        W39530   3.992   9.296   0.530 -0.0141  0.3254  0.3546
21327W        W39531  15.123   0.058  12.572 -0.0165  0.1428 -0.1913
21328W        W39532  15.564  18.562  12.962 -0.0104 -0.0404 -0.2362
21329W        W39533   6.851  11.254  11.642 -0.2002  0.1483  0.0262
21330W        W39534  16.041   0.002  12.951 -0.1476  0.0059 -0.1103
21331W        W39535  11.352   1.188   1.912  0.0768 -0.0302 -0.3266
21332W        W39536   3.485  10.887   4.118  0.1790  0.1626 -0.1150
21333W        W39537  18.339  10.369   0.892 -0.2261  0.1892 -0.1137
21334W        W39538  16.078  11.588  11.853 -0.3450 -0.1230 -0.0959
21335W        W39539   5.471   8.658  12.058  0.0858 -0.1344 -0.3966
21336W        W39540   4.137   5.654  14.068 -0.1643 -0.0268 -0.3228
21337W        W39541   4.554  16.538   2.689 -0.0190  0.1024  0.0630
21338W        W39542  16.003   8.133  14.438  0.0960 -0.1885 -0.1301
21339W        W39543   2.129   2.743   2.143 -0.0104 -0.0729 -0.1317
21340W        W39544   9.168   1.574   0.356  0.3299 -0.1005 -0.0604
21341W        W39545  15.329  15.080  14.139  0.0589 -0.0517 -0.2227
21342W        W39546   5.334  12.645  15.153  0.3745 -0.0083 -0.0028
21343W        W39547   8.538   7.033   2.647 -0.0892 -0.2695  0.0096
21344W        W39548   3.320   9.718   1.251  0.0051  0.0149 -0.3833
21345W        W39549  16.419   2.072   2.981  0.1294  0.0309  0.1133
21346W        W39550  10.660   7.422  13.754 -0.1354  0.1522 -0.1285
21347W        W39551  13.035  14.010  15.067  0.1867  0.0064 -0.3487
21348W        W39552   1.901  12.452   3.010  0.0831  0.0148 -0.0297
21349W        W39553   7.938  15.495   3.733 -0.1134  0.2963 -0.0584
21350W        W39554  11.197   3.080  12.942  0.2035  0.1756 -0.0975
21351W        W39555   5.849   7.807  12.971  0.1045  0.0703 -0.0289
21352W        W39556   8.892   0.818   2.530  0.1881 -0.0976  0.2942
21353W        W39557  13.984  14.053  15.246  0.0268 -0.2537  0.1912
21354W        W39558  13.431  17.853   3.784 -0.0512 -0.0035  0.0061
21355W        W39559   7.747  10.871  14.285 -0.2047 -0.1366 -0.4136
21356W        W39560   0.056   0.175  10.552 -0.0821  0.2011 -0.0964
21357W        W39561   1.454  12.034  13.137 -0.1874 -0.1489  0.2735
21358W        W39562   4.606  12.953  11.636 -0.3039  0.0281  0.0238
21359W        W39563   0.799  16.700  11.881 -0.0348 -0.0116  0.0011
21360W        W39564   2.319   6.601  12.675 -0.0891 -0.0886 -0.2220
21361W        W39565  16.908   3.657   0.238 -0.1897 -0.3026  0.0588
21362W        W39566   3.444  13.341  12.615  0.1431  0.1034  0.0191
21363W        W39567   3.870   7.439   4.854  0.0513  0.0906  0.0522
21364W        W39568   4.993   4.433  11.637  0.1295 -0.0260  0.2138
21365W        W39569   1.201   4.522   2.885 -0.3346  0.0845  0.2148
21366W        W39570   2.344   0.701  14.794  0.1796  0.1302 -0.2110
21367W        W39571   5.467   6.656  14.893 -0.1880 -0.1980 -0.0415
21368W        W39572   5.271   8.410   1.766 -0.0595  0.2286  0.0997
21369W        W39573   7.844   0.936  10.935 -0.1812 -0.3146  0.2803
21370W        W39574  15.492   4.168   0.369 -0.0537  0.2961  0.2684
21371W        W39575   9.596   0.569   0.830 -0.1746 -0.0606 -0.0479
21372W        W39576   2.447   7.368   0.862 -0.0023  0.1542 -0.2060
21373W        W39577   0.767   1.604   4.660 -0.2763  0.1380 -0.2154
21374W        W39578   1.893   1.603   2.659 -0.3432  0.0186 -0.0579
21375W        W39579  17.398  18.448   2.270 -0.0115 -0.0260  0.1106
21376W        W39580   5.938  17.348   4.533  0.0218 -0.0031 -0.3119
21377W        W39581   5.766  11.280   3.623 -0.0556  0.1178  0.0128
21378W        W39582  13.902   1.888   3.216 -0.3127 -0.0202  0.1732
21379W        W39583  14.263   6.381  12.944 -0.1772  0.0688 -0.0114
21380W        W39584   5.302   7.519   3.488  0.0084 -0.0417 -0.0882
21381W        W39585   4.095  13.804   1.325 -0.1579  0.1728 -0.2253
21382W        W39586  13.000  17.463  14.224 -0.0158  0.2228 -0.1023
21383W        W39587  11.178   4.482   1.419 -0.0585  0.1013  0.2276
21384W        W39588   0.143   0.635  13.171  0.1548 -0.1326  0.3436
21385W        W39589  14.197  12.234   4.250  0.1916  0.1916  0.1203
21386W        W39590  15.557  15.342  11.203 -0.0745 -0.1166 -0.0906
21387W        W39591   4.180   3.713   0.097 -0.2006 -0.0320 -0.1097
21388W        W39592   3.251   6.649   0.741 -0.3092  0.1808  0.0893
21389W        W39593   2.189  14.879  13.581  0.2330 -0.1432 -0.5604
21390W        W39594  16.361  10.024   3.948 -0.2667 -0.0506  0.0169
21391W        W39595  10.696   7.564   2.709  0.1678  0.0544 -0.3909
21392W        W39596   3.737  14.944  13.526  0.2087 -0.0582 -0.0640
21393W        W39597  12.104   5.195  12.683  0.0070 -0.1690  0.0769
21394W        W39598   0.826   9.638  10.455  0.1933 -0.0830 -0.0703
21395W        W39599   9.395  14.151   0.092 -0.2176 -0.0562 -0.4118
21396W        W39600  17.515  14.782   5.590 -0.0460 -0.1609 -0.1368
21397W        W39601  14.465   9.090  13.297  0.1905 -0.2517 -0.0051
21398W        W39602   6.265   3.264   2.619 -0.0557 -0.2438 -0.1388
21399W        W39603   2.834   6.980   0.165 -0.1316  0.0536 -0.0966
21400W        W39604   5.295   8.682   3.628 -0.3487 -0.1888  0.0430
21401W        W39605   8.999  15.528   5.751  0.0061  0.2021 -0.0408
21402W        W39606   5.082  12.527   2.180  0.0604  0.1139 -0.0220
21403W        W39607   8.480   1.603  11.294  0.2382 -0.4246 -0.1974
21404W        W39608  13.103  17.584   4.115 -0.0777  0.1114 -0.1659
21405W        W39609   5.912  17.384   3.086  0.2800  0.0557 -0.3618
21406W        W39610   4.379   8.619  12.818  0.0581  0.1856  0.0043
21407W        W39611  14.049   8.240  12.256  0.1652 -0.3536  0.2119
21408W        W39612  14.809   8.051   0.796 -0.0507 -0.0539 -0.0351
21409W        W39613   3.321   4.806   0.975  0.5741  0.1051 -0.1252
21410W        W39614   7.502  13.929   2.502  0.3767  0.2642  0.0797
21411W        W39615   0.605   0.812  13.050 -0.0119 -0.2871 -0.0239
21412W        W39616   6.255   0.707  12.777 -0.0680  0.0826 -0.2585
21413W        W39617   4.349  11.135  15.080 -0.0431 -0.0037 -0.1347
21414W        W39618   2.353   4.215  12.114 -0.1743  0.3514  0.2194
21415W        W39619   9.909   5.922  13.368  0.2825 -0.0555 -0.1232
21416W        W39620   9.333  10.257  12.348  0.0451 -0.0706  0.2641
21417W        W39621  12.841   3.274  11.960 -0.1608 -0.1007  0.1058
21418W        W39622  17.980  12.454   4.407 -0.3596  0.1744  0.1836
21419W        W39623  15.913   8.888   2.156  0.0567  0.3259 -0.0342
21420W        W39624   8.955  14.476  14.229 -0.0556 -0.1072  0.4123
21421W        W39625   5.723   9.070  12.257  0.0956  0.1788 -0.1968
21422W        W39626  17.875  15.936   0.610  0.0067  0.0356 -0.1704
21423W        W39627  16.090   4.193  15.380  0.4110 -0.0890  0.2982
21424W        W39628  15.982  14.876   2.411  0.1628  0.0723  0.2379
21425W        W39629   3.361   2.490  12.212 -0.0051 -0.1353  0.1631
21426W        W39630   1.343   8.217  12.245 -0.0588 -0.0835 -0.3197
21427W        W39631  13.268   3.659  12.087  0.1831  0.2551  0.0467
21428W        W39632  13.081  15.181  11.409 -0.2225 -0.0660 -0.0965
21429W        W39633  17.949   5.207  12.347 -0.0245  0.3469  0.2046
21430W        W39634   0.380   4.177   3.006 -0.0210  0.1979 -0.2567
21431W        W39635   8.256  14.753   2.730 -0.2357 -0.0516  0.1913
21432W        W39636   4.952   2.126  14.752  0.1248  0.3971  0.1118
21433W        W39637   7.019  12.230  14.390 -0.0930  0.2316 -0.2086
21434W        W39638   8.515  13.056  13.987 -0.0749  0.3047  0.2130
21435W        W39639   5.815   2.989  14.750  0.0106  0.1987 -0.2958
21436W        W39640   4.797   5.970   1.929  0.1958 -0.1188 -0.0096
21437W        W39641  17.120  15.008  15.343  0.2199 -0.0340 -0.4380
21438W        W39642  15.602   0.335  12.294  0.2084  0.0913  0.0376
21439W        W39643  13.572  17.714  14.737 -0.2523  0.1581 -0.0951
21440W        W39644  14.866   1.417   4.675  0.2195  0.0505  0.0963
21441W        W39645   5.823  16.203  12.938 -0.1601 -0.0947 -0.0783
21442W        W39646   3.646  12.025   0.725 -0.0720 -0.0325 -0.0157
21443W        W39647  17.639   8.044  14.076  0.3484 -0.1793 -0.0643
21444W        W39648   7.750  12.525  12.005  0.0154 -0.1561 -0.1222
21445W        W39649   6.689   3.017   2.253  0.0711  0.0185  0.1247
21446W        W39650  16.644  16.580   3.649 -0.2897 -0.0884 -0.0711
21447W        W39651  15.606  16.028   0.209  0.0156  0.2948 -0.2524
21448W        W39652   2.606  14.820   0.317  0.1966  0.0051 -0.0990
21449W        W39653  16.909   6.837  11.472 -0.0919 -0.1746 -0.0093
21450W        W39654  10.620  16.462  14.969 -0.2037  0.1614 -0.0196
21451W        W39655  17.651   4.627  15.294  0.4573  0.1137 -0.3096
21452W        W39656   1.733   1.873   1.837 -0.1357 -0.0372 -0.1201
21453W        W39657  16.399   8.418  10.907 -0.0363 -0.0376  0.0810
21454W        W39658  13.794   8.440   2.265  0.0485  0.1325  0.2504
21455W        W39659  17.408   8.351   2.493  0.3481  0.1128  0.2603
21456W        W39660   9.631   2.340   1.602  0.2774  0.1442  0.0703
21457W        W39661  13.919  16.123   1.285 -0.1019  0.1090  0.1172
21458W        W39662  18.217   4.855  14.318 -0.2172 -0.0102 -0.1759
21459W        W39663  16.354   9.252  12.487  0.0845  0.1766 -0.1987
21460W        W39664   7.957   6.244   2.683 -0.0955 -0.2247  0.1134
21461W        W39665   3.706  15.788   4.474  0.3705  0.2249 -0.2035
21462W        W39666   2.779  17.842  11.654  0.1742 -0.2133  0.1285
21463W        W39667  13.531  18.500  12.857  0.0677  0.1564  0.0761
21464W        W39668   9.346   1.620   1.014  0.1060  0.1879 -0.2098
21465W        W39669  14.754   6.536   4.021  0.4838 -0.1076 -0.1563
21466W        W39670   9.331   6.201   1.110  0.1224  0.3972  0.1027
21467W        W39671   8.817  13.990   1.778  0.0943 -0.2920  0.1965
21468W        W39672  10.610   5.806  14.768  0.0142 -0.2763  0.1748
21469W        W39673  13.138   9.632  11.299  0.2108 -0.1657  0.1168
21470W        W39674  14.485   4.587   2.305  0.0672 -0.0364  0.1652
21471W        W39675   5.256   6.161   4.832 -0.3148  0.3470  0.0845
21472W        W39676  14.233  11.769   2.498  0.0712 -0.2338  0.1541
21473W        W39677   3.650   1.220   0.273 -0.2213 -0.3796 -0.0479
21474W        W39678   7.182  14.551  13.836  0.1126  0.1375 -0.1877
21475W        W39679   1.946  16.867   2.140 -0.1827  0.1091 -0.1655
21476W        W39680  15.438  16.199  12.350 -0.3678  0.0707  0.2395
21477W        W39681   5.412   9.170   3.698  0.0228  0.0166 -0.0699
21478W        W39682  17.599   5.273   1.600 -0.2668  0.2242  0.2358
21479W        W39683  14.990   6.199  11.081  0.4952 -0.4054  0.5327
21480W        W39684  13.048  18.024   2.490 -0.0067 -0.2919  0.1167
21481W        W39685  15.148  12.885   4.348  0.1074  0.2663 -0.0147
21482W        W39686   5.331   0.699  11.497 -0.1007  0.0579 -0.1956
21483W        W39687   6.893   6.995  13.677  0.1252 -0.2641  0.0814
21484W        W39688   0.534   1.167  11.290  0.2053  0.1294 -0.1354
21485W        W39689  10.096  12.127   0.522 -0.2021  0.3098 -0.0329
21486W        W39690  16.973   4.347  10.461  0.0659 -0.0684  0.0513
21487W        W39691   7.237   9.490  10.982  0.1238 -0.2420 -0.0665
21488W        W39692  16.023  16.273   4.924  0.0440 -0.0538 -0.0068
21489W        W39693  11.296  10.069   0.317  0.2437 -0.0906  0.0171
21490W        W39694   9.312   4.766   3.999  0.0869  0.1379  0.1826
21491W        W39695  15.186  14.067   2.882  0.5604  0.2095  0.0362
21492W        W39696   9.172  15.118  12.528 -0.1408  0.0482  0.0612
21493W        W39697   0.777   9.279   2.668  0.2631  0.1394 -0.1824
21494W        W39698  13.867   2.981   1.119 -0.2164  0.0907  0.3424
21495W        W39699   0.785  18.239   1.526  0.1144  0.0042  0.2256
21496W        W39700   0.835   9.601  13.719 -0.1132  0.0338  0.0886
21497W        W39701  16.664   4.680  15.050 -0.2848  0.1791  0.2507
21498W        W39702  11.940   6.011  15.104  0.3107 -0.0170  0.0793
21499W        W39703   4.098  12.508  11.475 -0.1936 -0.0185 -0.3374
21500W        W39704  14.339  11.096   1.281 -0.5366 -0.0758 -0.5469
21501W        W39705  18.045   8.708  10.745  0.0443 -0.1812 -0.0082
21502W        W39706   7.973   1.824  10.677 -0.1414 -0.3271 -0.1793
21503W        W39707  15.091  17.912  13.349  0.0464  0.0649  0.1457
21504W        W39708   8.341   2.116  12.977 -0.0391 -0.0192  0.2021
21505W        W39709  10.379   8.501  14.474 -0.0763 -0.2211  0.2311
21506W        W39710   1.924   4.691   3.311  0.0910 -0.1011  0.0598
21507W        W39711   3.812  10.252  11.069 -0.0759 -0.1756 -0.0646
21508W        W39712   7.945  15.115  12.839 -0.1382 -0.0172  0.2345
21509W        W39713   5.967  15.289   3.939  0.0355 -0.0062  0.1066
21510W        W39714   2.369   5.320   2.937  0.0852  0.1469 -0.0314
21511W        W39715   5.835   7.820  11.267 -0.0066  0.0505  0.0965
21512W        W39716   6.154  16.870   3.202 -0.0234  0.0589  0.0309
21513W        W39717   9.549   1.498  14.301 -0.1024  0.2366  0.1988
21514W        W39718  12.322   9.866   4.666  0.1357  0.1892 -0.3413
21515W        W39719  11.017  14.549  15.411  0.1677 -0.0797  0.2087
21516W        W39720  13.144  15.663  12.416 -0.0890 -0.2698  0.1277
21517W        W39721   3.126   9.685  14.809 -0.1679  0.1135 -0.1137
21518W        W39722   5.892  15.177   2.475  0.1111 -0.1421  0.0816
21519W        W39723   0.550  16.955   3.903 -0.1719 -0.2922 -0.2666
21520W        W39724   9.597  17.191  14.627  0.0865  0.4006 -0.0360
21521W        W39725   5.023  17.853  11.007 -0.0632 -0.1787  0.4599
21522W        W39726  13.749   2.020  13.466 -0.0978 -0.2664 -0.0077
21523W        W39727  13.507   3.753  12.509  0.3928 -0.0064  0.0829
21524W        W39728  11.736  17.846  14.182  0.1773  0.3212 -0.1952
21525W        W39729  16.335   7.516   3.380 -0.2504 -0.1463  0.3149
21526W        W39730   7.414  14.263   4.343  0.0345  0.0295  0.1572
21527W        W39731   7.474  17.699   0.098 -0.0444 -0.2099  0.3263
21528W        W39732  18.274   1.562   2.492 -0.3588  0.4969  0.0649
21529W        W39733  11.349   1.737   1.486  0.1360 -0.2302  0.2014
21530W        W39734  12.364  18.463  15.304 -0.1080 -0.1833  0.1174
21531W        W39735  15.371  18.044   1.144  0.2576  0.0732  0.3756
21532W        W39736   9.230   5.608  11.757 -0.2882  0.0063  0.2092
21533W        W39737  15.100  15.832  14.129  0.0681 -0.1469 -0.0845
21534W        W39738  17.092   0.516   3.661 -0.2770  0.0890 -0.0120
21535W        W39739   0.285  10.983   2.216 -0.0349  0.0480 -0.0896
21536W        W39740   7.690   0.027   2.930  0.0755 -0.2389 -0.0105
21537W        W39741   2.806  13.118  15.260 -0.0786 -0.0782 -0.0728
21538W        W39742   6.852   7.304  13.242 -0.0384  0.1218  0.1873
21539W        W39743   0.678  18.621   0.207 -0.0391  0.0415  0.2920
21540W        W39744   4.116  16.831   0.075  0.0168  0.0086 -0.1214
21541W        W39745  15.262   0.763   4.614 -0.2356  0.0795 -0.0286
21542W        W39746   2.473  13.028  12.746 -0.2173 -0.1591  0.0909
21543W        W39747   5.844   6.693   0.123  0.2220 -0.2227  0.1856
21544W        W39748   0.183  17.753   1.235  0.0011  0.3747  0.1018
21545W        W39749   2.992   4.262  15.073 -0.1628  0.1805 -0.1942
21546W        W39750   3.052   0.017  15.359 -0.0967  0.1313 -0.1537
21547W        W39751  14.311  16.881   3.678 -0.0569 -0.3110  0.1586
21548W        W39752   5.035   8.971   3.132 -0.0869  0.1334  0.0787
21549W        W39753  14.745  10.043   2.116  0.1609 -0.2025 -0.3621
21550W        W39754   0.958  15.012  12.778  0.0107 -0.0115  0.0388
21551W        W39755   6.313  14.147   3.306 -0.0871  0.3132  0.0564
21552W        W39756   5.197   5.977  12.593 -0.3938  0.1163 -0.1350
21553W        W39757  11.287  14.970   1.097  0.0457 -0.3232 -0.3233
21554W        W39758   3.617  16.633   2.130 -0.2112  0.0242  0.0700
21555W        W39759  14.681  11.959  14.679  0.1698 -0.3146  0.0632
21556W        W39760   8.806  15.171   3.565  0.0287 -0.3403 -0.4990
21557W        W39761   7.033   7.327  11.607 -0.2843 -0.0314 -0.1280
21558W        W39762   1.615  11.398   1.179 -0.3923 -0.0211  0.1076
21559W        W39763  14.825  11.282  14.168  0.0986  0.4399  0.2045
21560W        W39764   4.775  16.591  11.511  0.0911  0.0992 -0.1282
21561W        W39765  13.189  12.645  14.926  0.1325 -0.0352 -0.2442
21562W        W39766  14.925   8.965  11.913 -0.1809 -0.4770  0.1401
21563W        W39767  13.497   2.916   2.509  0.3856  0.1397 -0.1681
21564W        W39768   5.838  12.632  12.078  0.1413  0.1385 -0.0043
21565W        W39769   3.253  17.136   3.526 -0.3282 -0.2593 -0.1083
21566W        W39770  16.672   6.067  10.525 -0.0176  0.3025 -0.2199
21567W        W39771  16.249  17.014  13.008 -0.1150  0.1043  0.0452
21568W        W39772   3.127  16.226  13.074  0.2537  0.1784  0.0124
21569W        W39773   3.671  14.010  15.127  0.1268 -0.0618 -0.0111
21570W        W39774  17.438   1.473  14.614  0.0299 -0.1573  0.0329
21571W        W39775   4.124  18.082   4.288 -0.0562  0.0581  0.2171
21572W        W39776  11.408  17.147   1.707 -0.1045  0.2682  0.2341
21573W        W39777  10.782   7.709  11.884  0.1028 -0.4208  0.1336
21574W        W39778   6.444   1.670   1.890 -0.2009  0.1501 -0.1055
21575W        W39779   5.219  13.643   0.454 -0.0095 -0.1076  0.0737
21576W        W39780   6.206   2.769  10.314 -0.1271  0.3152  0.0358
21577W        W39781   0.403  12.331  13.857 -0.1251 -0.2129  0.1694
21578W        W39782   0.322  13.135  15.262 -0.2600 -0.3669 -0.3681
21579W        W39783  16.349   6.363   0.374  0.3328  0.0510 -0.0086
21580W        W39784  13.912   9.516  14.092  0.3819 -0.3069  0.3228
21581W        W39785   6.063  17.893  12.777  0.0170 -0.0081  0.3942
21582W        W39786   1.865  12.524   1.590 -0.0192 -0.1567  0.3264
21583W        W39787   4.451   6.871   1.526 -0.2043 -0.2356 -0.2176
21584W        W39788  15.308   4.358  11.434 -0.2294  0.3752 -0.4698
21585W        W39789   8.795  14.130  14.561  0.0170  0.0969 -0.2354
21586W        W39790  11.561  15.864  13.636  0.0952  0.0797 -0.2743
21587W        W39791  12.305  11.714  11.812  0.0915 -0.1043  0.1535
21588W        W39792   1.531   0.641   4.265 -0.0666  0.1156  0.1262
21589W        W39793   5.050   6.679   1.771 -0.4103  0.3323 -0.1801
21590W        W39794   2.293  11.960   9.869  0.2069  0.1383  0.0360
21591W        W39795   8.033  18.314   1.893  0.4657 -0.0597  0.1085
21592W        W39796   2.180   0.598  11.792 -0.0119  0.0173  0.0061
21593W        W39797   7.801   3.466  11.234  0.0275  0.0351  0.0468
21594W        W39798  12.689   5.256  15.256  0.3588  0.2099  0.2734
21595W        W39799  16.226  11.519   2.789 -0.0950 -0.2166 -0.0651
21596W        W39800   4.955   5.829   2.828 -0.1091 -0.1370 -0.1254
21597W        W39801  18.507   4.234  11.370  0.0702  0.1650  0.0887
21598W        W39802   5.393   4.529  14.834  0.0395 -0.1847 -0.2807
21599W        W39803  16.981  16.815   3.977 -0.0181  0.3031  0.2985
21600W        W39804   2.327  15.034  12.192  0.0388  0.0762 -0.1362
21601W        W39805  15.774  12.835   2.460 -0.1981  0.0802 -0.1775
21602W        W39806   7.335  10.680  12.064  0.0840  0.0979 -0.2012
21603W        W39807  15.212  17.828   3.334  0.0159  0.0356 -0.0933
21604W        W39808  18.621   2.478  14.787  0.1457  0.1143 -0.2042
21605W        W39809   6.781  16.245   1.372 -0.1671 -0.2866 -0.1631
21606W        W39810   3.066   9.066   0.652 -0.2650  0.0561  0.2038
21607W        W39811   0.168   7.465   5.874  0.2495  0.1718  0.1843
21608W        W39812  11.868   2.807  11.553 -0.1818  0.1133 -0.0286
21609W        W39813  12.678  18.233  11.281  0.4192  0.0830 -0.1046
21610W        W39814  15.101  11.429  14.937 -0.2575  0.1757  0.1762
21611W        W39815  15.068  15.068  11.289  0.0571  0.1761 -0.2594
21612W        W39816   1.713  18.550  11.937 -0.1014 -0.1746 -0.1468
21613W        W39817   9.873   3.141   2.126 -0.0297 -0.1311  0.1249
21614W        W39818  16.474  11.307  11.676  0.0797  0.0656  0.1473
21615W        W39819  11.835   5.459   2.707 -0.0366  0.3576 -0.0340
21616W        W39820  12.275   3.866  14.664 -0.0114 -0.1804 -0.1698
21617W        W39821   9.864   7.352  10.990  0.2223 -0.1447 -0.4053
21618W        W39822   9.250  14.911  13.067  0.2556  0.0390  0.0412
21619W        W39823  15.424   5.659  12.280  0.2835  0.2807  0.2464
21620W        W39824   0.728   0.637  12.237  0.2552  0.1552 -0.0957
21621W        W39825   9.922  15.638   0.560  0.0985  0.0901  0.4168
21622W        W39826   6.800  10.783   1.660 -0.2611 -0.0424  0.1435
21623W        W39827   8.015  13.554  10.724 -0.2536  0.4211 -0.0479
21624W        W39828   4.344   9.612   3.476 -0.1366 -0.0761 -0.0781
21625W        W39829   5.198   7.951   2.078 -0.1738 -0.0043 -0.3182
21626W        W39830   0.506   1.058  14.927 -0.0764 -0.0247 -0.1388
21627W        W39831   1.272  16.696  12.002  0.2299  0.1261 -0.0594
21628W        W39832  10.400  12.919   1.336 -0.0649 -0.0359  0.2826
21629W        W39833  10.081   0.167  11.091 -0.2751  0.0318  0.1667
21630W        W39834   9.127  10.833  13.199  0.0731  0.1566  0.1759
21631W        W39835   5.093   8.103   1.348 -0.1748  0.0444  0.0993
21632W        W39836   1.363  12.483   4.126  0.0819 -0.1416  0.0487
21633W        W39837   4.356  14.067  12.296  0.2883 -0.0029  0.1449
21634W        W39838  16.126  11.432  15.200 -0.1369 -0.3667 -0.0742
21635W        W39839   5.040   0.890   2.125  0.2767 -0.2896 -0.0984
21636W        W39840  17.600  12.495  13.307  0.0405  0.0072  0.2415
21637W        W39841  15.364  16.973  12.011 -0.0855  0.0785  0.3227
21638W        W39842   6.287  18.048   3.346  0.2550 -0.0190 -0.2266
21639W        W39843   5.132   0.218  10.775  0.0704 -0.2180 -0.1659
21640W        W39844   8.407  17.100   0.969 -0.2526  0.5918  0.1843
21641W        W39845  13.773   2.826  12.264 -0.0327 -0.1135  0.0357
21642W        W39846   2.297   3.877  13.972 -0.0534  0.3523  0.0981
21643W        W39847  12.135   4.365   1.102  0.1417 -0.2700 -0.0762
21644W        W39848   7.150  16.643  13.278  0.1188 -0.0488  0.1205
21645W        W39849   4.253   3.078   1.261  0.1457  0.2857 -0.2791
21646W        W39850   3.021   4.435  12.844 -0.2414 -0.1014 -0.3978
21647W        W39851   3.487  15.319   4.192  0.0921  0.3346  0.2956
21648W        W39852   3.269   5.672   3.879  0.0387 -0.0956 -0.0072
21649W        W39853   0.136  18.555   0.310  0.1067 -0.0219 -0.3219
21650W        W39854   7.162  15.365  10.927 -0.0895  0.2046 -0.0885
21651W        W39855  11.397  10.986   0.903 -0.1517  0.1417  0.0724
21652W        W39856   9.222   0.615  12.800 -0.1064  0.2470  0.2061
21653W        W39857   6.078  13.621   3.301 -0.1193  0.2615 -0.0867
21654W        W39858  11.831  10.738   0.773  0.0006  0.0213 -0.2334
21655W        W39859  14.134   7.166   4.022 -0.1493  0.2163  0.1837
21656W        W39860  16.011  17.309   3.605  0.1148  0.2051 -0.2766
21657W        W39861  16.101   7.712   4.254 -0.2578  0.3500 -0.0169
21658W        W39862   5.619  13.416  12.703  0.1309  0.0952  0.1418
21659W        W39863  10.708  12.257  12.139 -0.1550  0.0347 -0.2794
21660W        W39864  13.471  11.530   1.194 -0.1722  0.2834  0.1955
21661W        W39865   0.931  18.055  15.279  0.2289 -0.1586  0.3602
21662W        W39866  15.784   9.902  12.365  0.0082 -0.1965  0.2372
21663W        W39867  13.585  17.930   4.927 -0.1700 -0.1011 -0.1490
21664W        W39868   9.739   6.869   5.984 -0.1801 -0.0377 -0.1077
21665W        W39869   8.337  17.136   2.465 -0.0038  0.1790 -0.0309
21666W        W39870   4.268   5.610   4.703 -0.2758 -0.0373 -0.1268
21667W        W39871  17.228   2.480  14.232  0.1180 -0.0212 -0.0651
21668W        W39872  10.932  10.202  14.127  0.3977 -0.2346  0.3551
21669W        W39873  15.165   2.775   2.846 -0.1270 -0.1053 -0.1723
21670W        W39874  15.505   8.780   4.520 -0.1164  0.2253 -0.2535
21671W        W39875   6.887   2.449   5.068 -0.1536  0.0001 -0.1847
21672W        W39876   1.081   9.905  11.161  0.1609  0.2960 -0.5540
21673W        W39877  12.347   7.276   2.082  0.1797 -0.0426 -0.0321
21674W        W39878  13.257  16.548  14.271 -0.0489  0.0635 -0.1198
21675W        W39879  11.956   2.061  10.675  0.1303 -0.1235 -0.0339
21676W        W39880  10.187   4.693   3.147 -0.1501  0.2928  0.1898
21677W        W39881   5.951   7.049  13.613  0.0867  0.0235  0.1606
21678W        W39882  16.277   9.553   1.516  0.0622  0.0796  0.1407
21679W        W39883   5.450   9.405   4.223  0.2151 -0.1723 -0.0524
21680W        W39884   9.015   5.665   1.439 -0.0714 -0.2339  0.1095
21681W        W39885  11.330   8.539  14.624 -0.4814  0.0070 -0.0921
21682W        W39886   4.208   6.379  14.625 -0.4259 -0.0338  0.4040
21683W        W39887   5.810   0.574   4.243 -0.2626 -0.3621  0.1331
21684W        W39888   9.599   2.659   3.791  0.1578 -0.0906 -0.1443
21685W        W39889   3.526   9.105   0.252  0.0363  0.0478  0.2273
21686W        W39890   9.092  17.655  14.078  0.0934  0.0271  0.0384
21687W        W39891   5.946  11.635   2.922  0.1400 -0.0975  0.1380
21688W        W39892   1.765  17.172   3.435  0.0111  0.4216  0.1379
21689W        W39893   1.843   2.902   1.019 -0.3671  0.0975  0.3992
21690W        W39894  12.840   9.209   0.198 -0.2198  0.2369  0.0461
21691W        W39895  13.034  17.249   0.604  0.3208  0.1455  0.0089
21692W        W39896   1.827  13.581  14.086  0.3374  0.3284  0.2503
21693W        W39897  12.142   8.008   1.446  0.4820 -0.1128 -0.2579
21694W        W39898  13.569  10.962  11.756  0.1180  0.1879  0.0103
21695W        W39899   3.786  14.755  12.182  0.2821 -0.1594 -0.1905
21696W        W39900   5.445   0.526  11.043 -0.0099 -0.3965  0.0680
21697W        W39901   1.318   2.863   2.834 -0.1468  0.0322 -0.0352
21698W        W39902  13.256  10.868  13.357 -0.0599  0.1853 -0.1754
21699W        W39903   0.489  18.580  11.734 -0.1289  0.2207  0.2523
21700W        W39904  18.264  12.030   0.625 -0.1446 -0.0974  0.4618
21701W        W39905  10.666   4.992   3.226 -0.0952  0.2369 -0.2278
21702W        W39906   3.962  15.417  14.604 -0.1431 -0.0666  0.0706
21703W        W39907   6.540   9.272  11.653 -0.1468  0.0387  0.3108
21704W        W39908   5.399   7.765  12.244  0.1044 -0.0134  0.0531
21705W        W39909   3.290  14.107   3.215 -0.0955  0.0854  0.0737
21706W        W39910   1.831   8.472  14.053  0.0046  0.2361  0.1886
21707W        W39911   3.108   3.522   0.441  0.2865  0.0354 -0.3208
21708W        W39912   0.354   4.520  12.592 -0.1011 -0.0404 -0.0291
21709W        W39913  13.335   9.337  15.276  0.3287 -0.2883  0.2101
21710W        W39914   5.317   1.240  15.275  0.1865 -0.0005  0.2448
21711W        W39915  18.450  11.088   0.621 -0.2397 -0.2082 -0.4167
21712W        W39916  15.131  14.868   0.883 -0.3800 -0.0196 -0.0721
21713W        W39917  17.999   0.780   3.581  0.1773  0.0513 -0.2726
21714W        W39918   9.549   1.516  15.190  0.2891 -0.3175 -0.0954
21715W        W39919  14.893   8.352  13.843  0.0842  0.1281  0.1698
21716W        W39920  15.427   1.317  13.664  0.1873  0.0811  0.0430
21717W        W39921   7.671  17.445   0.540 -0.0893 -0.2565  0.3015
21718W        W39922   5.929   5.190  11.344 -0.0513 -0.0927 -0.1208
21719W        W39923  17.051  18.515  12.918 -0.0374 -0.0307  0.2354
21720W        W39924  12.259  11.735  14.170  0.0286  0.0471 -0.2685
21721W        W39925  14.697  11.805   1.795 -0.1092 -0.1267 -0.1601
21722W        W39926  12.458  16.982   1.573  0.3224  0.2314 -0.0129
21723W        W39927   2.362   1.945   4.351  0.0081 -0.2880  0.3340
21724W        W39928   5.825  14.210  14.678  0.1398  0.1755  0.1709
21725W        W39929  14.928  10.553   3.726 -0.1278  0.0501 -0.3303
21726W        W39930   7.693  12.887  11.199  0.1224  0.0857  0.0421
21727W        W39931   2.447  11.424   0.160  0.2825  0.3340  0.0503
21728W        W39932   4.729   9.424  15.435  0.0674 -0.3262  0.2144
21729W        W39933  18.354   6.032  14.105 -0.0251  0.2297 -0.1445
21730W        W39934   9.324   2.082   0.716  0.0159  0.2348 -0.2715
21731W        W39935  13.156  12.951   3.961  0.2384  0.3089  0.2349
21732W        W39936  10.849   1.029   0.924  0.0688 -0.0453  0.1578
21733W        W39937   1.562   2.055   2.711 -0.3998  0.3156  0.1761
21734W        W39938  17.788  16.592  14.927 -0.0652 -0.0187 -0.0933
21735W        W39939  13.087  18.140   3.968 -0.0700  0.2223  0.2369
21736W        W39940   9.408  18.223  10.971  0.0752  0.0827  0.0107
21737W        W39941  13.201   7.692   1.962 -0.1391  0.1696 -0.4969
21738W        W39942   4.554  17.840  14.533 -0.0211  0.0925 -0.2060
21739W        W39943  13.652  15.343   3.594 -0.0032  0.1949  0.2441
21740W        W39944  16.967   2.065   3.118 -0.1018  0.3401 -0.0426
21741W        W39945   6.443   8.675  13.659 -0.0037  0.0494  0.0771
21742W        W39946  16.004   4.345  12.181  0.1030 -0.0957  0.1655
21743W        W39947   9.231  11.931   5.079 -0.2305  0.0432  0.0191
21744W        W39948  14.517  18.474  13.030  0.3190  0.0061 -0.4062
21745W        W39949  10.252  15.234  15.197 -0.1740  0.1426  0.2624
21746W        W39950   6.258   6.197   0.758 -0.1610  0.2391  0.0488
21747W        W39951   6.239   4.659   3.521 -0.3714  0.0890 -0.0165
21748W        W39952   0.051  16.244  13.538 -0.0704 -0.1164 -0.0141
21749W        W39953   5.853   1.902  13.836 -0.3455  0.3593  0.0275
21750W        W39954  12.617  13.856  14.874  0.0958  0.1064 -0.0949
21751W        W39955   4.739  15.699  14.545 -0.0786  0.4053  0.0241
21752W        W39956   7.310   9.057   2.164 -0.2413 -0.0154 -0.0550
21753W        W39957   3.033   4.377   1.040 -0.0422  0.3564 -0.1454
21754W        W39958   4.086   0.762   2.385  0.0182 -0.2302  0.0533
21755W        W39959  12.751  11.411   4.250  0.2306 -0.0525  0.0769
21756W        W39960  16.192   2.490   2.830 -0.2521 -0.2839 -0.2872
21757W        W39961   9.218   6.128  11.910  0.3422 -0.0132  0.1032
21758W        W39962  18.677   5.417   3.496  0.0137 -0.1353 -0.1136
21759W        W39963   3.985  13.356   0.629 -0.2428 -0.0416  0.0455
21760W        W39964  18.597   8.200   1.783 -0.2614 -0.1172 -0.1407
21761W        W39965   6.550   9.903   2.408 -0.0902  0.2463 -0.0307
21762W        W39966   5.071  14.200  12.787 -0.0787 -0.4499 -0.0932
21763W        W39967   5.503  12.190   1.227  0.1253  0.0697 -0.0670
21764W        W39968  13.671   4.462  13.075 -0.2148  0.1137 -0.2104
21765W        W39969   6.150   3.737   0.613  0.2829  0.2168 -0.0061
21766W        W39970  15.885  10.703   0.775 -0.1610  0.0014  0.1882
21767W        W39971  11.730  15.005  12.029  0.1112 -0.1204 -0.1134
21768W        W39972   7.802   3.697  11.691  0.2329  0.3586  0.0679
21769W        W39973   1.556   3.076   0.319  0.2188 -0.2509 -0.1775
21770W        W39974   4.310  13.084  12.035  0.0392 -0.1568 -0.0428
21771W        W39975   6.043  11.442  10.668 -0.0996  0.2388 -0.2702
21772W        W39976   0.652   7.246   5.111  0.2031 -0.2483 -0.0453
21773W        W39977   7.835  15.137   1.797 -0.1271  0.0107  0.0520
21774W        W39978  14.424  14.122  14.224  0.0811 -0.3635 -0.1274
21775W        W39979  10.196   7.598   2.831  0.0059 -0.1572  0.2461
21776W        W39980   9.147   2.216   4.845  0.1414  0.1295  0.1612
21777W        W39981  13.048   8.839  15.369 -0.2542 -0.0429 -0.2326
21778W        W39982  12.801  14.777  14.548  0.0042 -0.0876  0.0171
21779W        W39983  10.541  13.353   5.500  0.1114  0.0072 -0.1287
21780W        W39984  13.620   9.225   1.423  0.0330 -0.0033 -0.0123
21781W        W39985  10.796   1.765   3.661 -0.0043 -0.2589 -0.0833
21782W        W39986  10.135   3.304  13.566 -0.2283  0.3394 -0.1504
21783W        W39987  17.546  15.084  11.318 -0.1438  0.3211  0.3407
21784W        W39988  13.596  15.122  14.175 -0.2398  0.0263  0.2596
21785W        W39989  18.673   3.142   2.186 -0.1411  0.0303  0.2758
21786W        W39990  10.063   1.018  13.868 -0.0018  0.0853  0.0408
21787W        W39991   9.838   1.306   0.192 -0.1051 -0.0309  0.0051
21788W        W39992  12.363   9.441   2.184 -0.0437 -0.0754 -0.0998
21789W        W39993   3.087   0.515  11.127  0.0587  0.0192  0.5028
21790W        W39994  15.674   9.699   1.777 -0.0839 -0.1770  0.0496
21791W        W39995  10.121  17.868  14.840 -0.0455  0.1652  0.1319
21792W        W39996   0.779  15.668  14.004  0.0739  0.0964 -0.0530
21793W        W39997  16.453  15.574   4.362  0.2092 -0.0244  0.1258
21794W        W39998   7.392   0.957   3.498  0.1746  0.1567  0.2879
21795W        W39999   1.733  12.339  11.473  0.0728 -0.0704  0.0501
21796W        W40000   7.967   7.597  13.155  0.2599  0.1215  0.4406
21797W        W40001   6.928  13.713  15.155  0.1861  0.1909  0.1581
21798W        W40002  14.783   1.104   0.741 -0.1842 -0.1627  0.0584
21799W        W40003  17.528  15.788   1.096 -0.1586 -0.0631 -0.1756
21800W        W40004   4.668   6.846  11.952 -0.0433 -0.1947 -0.1722
21801W        W40005  11.312   7.994   1.901  0.0840 -0.3160  0.0461
21802W        W40006   8.357   3.506   1.742  0.1096  0.0409 -0.1322
21803W        W40007  12.468  11.088  13.572  0.4657 -0.1978 -0.1070
21804W        W40008   8.091  18.091   4.071  0.3023 -0.2025 -0.0912
21805W        W40009   4.264  10.032  14.144  0.0927  0.1060  0.2621
21806W        W40010   0.087  10.750   4.539  0.2307 -0.1394 -0.0888
21807W        W40011   1.271   4.841  10.376 -0.0981 -0.2171 -0.4717
21808W        W40012  16.027   7.593   1.827  0.1013  0.2686 -0.1319
21809W        W40013   7.751  10.159  15.272 -0.0103  0.1371  0.2167
21810W        W40014   0.309  16.033  14.970  0.0739 -0.3040  0.0079
21811W        W40015  10.237  10.334   3.552  0.1971 -0.0654 -0.2298
21812W        W40016  12.841  12.820  15.323 -0.0264 -0.1026  0.1085
21813W        W40017   5.100   2.300  13.690  0.3262 -0.0667 -0.0021
21814W        W40018   4.051   5.441   4.249  0.0260 -0.0219  0.0018
21815W        W40019  17.730   9.635  11.294 -0.1114  0.0333 -0.3026
21816W        W40020  10.722   9.230  12.394  0.2737  0.0014  0.0715
21817W        W40021  12.752   4.468  13.862 -0.0256  0.0848 -0.0725
21818W        W40022   6.927  10.396  12.496 -0.0874 -0.3620 -0.0782
21819W        W40023  14.845   1.696  10.241 -0.1994 -0.1564 -0.1969
21820W        W40024  15.868   8.215  10.048  0.0165  0.3003 -0.0782
21821W        W40025   4.270  16.908   2.907  0.0657  0.0845 -0.3333
21822W        W40026   3.470  16.095   1.255  0.0924  0.1948 -0.3343
21823W        W40027   6.674  17.583  14.008  0.0572 -0.2279  0.0962
21824W        W40028   9.241   4.763   0.113 -0.0174 -0.2342 -0.0081
21825W        W40029   7.226  10.740   3.683 -0.0734  0.0072 -0.0212
21826W        W40030   7.587   5.424  14.573  0.0523 -0.2861  0.1159
21827W        W40031  14.825   9.130  12.948  0.0438  0.2287 -0.1195
21828W        W40032   0.182   9.788   2.279 -0.0700  0.1024 -0.0968
21829W        W40033   4.235  14.709   3.701  0.2921 -0.1023 -0.3116
21830W        W40034  10.907   9.860  13.367 -0.0788 -0.0120 -0.2778
21831W        W40035  15.886  16.985   0.826  0.0708  0.0514 -0.3149
21832W        W40036   7.750  18.310   4.557 -0.2167 -0.3259  0.1476
21833W        W40037  14.296   9.825   4.488 -0.0737  0.0853  0.0085
21834W        W40038   7.607  18.050   4.993  0.0590 -0.1325  0.0340
21835W        W40039  14.887  14.005   3.280 -0.0163  0.4171  0.1257
21836W        W40040  17.584   9.488  10.859 -0.0485 -0.2561  0.1572
21837W        W40041   1.988  17.042  14.139 -0.2777 -0.0102  0.1660
21838W        W40042   4.339  10.962   2.337 -0.4335  0.0909  0.1511
21839W        W40043  10.689   2.322   0.644 -0.0713 -0.4516  0.2795
21840W        W40044   8.761   7.605   1.602  0.2783  0.1288 -0.0356
21841W        W40045   3.670  16.294   3.112 -0.1705  0.1786  0.1170
21842W        W40046   7.249  17.799  13.216 -0.2710  0.2639  0.0383
21843W        W40047  10.864   8.458  15.322  0.0319  0.0032 -0.1249
21844W        W40048  13.500  17.261   0.315 -0.2419  0.1939 -0.1540
21845W        W40049   3.461  12.081   1.815 -0.0673  0.2503  0.1244
21846W        W40050  12.084   9.993  10.822  0.2508  0.1037 -0.1080
21847W        W40051  17.589  16.701  13.140 -0.0331 -0.0614  0.2488
21848W        W40052   7.461  11.060  11.026  0.1722  0.2013  0.0628
21849W        W40053  14.813   1.493   2.693 -0.1094 -0.0713  0.2161
21850W        W40054  16.725   4.824   0.522  0.1170 -0.2161  0.3258
21851W        W40055  15.238  10.211   2.844  0.1005  0.1015  0.1034
21852W        W40056   2.422  17.367  13.068 -0.1639  0.0744 -0.2324
21853W        W40057   2.696   1.631  14.003 -0.1370 -0.0372 -0.1255
21854W        W40058  12.542   2.993  11.680  0.1830  0.0285 -0.2766
21855W        W40059  11.073   7.226   2.345 -0.2299  0.2068 -0.0827
21856W        W40060   1.170  16.996   4.245  0.0467 -0.4571 -0.3295
21857W        W40061   8.452  16.308   2.598  0.0269 -0.0795 -0.1802
21858W        W40062  10.571   7.279   2.263 -0.0307  0.2103  0.0013
21859W        W40063  16.507   2.978   3.290 -0.3232 -0.1674  0.1607
21860W        W40064   5.964  12.883  11.643  0.3122  0.0019 -0.2201
21861W        W40065   4.031  18.060   3.761  0.1723 -0.0273  0.2230
21862W        W40066  11.018   5.280  15.251 -0.0911  0.1461 -0.2867
21863W        W40067  13.189  15.442  10.384 -0.1870  0.1937  0.3612
21864W        W40068   7.272   6.091  13.788 -0.0945  0.0917  0.0498
21865W        W40069   4.830   7.432  15.079 -0.0462 -0.1111 -0.0650
21866W        W40070  12.084   3.362  10.798  0.2663  0.1352  0.2499
21867W        W40071  16.480  17.304  11.290 -0.0256  0.1997 -0.1817
21868W        W40072   7.818   0.056  15.310 -0.0220 -0.1582  0.0547
21869W        W40073   5.457   8.906  11.585 -0.2053  0.1052 -0.1335
21870W        W40074  11.569  17.841   2.199 -0.0226 -0.1674  0.0105
21871W        W40075   4.298  15.648  13.565 -0.1865  0.4686  0.2416
21872W        W40076  13.340  15.858   0.217  0.3783  0.0039 -0.1698
21873W        W40077  13.019   1.027  13.541 -0.1650  0.1910  0.0648
21874W        W40078   2.802  16.434   3.383  0.4101 -0.1601 -0.4070
21875W        W40079  18.679   4.515   9.989 -0.0943 -0.0095  0.1790
21876W        W40080   1.991  14.781   1.656 -0.3127 -0.0917 -0.1797
21877W        W40081  15.237  15.698   0.955 -0.2742 -0.3271 -0.1200
21878W        W40082   9.715   3.698  14.950  0.0472  0.0402 -0.1501
21879W        W40083   4.037  16.335   1.876  0.0662  0.1540  0.0083
21880W        W40084   8.400   7.553   1.982  0.0056  0.0095  0.1199
21881W        W40085   3.048   6.717  13.050  0.0741 -0.0474  0.0036
21882W        W40086  10.110   1.848  14.442  0.1598  0.1083  0.1054
21883W        W40087  14.011   8.031  13.744 -0.0612  0.2113 -0.0873
21884W        W40088   9.195   3.057   3.017  0.2723 -0.0887 -0.0813
21885W        W40089  16.914   0.999   1.953  0.0221  0.1202 -0.1847
21886W        W40090   2.974  13.416  14.382  0.2528 -0.0524  0.0375
21887W        W40091   0.591   7.762   3.591 -0.0122 -0.5572 -0.1057
21888W        W40092   7.761   5.520   1.443  0.3049 -0.4328  0.3574
21889W        W40093   0.218  10.315   1.063  0.0487 -0.3685 -0.0679
21890W        W40094   4.650   2.067   3.211  0.1799  0.1342 -0.1939
21891W        W40095   8.674   3.272   1.010  0.0146 -0.1303 -0.0718
21892W        W40096  14.035  10.106  14.088  0.0145 -0.2843 -0.0664
21893W        W40097   8.160  18.392  14.980  0.2373  0.0162  0.0734
21894W        W40098   1.771  13.392   1.423 -0.0809 -0.0717 -0.1526
21895W        W40099   5.087   5.589  13.935  0.2110  0.2571  0.2453
21896W        W40100  13.767   4.202  15.061 -0.1909 -0.0273 -0.0021
21897W        W40101   0.911  13.123  15.433  0.0493 -0.1766  0.0055
21898W        W40102  14.700  10.020   4.914 -0.1977  0.1411  0.2128
21899W        W40103   0.656  14.153   3.182  0.0107 -0.0003 -0.4119
21900W        W40104  10.969   2.428  14.025  0.1534 -0.1994  0.0212
21901W        W40105  16.070  15.963  13.691  0.1603  0.2360 -0.5513
21902W        W40106   6.074  18.660  10.454  0.2698 -0.0698 -0.0419
21903W        W40107  17.623   5.856   4.155  0.0990 -0.1791 -0.1603
21904W        W40108  16.763   4.124   1.659 -0.0369 -0.0313  0.0309
21905W        W40109   0.996  11.699   0.772 -0.1951  0.5442 -0.0874
21906W        W40110  12.871   0.536  13.525  0.2627 -0.0436 -0.0372
21907W        W40111  14.119  14.497  11.117  0.0945  0.0789  0.1528
21908W        W40112  17.346   7.378  12.606 -0.1712  0.3797 -0.1506
21909W        W40113  14.120   3.253   3.978  0.0110 -0.0753 -0.2320
21910W        W40114   5.441   3.561   0.980  0.2942 -0.2095 -0.0488
21911W        W40115  12.035   1.895   3.798 -0.0789 -0.0675  0.0831
21912W        W40116   9.592  11.192  10.852 -0.0763  0.0006 -0.1096
21913W        W40117   2.752   8.455  14.073 -0.0738 -0.1504 -0.0299
21914W        W40118   6.159   5.244  13.502  0.0625 -0.3787  0.0308
21915W        W40119  12.438   3.470   0.900  0.0457 -0.0880 -0.0134
21916W        W40120  16.131   4.702   1.606 -0.0495 -0.1937 -0.0174
21917W        W40121   3.515   8.877   2.451 -0.0849  0.0937  0.0391
21918W        W40122  10.895  10.367  11.362  0.1400 -0.2669  0.0925
21919W        W40123   7.311  12.760  11.469  0.1170  0.1092 -0.1881
21920W        W40124  17.462   8.052  13.154  0.0291  0.1527  0.3111
21921W        W40125   1.569  17.177   3.879  0.0327 -0.0048 -0.0606
21922W        W40126   7.673   0.350  12.140 -0.2140 -0.0674  0.0855
21923W        W40127  17.739  15.662  13.958  0.0395 -0.1716  0.1515
21924W        W40128   4.277   2.325  13.318 -0.3203  0.0430 -0.0191
21925W        W40129   8.504   4.465   0.278 -0.0247  0.2398  0.1976
21926W        W40130   1.971  14.239  11.132  0.0300  0.1326 -0.1787
21927W        W40131   9.414  13.399   2.412  0.2998 -0.1027 -0.1046
21928W        W40132  17.710   6.417   2.055  0.1007 -0.2006  0.2247
21929W        W40133   3.655   9.240  11.964 -0.1226  0.1785  0.2380
21930W        W40134   4.149  14.788  10.710 -0.3811 -0.2276 -0.1593
21931W        W40135   4.775  12.281   3.688  0.2869  0.1100  0.1165
21932W        W40136   7.761  12.385  11.557  0.0138  0.2888  0.1804
21933W        W40137  11.173   0.781  14.508 -0.1306  0.0893  0.4182
21934W        W40138  11.217   4.849   2.130  0.3469 -0.3457 -0.0511
21935W        W40139   6.015   9.168  11.504 -0.2285 -0.0003 -0.2942
21936W        W40140  13.100  12.898  13.080  0.1426  0.0183  0.1657
21937W        W40141  13.788   2.573  13.621 -0.0907 -0.1267  0.0541
21938W        W40142  10.603   3.365   4.360 -0.0725  0.0879  0.1373
21939W        W40143  10.578  14.292  14.963 -0.0802  0.1448 -0.1451
21940W        W40144  12.038   7.448   0.426  0.1046 -0.3344 -0.2120
21941W        W40145  13.626  16.686   1.052 -0.0577 -0.0845 -0.1357
21942W        W40146   9.748  17.171   3.424 -0.2360 -0.0263 -0.0192
21943W        W40147  10.985   7.439   1.189 -0.0440 -0.0808 -0.1549
21944W        W40148  10.559  14.995   3.509 -0.2499 -0.1927 -0.0321
21945W        W40149   4.537  11.402   1.234 -0.0337  0.0452  0.2748
21946W        W40150  17.007   2.220   0.830 -0.1092 -0.2112 -0.0672
21947W        W40151  17.535   8.361  13.585  0.0614 -0.3055  0.0108
21948W        W40152   4.069   8.706   1.534 -0.0623 -0.1696 -0.3901
21949W        W40153   4.102  18.579   1.700  0.0769  0.3486 -0.2946
21950W        W40154   6.604  11.441   0.736 -0.3404 -0.0574 -0.1735
21951W        W40155   3.495   9.875   5.064 -0.0703  0.0175 -0.0308
21952W        W40156   9.702  13.584   3.440  0.1016 -0.1614  0.2551
21953W        W40157   0.551   5.972   4.847  0.1414  0.0647 -0.0966
21954W        W40158   4.268  11.438  12.541 -0.0834 -0.0027  0.1325
21955W        W40159  14.244   5.690   3.092 -0.1303 -0.2323 -0.0584
21956W        W40160   9.450   7.721   4.024  0.3477 -0.1525 -0.1425
21957W        W40161   7.417  17.342   2.117  0.0450  0.0951 -0.1671
21958W        W40162  13.963  16.823   4.680  0.3373 -0.1133  0.0928
21959W        W40163  17.014  17.462  12.998 -0.1646  0.2067  0.1731
21960W        W40164   1.234   0.870   5.091  0.1692 -0.0352  0.0234
21961W        W40165  13.536  11.068   4.880  0.0514 -0.0652  0.1920
21962W        W40166  16.646  10.437  14.571 -0.0133 -0.1715  0.0643
21963W        W40167   4.751   8.310  11.615 -0.0835 -0.1891 -0.0143
21964W        W40168  12.486  12.060  13.214  0.0076  0.0466 -0.2105
21965W        W40169  11.798  10.070   3.238 -0.0663 -0.1314 -0.1533
21966W        W40170   3.604   3.157  11.405 -0.4307  0.1037  0.0137
21967W        W40171   6.285   0.296  12.476  0.2926 -0.1922  0.1867
21968W        W40172  17.357  18.180   0.932  0.2785  0.2343  0.1624
21969W        W40173   0.015  13.751  11.525  0.0646 -0.2610 -0.3061
21970W        W40174  18.438   9.430  13.944  0.2983  0.1704  0.0128
21971W        W40175   3.212   4.961   5.214 -0.0020  0.3278 -0.2043
21972W        W40176   1.459   6.136  14.662 -0.2665 -0.1108  0.1253
21973W        W40177   7.613   0.971   0.730  0.4029 -0.3390 -0.0820
21974W        W40178   8.404   7.327  15.298 -0.1322 -0.1414 -0.0587
21975W        W40179   6.138  15.007   4.379  0.0050 -0.2506 -0.0559
21976W        W40180  14.191   9.497   1.071  0.0749  0.0999  0.0952
21977W        W40181   5.762  11.709  15.288  0.1337 -0.0873  0.3912
21978W        W40182   5.441  14.394  15.289  0.0215  0.0744  0.2522
21979W        W40183   6.624  11.047   4.814  0.2579  0.1868 -0.0987
21980W        W40184   4.436  18.502   3.978  0.1712 -0.0397 -0.0520
21981W        W40185   1.151   6.876  13.273 -0.2727  0.1518  0.0166
21982W        W40186   7.415   1.741  12.672 -0.0590  0.1359 -0.0136
21983W        W40187  14.794  15.872   0.634  0.0671 -0.0360  0.1546
21984W        W40188  18.119  13.025  12.553 -0.0662  0.0292  0.0560
21985W        W40189  11.744   0.394  11.928  0.1648 -0.0036 -0.3373
21986W        W40190   6.836  10.497  15.258 -0.0605  0.3364 -0.1700
21987W        W40191  16.133   5.670  14.035  0.2578 -0.2474 -0.1593
21988W        W40192   0.872   2.716   2.549 -0.0946 -0.0387  0.1042
21989W        W40193  18.157   6.123   2.190  0.0619 -0.0955  0.2972
21990W        W40194   7.567  13.268   1.783  0.0306 -0.1616  0.1325
21991W        W40195  15.821  13.005  11.714  0.3081  0.0116  0.1412
21992W        W40196  18.327   4.430   4.613  0.0791  0.1751 -0.0091
21993W        W40197  11.704   9.206   3.728 -0.2993 -0.1451  0.3158
21994W        W40198  14.009  13.101   2.024  0.0761 -0.0764  0.1414
21995W        W40199   2.342   8.502   1.990  0.0163  0.0996 -0.1333
21996W        W40200   1.393  13.384  11.255 -0.0344  0.0056 -0.0850
21997W        W40201   7.659   0.840  11.987  0.2094 -0.1854  0.1099
21998W        W40202  15.034   8.478   2.247 -0.1213 -0.1341  0.0361
21999W        W40203   2.789  12.576  11.171  0.2602 -0.2564  0.2002
22000W        W40204  11.941  17.825  11.940 -0.1657  0.0225  0.2144
22001W        W40205   9.547   5.551  12.543 -0.0654 -0.1147  0.3300
22002W        W40206   7.898   9.983   1.556 -0.2672 -0.2371  0.1418
22003W        W40207   4.629  13.919  11.823  0.1960 -0.4324 -0.1101
22004W        W40208  10.623  16.403  13.186  0.0253  0.1429 -0.0475
22005W        W40209   4.052   3.932   1.980 -0.0658  0.0796  0.2038
22006W        W40210   8.192   3.035   3.580  0.1784 -0.0946  0.0315
22007W        W40211  14.595   7.791   1.209 -0.1988 -0.2060 -0.0924
22008W        W40212   4.296  14.346   3.052 -0.1677  0.0111 -0.2706
22009W        W40213   5.259   7.712  14.822 -0.1010  0.2233  0.0944
22010W        W40214   7.266  11.518   0.444 -0.2336  0.1391  0.5793
22011W        W40215   8.795  15.412  15.270 -0.1952 -0.1214 -0.0637
22012W        W40216  13.474  12.748  15.441  0.2618  0.0403  0.0606
22013W        W40217  16.362  13.125  12.998  0.0096  0.1538  0.0840
22014W        W40218   0.133   3.890   0.581 -0.0437 -0.0682 -0.0216
22015W        W40219   9.298   1.366  13.424  0.1276 -0.1093 -0.2918
22016W        W40220  13.010   8.633   3.114  0.1618  0.1063  0.0049
22017W        W40221  11.950   3.682  13.174 -0.2842 -0.1069  0.1570
22018W        W40222   4.900  17.690  15.059  0.0105  0.1539 -0.0951
22019W        W40223   7.026   1.503  12.428  0.0990 -0.2236  0.1494
22020W        W40224  15.168   1.356  14.510  0.1668  0.2413 -0.0430
22021W        W40225  10.986   2.959   0.278  0.2408  0.2271 -0.0512
22022W        W40226   1.752  10.153  12.550  0.1704  0.0841  0.0265
22023W        W40227  10.753   6.718  14.503 -0.3053 -0.2516 -0.0319
22024W        W40228   3.010  16.485  11.316 -0.0765 -0.0768 -0.3778
22025W        W40229  12.531  18.299  13.953 -0.4058  0.2738  0.1821
22026W        W40230   0.572   3.684  14.373  0.1392 -0.1102  0.1097
22027W        W40231   7.188   3.039   0.186  0.1347  0.1504  0.1311
22028W        W40232  11.935   3.814   1.109 -0.2320 -0.1424  0.3971
22029W        W40233   0.135  11.434   0.269  0.0441 -0.0416  0.0689
22030W        W40234   3.689  14.841  11.295 -0.3021  0.0703 -0.0136
22031W        W40235  17.922   7.666   1.561  0.1719 -0.1208 -0.2193
22032W        W40236   7.723  13.962  13.927 -0.0066  0.0384 -0.1116
22033W        W40237   4.688  17.059  11.672 -0.0368  0.1015  0.3858
22034W        W40238   4.775  10.196   1.986 -0.2167 -0.0052 -0.2097
22035W        W40239   2.355  15.251   0.427 -0.2370  0.0036  0.0531
22036W        W40240  12.559  13.518  12.347  0.2008 -0.1131  0.1264
22037W        W40241  15.620  13.777  12.839  0.3085 -0.0746  0.2612
22038W        W40242  18.296   7.841  14.328  0.0099 -0.0162 -0.1988
22039W        W40243  11.878   7.128   0.810  0.1739 -0.2201  0.1009
22040W        W40244   5.133   1.510  11.938 -0.0150  0.5106 -0.0360
22041W        W40245  13.246   2.658   3.369  0.3849 -0.3548  0.2359
22042W        W40246   9.444  11.931  11.494  0.0710 -0.2086 -0.0838
22043W        W40247  14.339  11.420  13.804 -0.3482 -0.1431  0.1207
22044W        W40248   7.788  12.068   0.022 -0.2109  0.0624  0.1204
22045W        W40249   9.964   7.510   3.332  0.2877  0.2518  0.0560
22046W        W40250  10.671  11.776   0.692 -0.1668 -0.0621  0.2719
22047W        W40251  15.198   2.675  10.781 -0.1735  0.0113 -0.1666
22048W        W40252   3.497   6.257   1.724  0.2206  0.1203 -0.0882
22049W        W40253  14.004   4.080  14.142  0.3137  0.1309 -0.0570
22050W        W40254   6.271   3.087   0.025 -0.2662  0.0598  0.1329
22051W        W40255   3.498  16.247  14.518  0.4245  0.0962 -0.3144
22052W        W40256   9.200  13.443  11.744 -0.2441  0.0846 -0.1750
22053W        W40257  10.211  16.477   2.775 -0.1858 -0.1290  0.0179
22054W        W40258  13.846  12.750  14.462  0.3996  0.1693  0.1469
22055W        W40259   4.910   0.911  12.574 -0.3588  0.1104  0.2504
22056W        W40260   5.194   3.517  11.966 -0.2894  0.3218  0.2994
22057W        W40261   3.569  11.792   2.366 -0.2165  0.3023 -0.2299
22058W        W40262  11.304  12.533  12.832  0.3001 -0.5324  0.2359
22059W        W40263   7.003   5.133   0.727 -0.3014 -0.2116 -0.0833
22060W        W40264  10.700   8.699   0.275  0.1113  0.1289  0.1451
22061W        W40265  17.138  14.851   2.769  0.0865 -0.2047  0.2449
22062W        W40266  13.993   9.930  11.873  0.0206  0.1834 -0.0156
22063W        W40267   4.503  18.563  10.632 -0.3293  0.2568  0.1258
22064W        W40268  15.001   7.595   0.952  0.3994  0.0912 -0.0026
22065W        W40269   5.436  15.832  14.021  0.0608  0.0956  0.2558
22066W        W40270  15.923   2.380   0.092  0.0539 -0.0179  0.5037
22067W        W40271  15.594  10.534  13.179 -0.0014 -0.0615  0.5354
22068W        W40272  14.236  17.281  10.018  0.0612 -0.3469 -0.1165
22069W        W40273  16.033   6.833  13.339  0.0413  0.3473 -0.1382
22070W        W40274  17.169   8.568  13.904  0.4315 -0.1838 -0.0188
22071W        W40275   4.295  18.250   4.714 -0.2618  0.0728 -0.1705
22072W        W40276   0.681   6.327   4.406 -0.2250 -0.0094 -0.1374
22073W        W40277  15.702   1.197  14.614 -0.0619  0.0032 -0.1564
22074W        W40278  15.597   2.457  14.091 -0.0065 -0.0708 -0.0307
22075W        W40279   2.361   0.256   4.596 -0.0680  0.4467  0.1187
22076W        W40280   0.581   6.751   3.316 -0.2577  0.2628 -0.0742
22077W        W40281   8.661   9.333   0.191 -0.0683 -0.0348  0.1852
22078W        W40282   3.592   8.081  12.861  0.1203  0.4386 -0.1619
22079W        W40283   4.598   0.872  12.202  0.0575 -0.0666  0.1534
22080W        W40284   9.225   5.791   0.058 -0.2700  0.2052 -0.1124
22081W        W40285  13.098   8.103   2.938 -0.1042  0.2340  0.2093
22082W        W40286  16.481   2.122  13.898  0.1407  0.1743 -0.3291
22083W        W40287   9.453  18.645   4.478  0.1415 -0.2641 -0.0342
22084W        W40288   5.046  14.675  12.630 -0.1272 -0.0859  0.0531
22085W        W40289   6.283  12.768   2.053 -0.2988  0.0401  0.3174
22086W        W40290  12.000   2.387  15.066  0.1743  0.0070 -0.2387
22087W        W40291  16.476  14.180  14.581  0.0326 -0.2344 -0.0079
22088W        W40292  18.346  12.987  11.182 -0.0489  0.1109 -0.0043
22089W        W40293   8.050  15.849   4.200 -0.3501  0.0277 -0.1367
22090W        W40294  14.213   8.565   1.253  0.0130 -0.1132  0.3763
22091W        W40295   9.941  16.771  13.843  0.1038  0.2170 -0.1211
22092W        W40296   4.651  11.351   4.318 -0.1020 -0.4537  0.0219
22093W        W40297  12.194  11.271   4.227 -0.2079 -0.2981 -0.0692
22094W        W40298   7.511   4.675   1.809 -0.3244 -0.1670 -0.2261
22095W        W40299   5.849   6.053  11.458  0.1016  0.0299  0.1902
22096W        W40300   1.283  16.423   1.407 -0.3406 -0.1679 -0.1582
22097W        W40301  11.932  10.461  14.493 -0.0594 -0.1661  0.2704
22098W        W40302  14.852  17.839   4.802  0.0757  0.0233 -0.0684
22099W        W40303   4.481  14.422  14.956  0.4161  0.0756  0.2513
22100W        W40304   6.151   2.844  11.908 -0.0966 -0.0391 -0.0470
22101W        W40305   2.775  14.150   3.735  0.0961  0.2566  0.0216
22102W        W40306   3.391  10.592   2.885  0.2508  0.1047 -0.2307
22103W        W40307   1.556  17.971  10.942 -0.1066 -0.0746 -0.0831
22104W        W40308   6.049  13.129   0.130 -0.1633 -0.1735 -0.1203
22105W        W40309   4.852  15.746   1.905  0.1837  0.1886 -0.4099
22106W        W40310  16.369  13.236  14.891 -0.2007  0.0462 -0.2254
22107W        W40311   8.897  11.591   2.371  0.0199  0.2167  0.0995
22108W        W40312  10.539  15.540   1.979 -0.2577 -0.1500  0.3441
22109W        W40313   7.522  11.070   1.028  0.2460  0.2134  0.1051
22110W        W40314  16.361  12.787  15.155  0.0461 -0.3327  0.1788
22111W        W40315   6.597  16.834   2.517 -0.1537  0.0786  0.1801
22112W        W40316  17.639   9.131   4.982  0.1876  0.0300  0.0764
22113W        W40317   4.161   9.044  12.571 -0.2089 -0.2313 -0.3104
22114W        W40318   7.025  18.360  14.149  0.2819 -0.2927  0.1847
22115W        W40319   8.466   4.393  15.063 -0.0566  0.0427  0.1193
22116W        W40320   5.729  16.595   4.062  0.0061  0.0329  0.1203
22117W        W40321   8.996   0.589  14.972 -0.2837  0.3869  0.1045
22118W        W40322   9.089  11.225  13.821 -0.1210 -0.1341 -0.1325
22119W        W40323  18.555   5.368  13.069  0.0761 -0.1000  0.2206
22120W        W40324   6.913  12.579   2.969  0.0351  0.0111 -0.0747
22121W        W40325  11.947  15.159   0.771  0.1734  0.3435  0.1465
22122W        W40326   5.993  11.223   4.150 -0.5645 -0.0133  0.2947
22123W        W40327   5.746  11.160  11.125 -0.1076 -0.1794  0.0506
22124W        W40328   0.306  12.312  14.331  0.1906  0.4007  0.0275
22125W        W40329  15.273   6.682   2.954  0.1080 -0.0557  0.2613
22126W        W40330   9.316   0.376   2.009 -0.2737 -0.3130 -0.0649
22127W        W40331  18.071   9.657   4.189  0.1687 -0.0840  0.0028
22128W        W40332   0.992   5.833   0.584 -0.2305  0.6496 -0.1922
22129W        W40333  14.021   8.849  14.929  0.5018 -0.0510 -0.0178
22130W        W40334   9.362  14.840  13.889  0.0394  0.0005 -0.1463
22131W        W40335  15.370   3.275   2.079 -0.2190  0.2167 -0.2065
22132W        W40336   8.990  15.647  12.491 -0.0767  0.2088 -0.1292
22133W        W40337  16.260  16.794  13.475 -0.2023  0.0433 -0.1462
22134W        W40338   1.230   2.791  14.288  0.1956  0.0574  0.0968
22135W        W40339  15.909   4.192   1.658  0.0734 -0.2231  0.3371
22136W        W40340   9.232   2.178  14.690 -0.2036 -0.0826 -0.1811
22137W        W40341   3.597  11.233  12.782  0.2242  0.4221  0.0397
22138W        W40342   9.149   0.111  13.039 -0.2219 -0.1317 -0.0279
22139W        W40343  13.368   1.410  11.186 -0.3980 -0.0290  0.2523
22140W        W40344  10.206   7.713   0.812  0.0191 -0.1579 -0.2677
22141W        W40345   4.175  15.097  12.130 -0.1512  0.1079 -0.0792
22142W        W40346  14.370  17.443   3.570  0.1774  0.1220 -0.0167
22143W        W40347   7.970   7.199  12.423 -0.1618 -0.1645 -0.2005
22144W        W40348  15.745   4.123  14.130 -0.0533  0.1418  0.2939
22145W        W40349   2.778  11.374  14.649  0.0810  0.0365  0.3386
22146W        W40350   2.873  16.068   4.355 -0.1339 -0.0777  0.0888
22147W        W40351  14.900   6.927  11.931  0.0849 -0.0414  0.3201
22148W        W40352   8.896   5.927   1.992 -0.0959  0.1871  0.1056
22149W        W40353   5.681  11.245   0.846 -0.0118  0.4936  0.0003
22150W        W40354  16.207  12.114  11.883  0.0311  0.1003  0.1617
22151W        W40355  16.633   3.127  13.825 -0.3679  0.0517 -0.1041
22152W        W40356   1.541   7.043   4.776  0.3158 -0.1486 -0.3231
22153W        W40357  10.388   0.619  13.996 -0.1275 -0.2075  0.1342
22154W        W40358  14.212   2.988   0.755  0.1330  0.2558  0.1792
22155W        W40359  17.053  17.585  14.720  0.0194 -0.0763 -0.0758
22156W        W40360   2.952  17.222  14.939  0.2636 -0.0683 -0.1749
22157W        W40361  16.950   9.917  12.889 -0.2521 -0.0400 -0.2926
22158W        W40362  13.043   5.851  12.020 -0.5180 -0.1678 -0.2264
22159W        W40363   4.870  11.218   3.855  0.1541  0.1418 -0.3017
22160W        W40364   6.150   3.354  14.834  0.2657 -0.1432  0.1781
22161W        W40365  16.495  13.401  11.360  0.1276 -0.1984 -0.1152
22162W        W40366   5.349  13.137   3.148  0.2071 -0.2013  0.0948
22163W        W40367   1.028   4.074   3.551  0.1462 -0.1546  0.4422
22164W        W40368  16.091   1.070   2.392  0.0419  0.1591 -0.0530
22165W        W40369   8.798  13.804   2.675 -0.0218 -0.1938  0.0814
22166W        W40370   9.074  18.154   2.411 -0.2112 -0.2915  0.3377
22167W        W40371   5.810  11.643   1.506  0.4572 -0.0316 -0.1227
22168W        W40372  17.057  15.339   2.886 -0.3373 -0.0115 -0.0640
22169W        W40373  10.371   0.924  11.648 -0.2578 -0.0672  0.0614
22170W        W40374   9.291  16.655   2.456  0.3558 -0.2995  0.0957
22171W        W40375   2.087   7.873   2.086 -0.0860 -0.0927 -0.1325
22172W        W40376   0.374  17.759   1.918  0.2750  0.1013  0.0302
22173W        W40377   2.122  14.498  12.596  0.2514 -0.0922 -0.4725
22174W        W40378  11.987   1.226  10.951  0.3953  0.1995 -0.3391
22175W        W40379   0.786   8.364   1.365  0.0637  0.0876 -0.1682
22176W        W40380  12.432   7.888  14.017  0.1542  0.0815 -0.2526
22177W        W40381  10.683   7.086   2.810 -0.2497 -0.1911 -0.1770
22178W        W40382  12.731  17.988   0.737  0.2477  0.2045 -0.1805
22179W        W40383   6.176   6.404   3.890  0.0201 -0.0974 -0.2560
22180W        W40384  12.581  12.430   3.298  0.3545 -0.0533 -0.1662
22181W        W40385  12.047  18.616  10.923  0.2956 -0.0023 -0.4169
22182W        W40386  16.362   8.298   0.741  0.2142 -0.0187  0.0186
22183W        W40387  14.878   7.648   2.422 -0.2093 -0.3280 -0.2046
22184W        W40388   2.128  17.995   1.491  0.2265 -0.1669 -0.1968
22185W        W40389   5.984   6.398  12.414 -0.1856 -0.0025  0.1203
22186W        W40390  14.875  12.064   3.609  0.0646 -0.0536 -0.0157
22187W        W40391  16.387   5.874   3.401  0.1839 -0.3424 -0.0334
22188W        W40392   4.693  12.346   1.409 -0.0659 -0.0469 -0.0021
22189W        W40393   2.593   5.178  13.488 -0.1128 -0.1625 -0.0098
22190W        W40394  11.865  10.942  14.208  0.2423  0.1346  0.0582
22191W        W40395  18.552   6.939  14.093 -0.1471  0.2021 -0.0279
22192W        W40396  17.645   9.260   2.404 -0.0046 -0.0372 -0.0012
22193W        W40397   5.396   5.360  12.731 -0.1192  0.1777  0.0868
22194W        W40398   5.671   9.966  11.105  0.1713 -0.1808  0.0402
22195W        W40399  12.723   6.577  14.192 -0.1232 -0.0770  0.0022
22196W        W40400  17.778   6.165  12.303 -0.0447 -0.3110 -0.0421
22197W        W40401   9.142  18.191  15.345 -0.0959  0.0613  0.0165
22198W        W40402   3.277   0.908   1.848 -0.2992 -0.1774  0.0027
22199W        W40403  14.598  15.595   4.058  0.0341  0.1382 -0.0542
22200W        W40404   9.723   4.987  12.668 -0.3444 -0.0973  0.1866
22201W        W40405   2.795   3.547  12.996  0.2293 -0.1278 -0.2914
22202W        W40406  15.953   0.491   0.030  0.2485  0.0094  0.5095
22203W        W40407   6.522  16.813  14.463  0.1408  0.1459  0.2829
22204W        W40408  13.280   3.948  14.649  0.1257  0.3367 -0.1512
22205W        W40409  17.119  14.471   1.079 -0.1781  0.2619  0.1886
22206W        W40410  18.453  17.102   4.404 -0.3113 -0.1438 -0.0968
22207W        W40411   0.614  11.311  13.907 -0.2002  0.1131  0.2005
22208W        W40412   5.036  18.029   4.182 -0.2124  0.2037 -0.1341
22209W        W40413  13.530   3.378  14.065  0.1750 -0.0640  0.0210
22210W        W40414   9.731  13.882   2.283  0.0504  0.1088 -0.0190
22211W        W40415   0.210   3.974  14.233  0.1534  0.2044 -0.0737
22212W        W40416   7.125  14.038   1.806  0.2376 -0.1468  0.2507
22213W        W40417  15.806   1.092   4.660  0.1561  0.0386 -0.0643
22214W        W40418   1.467   2.105   2.202  0.0365 -0.1352  0.0494
22215W        W40419  11.964  11.365   4.756 -0.0324  0.0463 -0.1037
22216W        W40420  16.955  17.059   0.540 -0.1824 -0.0615 -0.0035
22217W        W40421  16.286  15.034  12.694 -0.1045 -0.1123 -0.3120
22218W        W40422  15.046  14.380  11.959 -0.0795  0.1384 -0.0983
22219W        W40423  12.354   3.961   0.749 -0.0355 -0.2048  0.6591
22220W        W40424  13.879  15.376   2.849  0.0586 -0.0376  0.0232
22221W        W40425   8.027  17.644  11.347  0.1889 -0.1291  0.1569
22222W        W40426   9.333  11.032   0.558  0.2556 -0.3136  0.0251
22223W        W40427   5.074   4.715   4.119 -0.4026  0.3271  0.0371
22224W        W40428   5.454   9.480  13.040  0.2016 -0.0275 -0.2823
22225W        W40429  16.521   4.424  12.019 -0.2155 -0.0489 -0.2090
22226W        W40430  18.579  11.156   4.288 -0.4092 -0.1917 -0.0271
22227W        W40431  16.093  10.527   3.644 -0.2722  0.1463  0.5549
22228W        W40432  12.655  16.830  12.385 -0.0051  0.1581  0.0611
22229W        W40433   4.575  13.492  14.701  0.3520  0.2945 -0.0518
22230W        W40434  11.753   8.498  14.949 -0.0783 -0.0161  0.2350
22231W        W40435   0.600  15.318   1.522  0.1239  0.2205  0.0895
22232W        W40436   4.453   7.775  15.084 -0.1350 -0.0200 -0.0185
22233W        W40437   9.682   3.467   3.667 -0.1013  0.2685  0.1541
22234W        W40438  17.198   4.934  13.062 -0.2491  0.1357 -0.1816
22235W        W40439  11.510  15.089  14.175  0.1983 -0.2758 -0.1947
22236W        W40440   6.692  17.122   1.577  0.0920  0.3241 -0.1901
22237W        W40441   6.438  14.322  10.936 -0.1309 -0.2797  0.2190
22238W        W40442   5.868  14.346   2.137  0.0744 -0.0377 -0.1586
22239W        W40443  11.020  11.646   2.382 -0.1148  0.0394  0.0005
22240W        W40444   4.314  12.651   1.022 -0.0818 -0.0133 -0.1269
22241W        W40445   8.294  18.352  14.056 -0.0612 -0.1480  0.0342
22242W        W40446  18.127   6.580  11.471  0.0329  0.2947 -0.2286
22243W        W40447   9.321  16.970  11.537  0.0291  0.1205  0.3535
22244W        W40448   8.322  13.141   3.269 -0.0266 -0.0584 -0.0392
22245W        W40449   5.526   1.235   3.842 -0.0542 -0.1624 -0.1511
22246W        W40450   3.708   5.739  14.363  0.1852  0.2927 -0.2039
22247W        W40451   0.303  10.315   3.020  0.0319  0.0698  0.2958
22248W        W40452  11.132   0.996  13.928 -0.2004  0.0071 -0.2292
22249W        W40453  13.432   7.694  12.240  0.2263 -0.2633  0.0807
22250W        W40454  10.033   2.170   1.333  0.3949  0.2922  0.0804
22251W        W40455  16.581  17.450   4.659  0.3583  0.2458 -0.0091
22252W        W40456  16.990   7.192   1.114  0.2172  0.2267  0.0134
22253W        W40457  13.989   5.376   4.772 -0.0950  0.1180  0.3632
22254W        W40458  14.962   9.863   3.066 -0.0450  0.0078  0.0392
22255W        W40459  17.142  16.745  11.199 -0.3121 -0.3789  0.0371
22256W        W40460  17.646  13.792  12.061  0.2557 -0.3845  0.1963
22257W        W40461  13.741   5.355  10.733  0.0704 -0.1518 -0.1339
22258W        W40462   7.633  12.290   4.877 -0.0415 -0.2963  0.0798
22259W        W40463  15.224   7.703   0.434 -0.0266 -0.0709  0.0608
22260W        W40464  11.862   4.067  12.871 -0.0011  0.3050  0.2637
22261W        W40465  13.691  13.474   2.280  0.0477 -0.2451 -0.2226
22262W        W40466   3.533  12.667  11.467  0.1151  0.1249 -0.0288
22263W        W40467  13.498  17.459   9.573  0.1475 -0.1254 -0.1022
22264W        W40468  13.111  15.724   4.324  0.0257 -0.0981  0.0535
22265W        W40469  13.889   1.432   0.024  0.1171 -0.0161  0.2196
22266W        W40470  11.912   5.287  13.535  0.2637 -0.2675 -0.1014
22267W        W40471   0.026   6.760   3.306  0.0049 -0.2130  0.0396
22268W        W40472  11.053   2.423  14.938 -0.0548  0.3152 -0.0614
22269W        W40473   0.475  14.208   4.227 -0.0644 -0.0466  0.0454
22270W        W40474  14.181   2.267   2.159  0.3212  0.3281  0.1273
22271W        W40475   7.385  14.688   4.044  0.0599  0.1593  0.3237
22272W        W40476   0.974   0.975   1.677  0.2517 -0.0855 -0.0245
22273W        W40477   2.094   9.589   2.640 -0.1021 -0.1474  0.3679
22274W        W40478  15.821   1.476   1.338 -0.2479 -0.0336  0.0054
22275W        W40479  17.249   0.965   0.253 -0.1080  0.0824  0.1942
22276W        W40480  15.691  15.812  12.603 -0.0146  0.0824 -0.2056
22277W        W40481   7.148   3.061  12.013  0.1257  0.0803  0.2235
22278W        W40482   3.186   2.039  10.777 -0.2855  0.1737  0.0178
22279W        W40483   0.540   0.480  15.105  0.0165 -0.2731  0.0312
22280W        W40484   8.927  16.504   2.721 -0.1814  0.0754 -0.2494
22281W        W40485   5.723   2.003   2.731 -0.0346 -0.0225  0.0158
22282W        W40486   1.918   6.417   4.579  0.0266 -0.0352 -0.2610
22283W        W40487   2.070  17.731  10.952  0.1208  0.0438  0.1687
22284W        W40488  14.847   4.380   2.020  0.0197  0.1094  0.0292
22285W        W40489   8.916  17.381   9.358  0.2487 -0.0455 -0.3912
22286W        W40490  16.845  15.127  13.421  0.1740 -0.0388 -0.0618
22287W        W40491   4.238   5.879  12.660  0.2286 -0.3609  0.0997
22288W        W40492  17.756  17.434   2.796 -0.3976  0.0399 -0.1441
22289W        W40493  18.627  14.566   5.284  0.0896 -0.1356  0.1332
22290W        W40494   2.630   0.238  15.392 -0.0151  0.0268 -0.2243
22291W        W40495   9.804  17.090  11.690  0.3475 -0.2322  0.0755
22292W        W40496  10.391   0.282  11.621 -0.2454 -0.1843 -0.0613
22293W        W40497   6.480  12.219  10.539  0.1005 -0.0320  0.1930
22294W        W40498   1.273  12.845  13.658 -0.2824  0.1916 -0.2422
22295W        W40499  18.445   9.450   2.058 -0.1643 -0.1936 -0.1937
22296W        W40500  18.132  16.363   2.616  0.0739 -0.0249  0.2375
22297W        W40501  11.136   6.255  10.090  0.0350 -0.0857 -0.2151
22298W        W40502   7.981  14.609   1.542  0.0583  0.0720 -0.1482
22299W        W40503  16.716  12.927  14.702  0.0108 -0.2181 -0.0263
22300W        W40504   4.052   4.882   1.904 -0.1028 -0.0653 -0.0295
22301W        W40505  11.698   1.399   1.628 -0.1395  0.0520 -0.1629
22302W        W40506   6.164  17.418  12.646  0.2335  0.0021 -0.2458
22303W        W40507   1.453  12.422   2.791 -0.1947 -0.1645  0.2642
22304W        W40508   2.999   7.731  13.547 -0.0784 -0.1728  0.4187
22305W        W40509   7.122   8.954  15.028 -0.0410  0.0449  0.1261
22306W        W40510  18.092  17.278  13.129  0.4066  0.1251 -0.0834
22307W        W40511  11.772   9.307  10.323 -0.0108  0.1523  0.2507
22308W        W40512  16.043  10.659   5.115  0.0206  0.0356 -0.2232
22309W        W40513  15.276   8.142  12.497 -0.2089 -0.0683 -0.0788
22310W        W40514   8.776  17.413   1.154  0.0576 -0.0237 -0.0569
22311W        W40515  13.688   7.920  12.643  0.0487  0.0055 -0.0410
22312W        W40516  16.786   2.106  12.660 -0.1584 -0.0572 -0.2993
22313W        W40517  10.524   5.033  12.272  0.1689  0.0634 -0.2540
22314W        W40518   0.860   8.322  11.110 -0.0595  0.1950  0.2681
22315W        W40519   3.195  11.078  11.963 -0.2264  0.0375  0.0008
22316W        W40520   2.231   0.666  13.586  0.0422 -0.0096 -0.0241
22317W        W40521   0.670   9.956  13.403 -0.1481 -0.1514  0.1302
22318W        W40522  16.796  14.158  11.977  0.0539  0.0349  0.1611
22319W        W40523   1.632  11.742  10.666 -0.1513 -0.2042  0.3171
22320W        W40524   8.976  14.765  13.572 -0.2925 -0.1493 -0.2178
22321W        W40525   1.675   0.855   2.828 -0.1411 -0.4461 -0.0737
22322W        W40526  16.208   1.989   0.329 -0.0672 -0.1208 -0.0542
22323W        W40527  17.377  18.211  13.195 -0.3009  0.0886 -0.4947
22324W        W40528   6.836   2.450  14.383  0.1543  0.1973 -0.1810
22325W        W40529  16.414   6.081  13.731  0.0006 -0.2159 -0.1630
22326W        W40530   2.742  14.203   0.993  0.1934 -0.1726 -0.3752
22327W        W40531   4.923   4.223  13.823 -0.2654 -0.1050  0.0494
22328W        W40532  18.692   5.006  14.412  0.1434  0.0688  0.1612
22329W        W40533   4.158  13.105  14.582  0.1761  0.0530 -0.0882
22330W        W40534  13.867   9.755   0.072  0.0516 -0.0326 -0.6694
22331W        W40535   2.021  13.820   5.052  0.1577 -0.0226  0.0683
22332W        W40536  13.336  17.046   3.852 -0.1240  0.0784  0.1583
22333W        W40537   8.832  17.685  15.140 -0.1555  0.1934 -0.0238
22334W        W40538   3.769   9.276   3.936 -0.2745  0.5370  0.1967
22335W        W40539  13.441   7.571  14.778  0.3672  0.3182 -0.1772
22336W        W40540  11.161  11.255  15.409  0.0568  0.2771  0.0723
22337W        W40541   0.038  14.693  11.099 -0.1444 -0.2722 -0.2523
22338W        W40542  10.110   6.140  10.161  0.0475  0.0307  0.1399
22339W        W40543   3.141   3.809  11.108 -0.0143  0.1683  0.3764
22340W        W40544  10.418  13.384   0.452  0.1251 -0.0075 -0.1377
22341W        W40545  13.432  12.267   2.301 -0.2181  0.0039 -0.0959
22342W        W40546   2.531  13.429   4.368  0.3839  0.1711 -0.1683
22343W        W40547   3.292   6.899  13.756 -0.2490  0.1470 -0.4642
22344W        W40548  17.893  16.091   1.519  0.2397  0.1562 -0.2140
22345W        W40549  13.141   2.627  10.659 -0.1415  0.0406 -0.1843
22346W        W40550  10.153   5.956   2.096 -0.0833 -0.0564  0.1622
22347W        W40551  12.691  17.705   1.786  0.1710  0.2228 -0.0953
22348W        W40552   3.177  14.760  10.528  0.2758 -0.1784  0.0315
22349W        W40553  14.145  16.569   2.588 -0.0364  0.1562 -0.1087
22350W        W40554   0.758   7.243  14.544  0.0566  0.0480 -0.0238
22351W        W40555  12.761   9.336   2.505  0.0032 -0.1963  0.2915
22352W        W40556  16.371  10.956   0.624 -0.0806 -0.1419 -0.1165
22353W        W40557  12.628  18.494  14.399 -0.0484 -0.3091 -0.3239
22354W        W40558  18.187   3.195   2.083  0.1232 -0.3260  0.2663
22355W        W40559  14.160   9.339   4.457 -0.1907  0.0579  0.1898
22356W        W40560   2.665  18.001  14.184  0.2544 -0.0974 -0.2568
22357W        W40561   8.440  13.932  11.484  0.0554 -0.3581 -0.0452
22358W        W40562   1.939  14.916  11.286 -0.0073  0.2160  0.3315
22359W        W40563  12.468  17.745  14.859 -0.2788 -0.2532  0.1849
22360W        W40564   1.756  18.243   4.772  0.1856  0.1857 -0.0451
22361W        W40565   3.716  12.998   1.930  0.0899  0.2067  0.0129
22362W        W40566   6.720   6.237   4.027  0.2235  0.0890  0.1528
22363W        W40567   8.481   4.207  13.722 -0.3051  0.3623  0.0010
22364W        W40568  16.185  10.442  12.682  0.3197  0.1377 -0.0316
22365W        W40569  13.937   3.675  13.863  0.0654 -0.0506 -0.3220
22366W        W40570   0.866   9.204  12.498 -0.2217  0.2462 -0.0457
22367W        W40571   0.459  13.048  11.083  0.5274  0.2104 -0.0025
22368W        W40572   8.974  17.055   2.970  0.2345 -0.3176 -0.1072
22369W        W40573   4.060   5.645  13.108 -0.1008  0.0173  0.0220
22370W        W40574  11.598   7.248   3.365  0.0425 -0.1266  0.1247
22371W        W40575   6.618  11.943  14.585 -0.1299  0.0743  0.1470
22372W        W40576  11.220  16.405   3.124  0.1928 -0.1527 -0.0416
22373W        W40577  15.141   2.394   1.846  0.0274  0.2926 -0.4042
22374W        W40578   1.592   0.690   3.721  0.1243 -0.0398 -0.0256
22375W        W40579  14.232   1.791  12.348  0.0003 -0.1541 -0.1125
22376W        W40580   7.713  15.978  12.165  0.0875 -0.0744 -0.1474
22377W        W40581   5.842  18.568   3.260 -0.0292 -0.1069  0.0147
22378W        W40582  17.270   7.174  15.194  0.1552  0.0392 -0.0648
22379W        W40583   9.917   9.577   3.044  0.5869 -0.1705 -0.1789
22380W        W40584   8.149   2.530  13.413 -0.2988  0.0200 -0.1050
22381W        W40585   3.885  16.630   3.454  0.0163 -0.1093  0.2883
22382W        W40586   7.816  16.932   0.623  0.2229  0.0751 -0.0047
22383W        W40587  11.065  16.629  12.767 -0.2610  0.0520  0.1587
22384W        W40588   6.212   7.594   0.270  0.1011 -0.3315  0.0229
22385W        W40589   2.746   2.673  12.454  0.1142  0.0237 -0.0914
22386W        W40590   8.325  16.230  13.274  0.0061 -0.0903 -0.2765
22387W        W40591   1.898  14.524  15.139  0.0340  0.2852  0.0437
22388W        W40592   9.419   2.989  15.225 -0.0420  0.0963  0.2546
22389W        W40593   2.383   1.471   1.933 -0.0565  0.0067  0.0273
22390W        W40594  16.660   0.072   1.599 -0.0631  0.0598 -0.0280
22391W        W40595  14.124   8.539  14.176 -0.2270 -0.1339 -0.1576
22392W        W40596  17.635  15.810   0.122  0.1667  0.1717 -0.2511
22393W        W40597   9.980   9.103  11.857 -0.1749 -0.1139 -0.1508
22394W        W40598   7.025  16.894  14.342  0.2192  0.1337 -0.1001
22395W        W40599  16.559   5.470   4.847 -0.0491 -0.2777 -0.0891
22396W        W40600   0.215   9.216  14.239 -0.2386  0.2380 -0.0673
22397W        W40601   8.279   5.913   2.360 -0.2781 -0.0657 -0.3398
22398W        W40602  14.625   0.305  15.175  0.1028  0.0884 -0.1664
22399W        W40603  13.658   8.170   4.887  0.2696 -0.2437 -0.0167
22400W        W40604   0.893  13.602   1.096  0.0731 -0.1751 -0.0206
22401W        W40605   5.596   1.433   3.305  0.3727 -0.0408 -0.5336
22402W        W40606   3.205  17.696  14.188 -0.1348  0.1036  0.4247
22403W        W40607  10.553  15.909  14.083 -0.1704 -0.0331 -0.0378
22404W        W40608   4.643   6.245   3.007  0.1407 -0.0974 -0.0057
22405W        W40609  13.403  11.387   4.050  0.1227 -0.1762 -0.0310
22406W        W40610  10.931   5.485  13.477 -0.1269 -0.0558  0.1674
22407W        W40611   9.151   5.286  13.760  0.3154 -0.3824  0.1043
22408W        W40612   1.758  11.993  14.006  0.2626 -0.1742 -0.1278
22409W        W40613   2.052  17.798   4.601  0.0785  0.0069  0.0031
22410W        W40614  12.382  10.965  11.300 -0.0863  0.0702  0.0742
22411W        W40615  18.405   4.738   1.836  0.1748 -0.0057 -0.0093
22412W        W40616   6.001   4.706  14.199 -0.1771 -0.0030 -0.1448
22413W        W40617   0.373  12.854  13.812  0.0892  0.0777  0.0752
22414W        W40618   7.672  11.032   3.736  0.1189 -0.0172 -0.0174
22415W        W40619   2.998   1.502   1.210  0.1858  0.2038  0.0226
22416W        W40620   2.901   5.243   3.948  0.0086 -0.0633 -0.1066
22417W        W40621   8.337  11.110   2.880  0.0208 -0.0731 -0.4667
22418W        W40622   7.268   3.984  11.729  0.0694 -0.0765  0.1743
22419W        W40623  12.585   0.226  12.828 -0.1645 -0.1193  0.0984
22420W        W40624   9.716   9.353  12.314 -0.1280 -0.1008  0.0778
22421W        W40625   0.439  11.815  14.230 -0.4250  0.2830  0.0016
22422W        W40626   8.553   6.163  12.895 -0.0350 -0.1637 -0.2479
22423W        W40627   4.139   8.870   3.181 -0.0544  0.1851  0.1905
22424W        W40628   8.735   1.287  12.612  0.0755 -0.0266 -0.1430
22425W        W40629  11.946  13.350  13.105 -0.0575  0.0616 -0.0038
22426W        W40630   0.463  14.416   1.250  0.0190  0.0128  0.0389
22427W        W40631   2.650   2.437   5.723 -0.3933  0.0030 -0.4890
22428W        W40632  11.825   0.328  13.683 -0.1762 -0.0472  0.0286
22429W        W40633  18.135   3.322  15.434  0.0604 -0.2253  0.0876
22430W        W40634  10.429  10.227  11.250 -0.2707 -0.1129  0.0173
22431W        W40635  10.591  17.518   3.853 -0.0851 -0.1142 -0.1509
22432W        W40636  17.796   4.260  12.750 -0.3703  0.0878 -0.2675
22433W        W40637  17.285   2.103   0.435 -0.2940  0.4396 -0.2971
22434W        W40638  12.444  16.633  14.511 -0.1169 -0.1379 -0.5005
22435W        W40639   1.157  15.059   1.912  0.0360  0.2132 -0.2269
22436W        W40640  16.718   5.329  11.869  0.0024 -0.3334  0.0498
22437W        W40641   5.526   7.884  13.679  0.1665 -0.0195 -0.0797
22438W        W40642  17.639   4.994   3.076 -0.1656  0.0133  0.2820
22439W        W40643   9.252   3.769  12.848  0.0838 -0.1010  0.1131
22440W        W40644  13.596  16.558  12.717 -0.1664 -0.2303 -0.1043
22441W        W40645   8.721  12.557   2.882 -0.1706  0.2563 -0.2961
22442W        W40646  17.409  13.581  13.779  0.1443 -0.5353 -0.0440
22443W        W40647  10.086  14.696  11.560  0.0314  0.1771  0.3185
22444W        W40648  12.972   2.194  10.739 -0.0423 -0.1268  0.2538
22445W        W40649   0.999   0.259  13.905 -0.0031  0.0201 -0.2968
22446W        W40650  14.642   6.882   0.097  0.0015 -0.0558 -0.1071
22447W        W40651   1.754   7.154   3.432 -0.0322 -0.2468 -0.1299
22448W        W40652   1.649  14.813  10.541 -0.1543  0.0557 -0.0359
22449W        W40653  13.385   6.922  14.415 -0.3562 -0.0049  0.0884
22450W        W40654   9.880  14.659  13.095  0.0622 -0.0123  0.1847
22451W        W40655  15.531   1.578  15.318  0.2996  0.1256  0.2728
22452W        W40656  12.618  14.054   2.771  0.0596 -0.2260 -0.4577
22453W        W40657  10.674   9.292   1.903  0.3406 -0.1289 -0.2838
22454W        W40658  11.415  16.187  12.729 -0.2308  0.3684  0.1872
22455W        W40659   6.172  13.092  12.068  0.2174  0.2017  0.3308
22456W        W40660  13.906  12.977  12.425  0.1678  0.0843  0.0805
22457W        W40661  16.418  18.300  10.543  0.3269  0.1362 -0.1315
22458W        W40662   1.859   8.697   0.384  0.0512 -0.1608  0.0646
22459W        W40663   8.596  11.121  10.943 -0.0398  0.1946  0.2636
22460W        W40664  14.022   0.650  14.925  0.0023 -0.1755 -0.1749
22461W        W40665   7.930   5.691  15.264  0.2037 -0.3349  0.0986
22462W        W40666  12.147  15.546   1.972 -0.1796 -0.2003 -0.2947
22463W        W40667  17.507   1.323  12.840 -0.0606 -0.1298  0.3785
22464W        W40668   4.530  10.910  13.834 -0.2992  0.3330 -0.1849
22465W        W40669  17.104  14.563   4.037  0.3484  0.2541 -0.0865
22466W        W40670  13.250   7.029  14.890  0.3718 -0.1371  0.0435
22467W        W40671   3.250   6.086   3.610 -0.1361  0.0657 -0.0748
22468W        W40672  15.592   0.040   3.015 -0.0863  0.2766 -0.0360
22469W        W40673  14.886   1.423  11.606  0.1850  0.2289 -0.3214
22470W        W40674   2.129   0.098  11.896 -0.0561  0.1950 -0.2903
22471W        W40675  11.635   2.982   3.149 -0.1053 -0.1332  0.2275
22472W        W40676   3.412  11.068   3.048  0.0687 -0.1874 -0.0981
22473W        W40677   9.032   7.380  14.399 -0.2582 -0.2191 -0.1917
22474W        W40678  13.198  10.090  12.957 -0.1296  0.0619 -0.0677
22475W        W40679  15.165  11.894  11.482 -0.0246  0.0184 -0.0838
22476W        W40680   6.868   0.467  14.692 -0.0933  0.3435 -0.1842
22477W        W40681   0.878   3.867  14.862  0.1334  0.1510 -0.3042
22478W        W40682   8.762   2.690   3.172 -0.0018 -0.0663  0.0093
22479W        W40683   6.305   1.273  14.505  0.1575 -0.1548 -0.0846
22480W        W40684   0.822  10.731  13.111 -0.1862  0.0532 -0.4722
22481W        W40685   1.145  17.325  12.456  0.0534  0.1326 -0.1366
22482W        W40686   6.346   7.162  13.303 -0.3517 -0.3837 -0.2420
22483W        W40687   5.336   5.214  14.767 -0.2022  0.3380 -0.0786
22484W        W40688   0.472  13.886  12.654 -0.0267 -0.2515  0.1092
22485W        W40689   8.276  12.882   1.785  0.0318  0.5364  0.1121
22486W        W40690   6.972   3.546   2.889 -0.0279  0.2088  0.0858
22487W        W40691  14.842   4.258   3.077 -0.1627  0.0427  0.1190
22488W        W40692   2.572   7.296   2.720  0.4227  0.2073 -0.3450
22489W        W40693  11.062  18.362   3.184  0.4066 -0.0066  0.1625
22490W        W40694   0.834  18.625   1.995  0.0149  0.2903  0.2315
22491W        W40695   1.413  13.669   1.790 -0.3192  0.3384  0.2420
22492W        W40696   4.817  17.906   1.504  0.1018 -0.0265 -0.0507
22493W        W40697  15.422  12.881  14.369  0.4312  0.0755 -0.0558
22494W        W40698  15.417   9.195   0.450  0.1356  0.3412  0.0508
22495W        W40699  14.036   0.071  12.065 -0.1775 -0.0515  0.0645
22496W        W40700  11.134  15.561   1.967 -0.4870 -0.0751  0.1090
22497W        W40701  15.203   0.634   5.092 -0.0121 -0.1556  0.0552
22498W        W40702   8.157  18.327   9.739  0.4352  0.1639 -0.0533
22499W        W40703   3.381   2.451   0.273 -0.0479 -0.0492  0.1090
22500W        W40704   0.200   0.816  12.152 -0.0065  0.2637 -0.1830
22501W        W40705   9.613  13.145   1.586 -0.1134  0.1964  0.1014
22502W        W40706   6.196   6.964  12.363  0.0404  0.0253 -0.0703
22503W        W40707   9.431  16.138  13.560 -0.1128  0.2565 -0.2516
22504W        W40708   3.380   1.037   3.699  0.1217  0.0191 -0.0490
22505W        W40709   6.974   4.493   1.305 -0.0805 -0.1299 -0.0900
22506W        W40710   6.659   5.065  12.937 -0.2756 -0.0335  0.0829
22507W        W40711  14.968   7.912   1.592  0.0630 -0.1955 -0.0877
22508W        W40712  11.696  11.675  14.779 -0.1276 -0.0260  0.0526
22509W        W40713  14.838  16.532   0.275  0.1408  0.0865 -0.0170
22510W        W40714  14.667  13.692   0.493 -0.2470  0.1985  0.2163
22511W        W40715   6.665   1.925  13.611  0.4211  0.1678  0.1818
22512W        W40716   4.044  16.866   1.828  0.1324  0.2309  0.2653
22513W        W40717  15.856   3.820  11.874 -0.1529  0.1303  0.3542
22514W        W40718  11.046   0.630   3.703  0.1383  0.1144  0.2379
22515W        W40719  18.443   5.937  12.734 -0.1501  0.0439 -0.3954
22516W        W40720   8.805  16.042   2.325  0.0079  0.1129 -0.2936
22517W        W40721   4.742   5.373   2.725 -0.1286 -0.0520 -0.4226
22518W        W40722   9.566  11.417   3.063  0.1190  0.1369 -0.0866
22519W        W40723  13.242   4.399  14.810  0.1276 -0.2457 -0.0408
22520W        W40724   9.999  10.777   1.256  0.0586 -0.5193 -0.0489
22521W        W40725   9.930   8.598  12.786  0.3541  0.1869 -0.1867
22522W        W40726  10.254  10.965  10.850 -0.1590 -0.1073 -0.0443
22523W        W40727  16.458  13.315  13.832  0.0769 -0.0427  0.3133
22524W        W40728   7.766   7.029  13.150 -0.1148 -0.0779 -0.0831
22525W        W40729  14.281   8.194  11.781  0.0055 -0.0521  0.1116
22526W        W40730  14.208   2.580  14.463  0.0164 -0.0817  0.0267
22527W        W40731   0.466  14.820   0.284  0.0002  0.0868 -0.3626
22528W        W40732   8.340   7.679   4.051 -0.1971  0.0166  0.1407
22529W        W40733  17.723   6.194  11.291 -0.3032 -0.3386  0.2601
22530W        W40734   1.372   7.603   4.460  0.1362 -0.0772 -0.3185
22531W        W40735  12.385   6.147   2.937  0.0754 -0.0724 -0.0404
22532W        W40736   7.769   0.001   3.427  0.1629 -0.2522  0.1835
22533W        W40737   5.140  10.202   3.770  0.1101  0.0015 -0.1102
22534W        W40738   8.778  14.688  12.088 -0.0799  0.0638  0.0820
22535W        W40739  14.440  14.752   0.406 -0.0883  0.0431 -0.0057
22536W        W40740   1.300   7.323  14.421  0.1973 -0.0176 -0.0884
22537W        W40741   3.653   2.353   3.162 -0.0307  0.1891 -0.0008
22538W        W40742   2.294   5.904   2.904  0.0156  0.0465  0.1259
22539W        W40743   9.540  14.432  14.900  0.0901  0.2793 -0.0625
22540W        W40744   3.039   0.106  11.391 -0.2720 -0.3455  0.1674
22541W        W40745  18.252   9.476   4.916 -0.3174  0.3521 -0.0865
22542W        W40746   2.200  16.183   2.186 -0.0889 -0.1242 -0.2430
22543W        W40747   4.180  17.256   2.071 -0.1576  0.0304  0.1827
22544W        W40748  14.413   4.219  10.927 -0.1233  0.1301 -0.1003
22545W        W40749   8.880  15.223   4.119  0.1206  0.2083 -0.0335
22546W        W40750   2.023   1.996   0.910  0.1970  0.1671  0.2181
22547W        W40751   5.746   3.645   0.216 -0.3567 -0.2961  0.2301
22548W        W40752   2.911   9.583  15.362 -0.4622  0.0706 -0.5465
22549W        W40753   0.069  12.472   0.225 -0.1395  0.2304  0.0478
22550W        W40754   5.779   3.023   1.880  0.1490  0.1025  0.0255
22551W        W40755   0.972  18.327  13.931  0.3811 -0.0062  0.0441
22552W        W40756  12.620   6.971   2.390 -0.1572 -0.0260  0.2409
22553W        W40757  15.712   7.054  12.173 -0.0889  0.1187 -0.0153
22554W        W40758  17.095  14.217  15.083  0.0768  0.4414  0.0938
22555W        W40759   5.755  15.689  14.925 -0.2122 -0.0913  0.1370
22556W        W40760   6.018   0.294  14.230 -0.0385 -0.1390 -0.2499
22557W        W40761   9.896   4.032   4.595 -0.2490  0.0956  0.1186
22558W        W40762   4.542  17.352  11.011  0.0620 -0.2918  0.0497
22559W        W40763  10.251   9.374  12.237  0.0539 -0.1241 -0.0767
22560W        W40764  14.470   6.724  12.125 -0.0704 -0.0656 -0.0627
22561W        W40765   6.668   9.020  13.203 -0.1891 -0.0634  0.5014
22562W        W40766   7.210  18.485   2.338  0.1005 -0.0384 -0.2660
22563W        W40767   7.067  10.593  10.134 -0.0842  0.1602 -0.0095
22564W        W40768   3.836   1.016  14.780 -0.0529 -0.0739 -0.0541
22565W        W40769   2.562  10.349  11.757  0.0308 -0.1996 -0.0913
22566W        W40770  14.593   7.043   4.282 -0.1245  0.3555 -0.3818
22567W        W40771  12.169   9.431  11.403  0.1401 -0.2456 -0.1403
22568W        W40772   4.973  10.961   0.382 -0.1009 -0.0699 -0.2255
22569W        W40773  12.248   3.058   2.180 -0.0563 -0.0376  0.1817
22570W        W40774  15.790   2.903  14.370 -0.2271  0.2892  0.0967
22571W        W40775   8.458   7.985   1.749  0.1161 -0.0676 -0.0861
22572W        W40776   9.497  15.998  15.101 -0.1361  0.1930 -0.1059
22573W        W40777   1.263   8.573  11.866 -0.0493  0.1805 -0.2283
22574W        W40778  13.149   5.067   1.802 -0.0010  0.0779  0.0808
22575W        W40779  16.019   0.752  14.697 -0.0778 -0.1545 -0.2745
22576W        W40780   4.932  12.699   3.235  0.1381 -0.2537  0.1900
22577W        W40781  12.958   4.830   0.021 -0.0089 -0.1713  0.0796
22578W        W40782   3.311  16.676  14.326 -0.1292 -0.1412  0.1274
22579W        W40783   9.152   1.193   1.773  0.3302  0.2237  0.2290
22580W        W40784  12.255  17.088   0.714  0.2671  0.1992  0.0463
22581W        W40785   9.901  14.038   0.622 -0.1333 -0.1566 -0.2278
22582W        W40786   0.475  11.694  11.889  0.2552 -0.1973  0.4326
22583W        W40787  10.914  17.745   1.230  0.1497 -0.1284 -0.1407
22584W        W40788  15.926   0.806  12.967 -0.2977  0.2352 -0.3502
22585W        W40789   8.641   7.365  13.668 -0.2990 -0.0156 -0.2037
22586W        W40790   6.621  18.013  11.807  0.1353  0.2204 -0.1744
22587W        W40791   7.419   5.813  14.880  0.0780 -0.1767 -0.2157
22588W        W40792  17.430  17.377   1.755 -0.4627 -0.0669  0.1561
22589W        W40793  13.671   8.462  12.682 -0.1261 -0.1767 -0.0678
22590W        W40794  13.380   0.606  13.427  0.1010  0.2031  0.0313
22591W        W40795   6.719  16.282   3.140  0.0093  0.2047  0.2999
22592W        W40796   5.977  13.108  11.196 -0.3215  0.0860 -0.1709
22593W        W40797  16.070  13.774  13.068  0.1640 -0.3123  0.1089
22594W        W40798   4.169   4.974   3.897  0.2151  0.2844 -0.2217
22595W        W40799   2.516  11.568   2.462 -0.0379 -0.2199  0.3659
22596W        W40800   9.257   0.249   3.069 -0.2318 -0.0388  0.0324
22597W        W40801  12.411  15.627   2.763  0.0364  0.0836  0.0413
22598W        W40802  18.124   0.549  15.367 -0.0630 -0.1978  0.3518
22599W        W40803   8.795  17.015   2.415  0.0123  0.4462  0.3696
22600W        W40804   5.618  12.230  13.253 -0.0674 -0.1513  0.0351
22601W        W40805   1.176   2.725  11.023 -0.1123 -0.1552  0.3919
22602W        W40806  10.455   7.401   4.942 -0.0731 -0.3662 -0.3737
22603W        W40807  11.614  17.328  14.313  0.3063  0.2124 -0.2109
22604W        W40808  11.097   3.446   3.044  0.1762 -0.1792 -0.0603
22605W        W40809  11.612   8.612  12.299 -0.0497  0.2007  0.2013
22606W        W40810   3.382   6.503   2.237  0.1976 -0.0527 -0.1198
22607W        W40811   3.828  12.299  14.828 -0.2255 -0.0752  0.3893
22608W        W40812   2.817  10.877   1.845 -0.0668 -0.0163  0.0963
22609W        W40813  11.945  12.560   3.895  0.1482 -0.2240  0.0039
22610W        W40814   5.886  10.926  11.785 -0.0022 -0.0842  0.1329
22611W        W40815  11.766  11.585  14.238 -0.1129  0.1813 -0.1168
22612W        W40816  10.157   1.923   3.632 -0.0672 -0.1871 -0.2264
22613W        W40817  18.604   6.450  12.974  0.0526  0.1607  0.0804
22614W        W40818  16.956   2.101   1.863 -0.0429  0.1028 -0.1230
22615W        W40819   1.638  15.352  12.626 -0.1572 -0.0036 -0.1134
22616W        W40820  17.385   2.090   2.760 -0.1915  0.1622 -0.2968
22617W        W40821  12.744   2.721  12.906  0.0118  0.0081  0.0425
22618W        W40822   3.108   5.830  13.006 -0.0828 -0.1374  0.0672
22619W        W40823  10.348  10.361  13.325 -0.0263 -0.2067  0.1328
22620W        W40824   1.331   6.167   2.413 -0.0330  0.0759 -0.0792
22621W        W40825  12.905   8.088  14.209  0.0203  0.0378 -0.0090
22622W        W40826   7.782  18.094  10.588  0.1484  0.2163  0.1443
22623W        W40827  18.199   2.531  12.470 -0.0004 -0.1406 -0.1805
22624W        W40828   4.117   2.104   3.296  0.0921  0.1055  0.0323
22625W        W40829   2.321  10.550  13.973 -0.3696  0.0201  0.1173
22626W        W40830   0.555   3.789   3.412 -0.1051 -0.0456 -0.1470
22627W        W40831  13.224   8.847  11.246 -0.0283  0.2751  0.0752
22628W        W40832   4.593  13.175  14.157  0.0293  0.2049 -0.2854
22629W        W40833   4.550  11.858   4.219 -0.1342  0.3025  0.1819
22630W        W40834   1.530  10.514   3.337  0.0724  0.2564  0.0352
22631W        W40835  11.045  17.934  12.243 -0.0412 -0.2811 -0.0988
22632W        W40836   2.136   4.624  14.885  0.2457 -0.1075 -0.0218
22633W        W40837  13.889   6.623   1.637 -0.4092  0.0105  0.1610
22634W        W40838   7.190   4.279   0.860  0.0706  0.1653 -0.0283
22635W        W40839   1.048  17.137  14.648 -0.3869 -0.1394 -0.1346
22636W        W40840   0.930   0.470   1.749 -0.0917  0.2162  0.0901
22637W        W40841   4.107  16.171  12.694 -0.0230 -0.4634 -0.3562
22638W        W40842   5.114  11.362  13.075 -0.0591 -0.2460 -0.2890
22639W        W40843  10.912   2.641  15.356 -0.2838 -0.3539  0.1129
22640W        W40844   3.575  10.085  11.737  0.1381  0.1294  0.0250
22641W        W40845   0.186   3.670   3.001 -0.0875  0.5081  0.0564
22642W        W40846   9.761  18.371  11.359 -0.0198 -0.1085 -0.0171
22643W        W40847  17.036   7.540   1.627 -0.0512  0.0399  0.2801
22644W        W40848   0.028  15.702   2.701  0.0242  0.0955  0.1547
22645W        W40849  14.369   3.841   1.970 -0.3456  0.1465 -0.0169
22646W        W40850  12.658  14.102  15.429  0.0608  0.1923 -0.0275
22647W        W40851   9.119  16.175   3.284 -0.0028 -0.2316 -0.1549
22648W        W40852  11.493   5.586   3.023  0.0896 -0.0548 -0.0373
22649W        W40853   3.933  10.193   4.111  0.0426 -0.4160 -0.0250
22650W        W40854  10.805   9.171   3.665  0.0651 -0.1099  0.3477
22651W        W40855   7.144   8.926   3.348  0.2649  0.1189  0.0288
22652W        W40856   8.775   1.414  14.660  0.4148  0.2551  0.3284
22653W        W40857  14.485  12.545   2.893 -0.0015  0.1643  0.0376
22654W        W40858   3.007  10.375   0.562  0.2546 -0.1272 -0.1785
22655W        W40859   4.058   5.870   1.268  0.0064  0.0625 -0.1943
22656W        W40860   9.007   4.311   2.656 -0.1929  0.2285 -0.2428
22657W        W40861   2.540  18.257   2.992  0.1182  0.1006  0.0243
22658W        W40862  15.329   0.678  13.101  0.0536  0.2423 -0.1883
22659W        W40863   8.486   2.556   3.634  0.1052  0.0975  0.0088
22660W        W40864   9.091   2.994  12.255  0.0635  0.1666  0.0541
22661W        W40865  14.103  11.431  12.518  0.1353 -0.2615 -0.0672
22662W        W40866  13.769  16.584   2.245  0.0172  0.1131 -0.1701
22663W        W40867  18.257   5.515   5.183 -0.1845 -0.0237 -0.0060
22664W        W40868   9.901  17.639   3.143 -0.1484  0.0559 -0.1119
22665W        W40869  15.407  11.131  11.643  0.1816  0.2199 -0.1196
22666W        W40870  10.114   5.172  14.252 -0.1500 -0.2168  0.0485
22667W        W40871   3.957   9.465  10.992  0.2226  0.2887  0.1039
22668W        W40872   3.953  12.559   4.899 -0.0416  0.2285  0.1846
22669W        W40873   3.183   0.902   1.335 -0.1677  0.1889 -0.1356
22670W        W40874  18.101   2.574  14.900  0.1211 -0.1373  0.1733
22671W        W40875   4.507  10.857  13.241 -0.0239 -0.1370  0.0434
22672W        W40876   2.983  16.968  14.071 -0.0366 -0.0986  0.2602
22673W        W40877  13.142  17.814   1.133  0.3775  0.4766 -0.0275
22674W        W40878  13.953  17.199   3.855 -0.0686  0.1965  0.1209
22675W        W40879  16.433   5.530  14.561  0.3157  0.0199 -0.1492
22676W        W40880  11.935  12.151   4.208  0.1988  0.0901  0.1255
22677W        W40881  15.914   4.618  14.139  0.0294  0.0086 -0.1181
22678W        W40882   9.659  15.108   3.752  0.0437  0.0069 -0.0975
22679W        W40883   2.898  15.752  11.713  0.4211  0.0322 -0.0571
22680W        W40884   9.883   7.293   6.183 -0.1930 -0.1186 -0.2363
22681W        W40885  14.657  16.151  14.315 -0.3056 -0.2071  0.0211
22682W        W40886   1.475   8.970  14.582  0.1412  0.1101 -0.2774
22683W        W40887  17.139  11.166   4.170  0.2238 -0.1852 -0.1245
22684W        W40888   8.411   8.498   1.028 -0.3319  0.0015 -0.3299
22685W        W40889  13.688  14.919  11.981  0.2675  0.2506  0.1976
22686W        W40890   5.093  15.205   0.657 -0.0182 -0.0666 -0.2022
22687W        W40891   2.378  15.888  11.387 -0.2554 -0.0163  0.0757
22688W        W40892   1.398   8.035   1.524  0.0424  0.0127  0.0573
22689W        W40893   1.778  13.629  14.627 -0.0672  0.0800 -0.1466
22690W        W40894  18.506   2.889   3.507 -0.0745  0.0747 -0.1350
22691W        W40895   9.113  11.090  11.733 -0.2613 -0.1086 -0.1433
22692W        W40896   4.348  13.580   4.067  0.3222  0.1349 -0.1232
22693W        W40897   8.236  16.054  13.741 -0.2184  0.0577 -0.1308
22694W        W40898  14.862  18.309  12.436 -0.1678  0.0634  0.0552
22695W        W40899  12.401   0.965  13.467 -0.2828  0.1505 -0.1357
22696W        W40900   2.504   4.056   3.093 -0.0470 -0.0402 -0.1921
22697W        W40901  16.449   0.263   2.049 -0.0641 -0.0331 -0.0139
22698W        W40902  13.346  10.903  12.679  0.0808 -0.3151 -0.0826
22699W        W40903  16.649  17.626  15.026  0.1250  0.1069  0.1235
22700W        W40904   9.102   2.538   0.431  0.0337  0.1428  0.3366
22701W        W40905  18.056   6.224   3.354  0.1547  0.0443  0.2069
22702W        W40906  16.331  13.591  15.213  0.1523 -0.4257  0.0715
22703W        W40907  14.699   1.358  11.172 -0.2007 -0.0274 -0.4003
22704W        W40908  16.748  14.091   0.216 -0.1513  0.0888  0.4434
22705W        W40909  15.989   1.309  11.934 -0.4195  0.0580 -0.0622
22706W        W40910   3.530   2.479   4.004  0.2994  0.1997 -0.0892
22707W        W40911   0.624  12.338   3.198  0.2101 -0.0427  0.2337
22708W        W40912   4.581   9.407   3.876  0.1764  0.0760 -0.0530
22709W        W40913   5.608   1.311  11.686 -0.0874  0.1191  0.2162
22710W        W40914   2.564   6.162   4.018 -0.0028  0.0786  0.0298
22711W        W40915   2.476  18.186  13.706 -0.3452  0.0586 -0.1077
22712W        W40916   5.019   2.026   2.133  0.2483  0.2497 -0.0308
22713W        W40917   8.805  17.416  11.136 -0.2731 -0.0903 -0.1066
22714W        W40918   2.035   5.325   2.031 -0.2065  0.0914 -0.0351
22715W        W40919   0.839   2.844   3.036 -0.0815  0.0861  0.0463
22716W        W40920   9.914  15.498  14.155 -0.1133  0.1228  0.0840
22717W        W40921  17.114   5.336   3.436  0.0067 -0.1431  0.5713
22718W        W40922   5.673   0.956  15.010  0.0353 -0.1560  0.1201
22719W        W40923  16.315  17.506  14.610  0.2560 -0.0724  0.0463
22720W        W40924   4.084   4.207   0.926 -0.2131  0.0926 -0.1331
22721W        W40925   0.276   6.933   3.722 -0.3337 -0.0735  0.0845
22722W        W40926   8.996  15.208  13.815  0.1480  0.0175 -0.1579
22723W        W40927  17.323   9.924   3.774 -0.2012 -0.1063  0.0582
22724W        W40928   8.479  13.673  10.388  0.2080  0.0485 -0.2939
22725W        W40929  11.866   7.721  14.285  0.0958  0.2104  0.1689
22726W        W40930  10.524  13.582   0.919  0.0378 -0.3148 -0.2583
22727W        W40931  14.887  11.304  13.007 -0.1404  0.2989 -0.0784
22728W        W40932  11.111   1.505  11.220 -0.1153 -0.0017 -0.1401
22729W        W40933  11.972   5.123   1.765 -0.1001 -0.2251 -0.1830
22730W        W40934   6.009   4.353   3.875  0.0154  0.4756  0.1745
22731W        W40935   4.652  13.033  14.825  0.0014  0.1057  0.0828
22732W        W40936  10.135   9.057  14.232 -0.3162 -0.0922  0.0584
22733W        W40937  10.570  12.261   0.594 -0.2249  0.1393 -0.3192
22734W        W40938  17.181  18.194   0.056 -0.1028  0.1962  0.2587
22735W        W40939   4.194   1.533   2.057 -0.3714 -0.2599  0.2491
22736W        W40940   1.076   7.506  13.525  0.0975  0.1423  0.3616
22737W        W40941   6.057   8.239   4.594 -0.0452 -0.0245 -0.1463
22738W        W40942   2.575  12.066   3.270  0.1282  0.0590 -0.0005
22739W        W40943   0.532   0.512  12.701 -0.0414 -0.0428  0.1021
22740W        W40944   8.193  13.607   0.487 -0.0560 -0.2773 -0.1561
22741W        W40945   0.140   5.652  12.781 -0.3034  0.5871  0.1194
22742W        W40946   0.502   1.069  14.142  0.0032 -0.2633 -0.0378
22743W        W40947   3.859  11.717  11.656  0.0654 -0.2491  0.1824
22744W        W40948  18.508   7.732  11.863 -0.1240 -0.0036 -0.0515
22745W        W40949   1.068   9.116   3.623 -0.0527 -0.0771 -0.0032
22746W        W40950   3.403   2.245   0.818 -0.0439 -0.1610  0.1566
22747W        W40951  10.349  12.034   1.910  0.0270  0.1724 -0.0116
22748W        W40952   9.100  15.000  11.849  0.3347  0.2690 -0.0774
22749W        W40953  10.326   6.658  14.789 -0.0109 -0.0156 -0.0181
22750W        W40954  15.928   0.907  12.334 -0.3907  0.0417  0.0802
22751W        W40955   7.883  15.621  14.490  0.1341  0.1501  0.0687
22752W        W40956   8.201  11.994   1.785  0.2553 -0.0880 -0.5136
22753W        W40957  13.101  18.332  14.522  0.2226 -0.0959 -0.0030
22754W        W40958  11.360  16.199   1.412  0.0765 -0.0890  0.2732
22755W        W40959  12.042   7.084  15.046  0.0517 -0.3949 -0.2454
22756W        W40960   4.972   4.455   1.028  0.2647 -0.1120 -0.0313
22757W        W40961   2.394  17.936  11.280 -0.2413  0.0543  0.1610
22758W        W40962  11.118  14.554  14.908  0.0428 -0.0174  0.0788
22759W        W40963   8.725   8.288   1.374 -0.0995  0.1114  0.1696
22760W        W40964   9.960  15.405  12.379  0.0671 -0.0150  0.0042
22761W        W40965   3.133  15.238   0.192 -0.2642  0.1212  0.2474
22762W        W40966   4.273   6.419  11.698  0.0279 -0.1404 -0.0782
22763W        W40967   4.118  15.491   0.669  0.1061 -0.0771  0.2767
22764W        W40968   4.843  10.806   3.243  0.4576 -0.0480 -0.2908
22765W        W40969   7.630   2.344   4.182  0.1574  0.0876 -0.1993
22766W        W40970   0.031  12.514   3.375  0.0522  0.1421  0.0620
22767W        W40971   6.160   3.436  14.326 -0.0687  0.0297  0.2314
22768W        W40972   0.475   0.248   3.196 -0.0370  0.0686  0.0148
22769W        W40973   9.096   9.454   4.324 -0.0978 -0.2349 -0.0718
22770W        W40974  17.991   2.022   1.251 -0.0033 -0.1023  0.1219
22771W        W40975   2.996   4.530  12.203  0.0364  0.2586  0.1945
22772W        W40976   9.972  10.851  14.874  0.1153 -0.0127  0.0420
22773W        W40977   0.783   4.379   3.203  0.1542 -0.0396 -0.0641
22774W        W40978   1.183  13.567   0.114 -0.0941  0.0946 -0.5096
22775W        W40979   0.980  18.345  12.606  0.0388 -0.2303 -0.2916
22776W        W40980  15.596   6.092   1.569 -0.0193 -0.2531  0.3069
22777W        W40981  10.597  14.155   4.953  0.1416  0.0440  0.1050
22778W        W40982  10.096   0.639   0.841  0.1125  0.0953  0.2746
22779W        W40983   8.287   5.306   1.690  0.1307 -0.1909  0.0825
22780W        W40984   5.058  17.971   1.956  0.1296 -0.0806 -0.0051
22781W        W40985  16.009   0.881   5.460  0.2295 -0.1369  0.0491
22782W        W40986  10.348   7.891  15.434 -0.3453  0.1808 -0.0873
22783W        W40987  16.327   5.203  14.033  0.3683  0.2049 -0.0545
22784W        W40988   8.691  12.348   0.130 -0.2442 -0.3000 -0.0621
22785W        W40989   0.444   7.584   4.482  0.0888  0.4691 -0.1386
22786W        W40990   5.250  18.024  15.437 -0.1915 -0.0421  0.1238
22787W        W40991  15.126  17.436   0.214 -0.0391  0.4142 -0.0963
22788W        W40992  15.515  14.856   3.574  0.2754 -0.2850  0.0541
22789W        W40993  10.232   7.627  11.904 -0.0862  0.0349  0.0619
22790W        W40994   8.907   9.760  13.097 -0.1786 -0.0411 -0.0696
22791W        W40995   0.132  17.243   3.871  0.1033  0.1020  0.0274
22792W        W40996   9.855   3.129  12.905  0.2906 -0.2526 -0.1832
22793W        W40997  13.519   5.038   9.674  0.0106  0.5626  0.0906
22794W        W40998   1.466  12.317   3.298 -0.1761  0.3537 -0.2163
22795W        W40999   6.054   2.428  14.164  0.0590  0.0553 -0.2026
22796W        W41000  14.504  18.567   0.015 -0.1351  0.1454 -0.2469
22797W        W41001   4.433  15.007   1.520  0.1076  0.2621 -0.2146
22798W        W41002   3.800  16.858  12.016 -0.2896 -0.1711 -0.1474
22799W        W41003   9.583   5.953   2.781 -0.3172 -0.1809  0.3290
22800W        W41004   9.963   4.399   3.553 -0.0125 -0.0090  0.1456
22801W        W41005   4.828   7.711   1.892 -0.0151  0.0661  0.1722
22802W        W41006  14.430  17.016  11.329  0.2204 -0.1290 -0.0693
22803W        W41007   6.561   3.572  14.566  0.3081  0.1889  0.1915
22804W        W41008   7.668   4.363   4.123  0.2250 -0.3037 -0.5271
22805W        W41009   6.681  16.155  12.512 -0.2673  0.0250  0.0956
22806W        W41010   1.052  17.121  13.179 -0.2215 -0.3867  0.1191
22807W        W41011   9.107   7.133  12.983 -0.0130 -0.0824  0.6078
22808W        W41012   7.446  17.736  12.751  0.1232 -0.0981  0.0780
22809W        W41013   3.793   5.077   0.938 -0.0724  0.1233 -0.3956
22810W        W41014   1.749  16.106  13.644  0.1810 -0.1929  0.1081
22811W        W41015  10.173  11.186  11.633  0.0462 -0.0265 -0.1610
22812W        W41016  16.373   5.528  15.188 -0.4640 -0.1510  0.0779
22813W        W41017  12.226  10.932   4.615 -0.0480  0.0163  0.1946
22814W        W41018   7.176  10.559  13.596 -0.0791  0.0567 -0.4700
22815W        W41019   7.529  14.366   1.643  0.2732 -0.2094 -0.1743
22816W        W41020   1.631  15.784   0.874  0.1214 -0.1393 -0.0589
22817W        W41021   0.579   8.034   4.425  0.0216 -0.1192  0.2994
22818W        W41022   4.645   6.928   3.107  0.0677 -0.0696  0.1172
22819W        W41023   2.118   1.162   1.395 -0.3084  0.1439 -0.0154
22820W        W41024  13.150  13.697  12.537  0.0202  0.0855 -0.2942
22821W        W41025  17.355   2.042   3.936 -0.1765 -0.0178 -0.2510
22822W        W41026   2.257   5.486  11.297  0.4633 -0.0702 -0.1366
22823W        W41027  15.954  11.076   3.405  0.2632  0.1822  0.0405
22824W        W41028  10.371   4.835  13.045  0.0856  0.0465  0.0771
22825W        W41029  16.221  12.819   0.856  0.1288 -0.0030  0.0215
22826W        W41030   7.367   6.598  10.315  0.0389  0.1671 -0.1231
22827W        W41031  10.643  16.221   2.542 -0.0335 -0.1136  0.1242
22828W        W41032   1.321  13.433   1.352  0.2758 -0.0753  0.2565
22829W        W41033  13.999   8.828   4.336 -0.2570  0.1570  0.2130
22830W        W41034   7.878  10.141   2.515  0.1219  0.1654  0.0944
22831W        W41035  12.993   6.535  13.666 -0.0336 -0.2972 -0.0833
22832W        W41036  16.262  15.002   4.172  0.1106 -0.0819 -0.1084
22833W        W41037  10.543   2.064  15.259  0.1539 -0.1530  0.0212
22834W        W41038  16.156  15.802   3.949 -0.3395  0.0518 -0.2373
22835W        W41039   1.234   4.883  13.318 -0.0235  0.4095 -0.0574
22836W        W41040   1.003  11.190   2.841 -0.0005  0.0633 -0.1818
22837W        W41041  17.983  13.000   2.654 -0.0066  0.0016  0.1149
22838W        W41042   6.284   4.912   2.669  0.0986  0.2172  0.1023
22839W        W41043  16.876   3.181  12.610 -0.0473 -0.0315  0.2125
22840W        W41044   6.554  15.282   4.421 -0.0160  0.3454 -0.0588
22841W        W41045  11.118  10.725  10.610 -0.0792  0.2032 -0.0402
22842W        W41046   0.698   3.202   0.059 -0.2105  0.0884 -0.3776
22843W        W41047   6.381   7.537  10.082  0.0606 -0.3145  0.1249
22844W        W41048  17.446  11.297  13.367 -0.0946  0.0845  0.1989
22845W        W41049   1.935   8.981  13.998  0.1234  0.1872  0.0629
22846W        W41050  15.803   7.368   4.567 -0.0639 -0.0871  0.0197
22847W        W41051   4.632   3.817   2.674  0.0542 -0.5744  0.5405
22848W        W41052  17.420   4.154   0.897  0.0900  0.0063  0.0751
22849W        W41053  14.102  10.803   4.089  0.1614 -0.0293 -0.0339
22850W        W41054  12.352  15.351   3.187  0.2027 -0.0368  0.0243
22851W        W41055  16.595   8.495   4.522  0.2151  0.0096 -0.0178
22852W        W41056  17.043   5.127   0.840 -0.1386 -0.1549  0.1782
22853W        W41057   2.298  10.163  14.680  0.4138  0.1729  0.1339
22854W        W41058  18.170  16.306  11.416  0.0126  0.0147 -0.0132
22855W        W41059  16.729  15.766   5.261  0.0713  0.4028 -0.2001
22856W        W41060   0.931   3.318   2.112 -0.1908 -0.2614 -0.4025
22857W        W41061   0.837   4.625  12.337 -0.0987  0.0015  0.0287
22858W        W41062   8.953  12.916   3.103 -0.1019 -0.0275  0.1234
22859W        W41063  14.437   9.427   2.112  0.2094  0.1394 -0.2157
22860W        W41064   7.000  16.002  15.273 -0.2741 -0.0982  0.0902
22861W        W41065   0.194  12.837  14.767 -0.2089 -0.0994  0.0927
22862W        W41066   1.801   4.606  11.175  0.0080  0.1556  0.1338
22863W        W41067  15.196   4.892   3.773  0.0112 -0.0318  0.1908
22864W        W41068   7.805   7.554  14.536  0.1829 -0.3212  0.1321
22865W        W41069  12.952  16.968  14.315 -0.2827 -0.1231 -0.1946
22866W        W41070   0.684   9.597   0.607  0.0931  0.0111  0.2212
22867W        W41071   0.988   1.221  14.908 -0.3424  0.2947 -0.0521
22868W        W41072  10.688   0.139  15.292  0.0391  0.1483  0.0389
22869W        W41073   8.432  11.365  14.908 -0.0613  0.2034 -0.3859
22870W        W41074   4.969  17.684  12.362 -0.1977 -0.1006 -0.2223
22871W        W41075   4.228   9.137   3.737 -0.1422  0.1094 -0.1403
22872W        W41076   3.503  17.647  11.809 -0.0958  0.6072  0.6456
22873W        W41077   2.954   2.345   0.755 -0.0315 -0.2898  0.4062
22874W        W41078   6.699  13.090  14.503 -0.2370  0.1589  0.0509
22875W        W41079  16.043  13.760   1.283  0.0190 -0.2964 -0.2849
22876W        W41080   0.129   0.639   2.779 -0.1203  0.0024  0.0816
22877W        W41081  18.143   9.304   0.828  0.2572  0.0902 -0.1278
22878W        W41082   9.662   4.599   0.303  0.0044 -0.1614  0.0683
22879W        W41083   6.122   7.613  15.023 -0.0755  0.0869 -0.1464
22880W        W41084   0.511  12.111   4.491 -0.4076 -0.2209  0.1619
22881W        W41085   3.075   8.252  14.368  0.0460 -0.0614  0.0453
22882W        W41086   7.175  10.044   1.780  0.0019 -0.1941  0.1559
22883W        W41087   2.946   1.929  15.429  0.0631 -0.0010 -0.2847
22884W        W41088   6.795   6.557  15.429 -0.0865  0.2036  0.1270
22885W        W41089   9.563  13.676  11.983  0.1669 -0.1290  0.0117
22886W        W41090  11.864   3.479   4.169  0.1025 -0.1672 -0.0116
22887W        W41091   1.364   4.347   0.954  0.2948 -0.2143 -0.1678
22888W        W41092  10.864  15.193   3.895 -0.0213 -0.0224  0.1876
22889W        W41093  11.743   4.791  12.728 -0.1862  0.3892  0.1138
22890W        W41094  13.668  16.129  13.118  0.1956  0.1886 -0.6324
22891W        W41095  11.403   4.633   2.687 -0.0642  0.1550 -0.1081
22892W        W41096   8.473   3.149   1.422 -0.0763 -0.0051 -0.0957
22893W        W41097   2.932   1.179  11.657  0.3378 -0.0198  0.5308
22894W        W41098  10.041  12.240  14.368 -0.0352 -0.0130 -0.0909
22895W        W41099   6.485   6.808  14.042  0.0632 -0.0486 -0.2637
22896W        W41100   2.554   8.980   1.519 -0.3281 -0.1010 -0.3958
22897W        W41101   4.360  13.516   1.818  0.1339  0.4388 -0.2882
22898W        W41102  17.172   4.403   1.466  0.1960 -0.0203  0.0373
22899W        W41103   5.238  11.794  15.149 -0.2847  0.1445  0.0809
22900W        W41104  13.608   0.167  10.772  0.3586  0.4710  0.0204
22901W        W41105  11.744  16.444   1.133 -0.4045  0.2417  0.1226
22902W        W41106  15.734  18.489   4.537  0.1875 -0.0791 -0.0732
22903W        W41107  18.632  14.656  15.465  0.0359  0.1298 -0.4575
22904W        W41108   9.514  16.868  15.034  0.1408 -0.1779 -0.1932
22905W        W41109  17.583   9.027   0.156 -0.0188  0.2404  0.2254
22906W        W41110  14.099  15.803   0.998 -0.0960  0.0950  0.0266
22907W        W41111  10.427  15.937   3.384 -0.0968 -0.2512 -0.0476
22908W        W41112   5.295   0.349   5.051 -0.0889 -0.0602  0.1892
22909W        W41113  16.673  12.151   3.844  0.1431  0.0095  0.0264
22910W        W41114  13.038  11.781   2.345  0.2758 -0.3083  0.1171
22911W        W41115   4.362   3.205   0.796 -0.1922  0.3581 -0.2615
22912W        W41116   9.619  16.688  13.411 -0.1915  0.0169 -0.0259
22913W        W41117  13.246   0.695   2.788 -0.0972 -0.1147 -0.1206
22914W        W41118  11.473   1.238   3.250 -0.1030  0.1690 -0.1026
22915W        W41119   1.075   7.457  11.888 -0.2766  0.0906 -0.0456
22916W        W41120   3.958  14.976   3.369  0.2828  0.0763 -0.1690
22917W        W41121   8.956  16.699  13.958  0.0628  0.0937  0.0519
22918W        W41122   1.079  16.584   3.148 -0.1150 -0.0318  0.1134
22919W        W41123   5.591   2.407  12.334 -0.4149 -0.2918  0.0909
22920W        W41124   0.421   3.676  13.856  0.1489 -0.5106  0.2549
22921W        W41125  14.196   5.442   1.362  0.2640 -0.4273 -0.0544
22922W        W41126  18.394  14.796   0.800 -0.0163  0.1406 -0.0020
22923W        W41127  10.184   7.126   2.580 -0.1112  0.2105 -0.0408
22924W        W41128   2.733  18.568  15.011  0.2184 -0.1417 -0.1278
22925W        W41129  18.161  10.336  12.884  0.0754 -0.1025  0.0310
22926W        W41130   9.618   8.826   2.044  0.0562 -0.0229  0.0834
22927W        W41131  10.453  16.515  11.629  0.3895 -0.0059  0.2715
22928W        W41132  15.838   5.195  11.427 -0.3059 -0.1345 -0.0254
22929W        W41133   7.746  18.092   3.157 -0.1282 -0.1136 -0.1743
22930W        W41134  16.240   4.955   3.684 -0.0185  0.1689 -0.2964
22931W        W41135  18.166   4.737   3.387  0.0191  0.0816  0.1661
22932W        W41136   0.150  17.339  15.144 -0.1103  0.2067  0.2196
22933W        W41137   9.549  12.932  13.282  0.2804  0.2780  0.0103
22934W        W41138   2.209   9.736  14.458  0.2854 -0.0704 -0.2538
22935W        W41139  16.633  14.491  14.079 -0.0174  0.1660 -0.0413
22936W        W41140  13.526   5.168  15.434  0.1808  0.0144 -0.0876
22937W        W41141   6.205  16.956  12.471 -0.0880  0.0667 -0.0144
22938W        W41142   5.325  17.372  11.692 -0.2028 -0.0487 -0.2310
22939W        W41143  16.404   6.406   1.263 -0.0120 -0.0085 -0.1518
22940W        W41144   1.970   9.894   1.184 -0.0530  0.1990  0.2725
22941W        W41145   5.722  16.290   0.278 -0.2637  0.2420 -0.1875
22942W        W41146   1.002   6.965  14.223  0.0231 -0.1523  0.2359
22943W        W41147   0.738   8.116   4.853 -0.0422  0.2380  0.1675
22944W        W41148  17.208   9.836   0.140 -0.0482  0.0015 -0.3025
22945W        W41149  18.226   5.913  12.289  0.3326  0.1298  0.0309
22946W        W41150   2.773  10.444   0.077 -0.0304  0.1642  0.2579
22947W        W41151   2.018   2.342   4.361  0.1975 -0.0605  0.3416
22948W        W41152  14.225  12.988  11.510 -0.0243  0.1213 -0.0462
22949W        W41153  18.202   0.516  13.438 -0.1456  0.0957 -0.0544
22950W        W41154   0.798  14.442  13.535  0.0242 -0.0965  0.1638
22951W        W41155   6.820  14.948  14.066 -0.0127  0.2058  0.0374
22952W        W41156   0.152   0.254   3.637 -0.1148  0.3538  0.2703
22953W        W41157  11.129   5.754   1.962  0.1578  0.3202  0.3651
22954W        W41158  14.924  14.454   3.084  0.0974 -0.1986 -0.0565
22955W        W41159  13.481  14.374   3.339 -0.1160  0.0747 -0.0285
22956W        W41160   0.478  18.105   3.096  0.0284 -0.0953 -0.1827
22957W        W41161  13.412  10.337   2.766  0.3724 -0.1604  0.0859
22958W        W41162  16.741  17.542   0.426 -0.3544  0.0332 -0.1464
22959W        W41163  11.826  11.324   0.651  0.1895  0.1770 -0.3534
22960W        W41164  11.302   9.974   4.729 -0.2879 -0.1133  0.0300
22961W        W41165   5.826  16.516   2.353 -0.0314  0.2973 -0.3222
22962W        W41166  13.360  13.246   0.417  0.0046  0.0867 -0.2241
22963W        W41167   2.174   9.916   2.072  0.1238  0.4192 -0.0282
22964W        W41168   2.216  16.265   9.966 -0.0685 -0.2537 -0.0368
22965W        W41169   3.504  12.691   3.354 -0.1271 -0.0354 -0.0697
22966W        W41170   6.751  16.647  14.044  0.1537 -0.2231 -0.0269
22967W        W41171   1.810  17.634  12.140 -0.1479  0.2573  0.0025
22968W        W41172  17.486  15.644   2.904  0.2988 -0.0222  0.4472
22969W        W41173  16.183   4.183  14.352 -0.1837 -0.0847  0.0391
22970W        W41174  13.688   8.643  11.217  0.2738  0.1058 -0.1683
22971W        W41175   3.119  13.351  14.874  0.1356 -0.1933 -0.2125
22972W        W41176  14.212  15.858  11.784 -0.0357  0.1385 -0.1359
22973W        W41177   4.889   1.910   3.628 -0.2170  0.0319 -0.0150
22974W        W41178   0.283   6.211   1.099  0.3436  0.1135 -0.1961
22975W        W41179  10.999  12.964   4.050 -0.0582 -0.1245  0.2413
22976W        W41180  10.912  16.454  11.429 -0.3968 -0.0852 -0.1164
22977W        W41181   2.774   7.745   0.725 -0.1383  0.3381  0.1982
22978W        W41182   2.906  11.516  12.797  0.1842  0.0418  0.0420
22979W        W41183  13.582  18.009   0.689  0.1372  0.1961  0.1997
22980W        W41184   0.631   7.296   2.927 -0.2223 -0.0298 -0.0840
22981W        W41185   6.663   5.753   4.304  0.0064 -0.1099 -0.0712
22982W        W41186  13.083   0.194   1.579 -0.1306  0.2369 -0.0021
22983W        W41187   5.511   6.364   1.174 -0.0977 -0.0785 -0.0173
22984W        W41188   6.615  12.798  11.974 -0.0740 -0.0077 -0.4407
22985W        W41189  16.414   8.777  13.214 -0.1050  0.0612 -0.3449
22986W        W41190  16.682   3.465  11.569 -0.1726  0.1200  0.1288
22987W        W41191  12.660  11.633   3.318  0.2043  0.0678 -0.0105
22988W        W41192   9.599   4.842  12.106 -0.2556  0.2306  0.0525
22989W        W41193   9.291   2.146  10.973 -0.2063 -0.0910 -0.0816
22990W        W41194  17.849  10.846  12.132  0.0716  0.0600 -0.0198
22991W        W41195  17.006  15.240  14.650  0.1585 -0.2761  0.0161
22992W        W41196  16.113   0.266   1.438 -0.3773 -0.3103 -0.1330
22993W        W41197   0.608  11.307   2.009  0.0326  0.1168 -0.1970
22994W        W41198  15.025  10.664  11.806 -0.1578  0.1036 -0.1642
22995W        W41199  13.087  14.895  11.994 -0.0616 -0.0455  0.1134
22996W        W41200   8.165   0.608   2.095  0.0021 -0.1778 -0.1058
22997W        W41201   1.330   7.991  15.178 -0.1185  0.0018  0.1066
22998W        W41202  17.380   1.819   5.217  0.2477  0.0804  0.1245
22999W        W41203  12.103   1.851  15.079  0.0532  0.1245  0.1724
23000W        W41204  12.342   3.108  12.821  0.3089  0.2531  0.1344
23001W        W41205   4.610   5.371   1.550 -0.0189  0.0381 -0.0358
23002W        W41206   4.975   5.715   1.553  0.0724 -0.3664  0.4072
23003W        W41207   3.102  16.310   0.939 -0.3724 -0.0896  0.0044
23004W        W41208  10.122   9.771  13.129 -0.1466 -0.2532 -0.0113
23005W        W41209  10.439  15.766   2.401 -0.4099  0.0019 -0.2229
23006W        W41210   9.819  13.193  11.169 -0.5357 -0.1715 -0.3988
23007W        W41211   3.791   4.904   2.379  0.1168  0.2286 -0.1393
23008W        W41212   8.158  12.850   5.441  0.1438 -0.1034 -0.0301
23009W        W41213  18.576   4.464   3.188  0.2899 -0.0973 -0.0254
23010W        W41214  18.611   5.479  14.017 -0.3320 -0.0364 -0.2849
23011W        W41215  16.698   5.456   1.307  0.1827 -0.2580  0.2132
23012W        W41216   6.258   2.354  13.058 -0.0508  0.0490  0.0007
23013W        W41217  11.661   3.283   0.550 -0.0572 -0.4851 -0.1804
23014W        W41218  16.593  14.952   2.495  0.1468  0.1107  0.2602
23015W        W41219   2.206  15.682  12.944  0.2880  0.1567 -0.0610
23016W        W41220   5.740   7.002   2.290  0.2081  0.2179  0.2337
23017W        W41221  15.593  13.410  11.233 -0.0514  0.1703  0.0364
23018W        W41222  13.000   2.213   3.543 -0.0372  0.1136  0.0454
23019W        W41223  16.713   5.006  15.429  0.0551  0.1156 -0.0194
23020W        W41224  10.472   9.519   0.095  0.0217 -0.0763 -0.3892
23021W        W41225  13.545   4.274   0.793 -0.2114 -0.0376 -0.1119
23022W        W41226   1.706  12.431   4.533 -0.4529 -0.0431 -0.0211
23023W        W41227   5.815  10.065   4.572 -0.1323  0.2030  0.0018
23024W        W41228  15.293   8.191   0.619 -0.1684 -0.1958  0.3374
23025W        W41229  12.599  11.171   1.820 -0.2357  0.1918  0.2420
23026W        W41230   1.991  10.702   1.405 -0.1459  0.0194  0.2053
23027W        W41231  11.699   9.197   4.255  0.0099  0.1725 -0.1526
23028W        W41232  16.953   6.647   1.909 -0.1589  0.0572 -0.0098
23029W        W41233  13.671  14.835  11.060 -0.3362 -0.1674 -0.4150
23030W        W41234   9.989   1.658  12.836 -0.0569 -0.0900 -0.0687
23031W        W41235  12.043  14.284  13.062 -0.3726  0.1589  0.3877
23032W        W41236   1.940  12.609   0.138  0.1089 -0.0099 -0.1932
23033W        W41237   9.477   7.853   1.709 -0.0622  0.0186 -0.0710
23034W        W41238  10.105  16.938   4.569 -0.1512  0.0682 -0.1008
23035W        W41239   1.572   5.238  10.398 -0.0487  0.0556  0.0584
23036W        W41240  17.888  13.532  13.931 -0.1931 -0.0039  0.3745
23037W        W41241   4.196  17.840   0.384 -0.0310  0.3757  0.1668
23038W        W41242  14.290   7.043  15.259 -0.1098  0.2607  0.0878
23039W        W41243   2.992  14.222  12.709  0.0199 -0.0315  0.1519
23040W        W41244  10.551  14.721  11.849  0.1940  0.2486  0.1303
23041W        W41245   1.570  13.654  12.206  0.1512 -0.1870 -0.2447
23042W        W41246   7.026   7.708  14.220  0.1231 -0.0426 -0.0232
23043W        W41247  12.009  11.064   3.164  0.2114 -0.0495  0.2572
23044W        W41248   3.895   5.321  13.409  0.2259  0.1298 -0.0665
23045W        W41249   2.558   2.971  14.131 -0.3341  0.2948  0.3896
23046W        W41250   9.191   4.408  14.376  0.1341  0.1553 -0.3207
23047W        W41251   0.699  14.472   2.790 -0.0803 -0.0325 -0.2351
23048W        W41252  13.213   8.396   4.820  0.3940 -0.2211  0.2030
23049W        W41253   7.853  18.082  14.011  0.1588 -0.0366 -0.1912
23050W        W41254  10.412  11.692  11.503  0.2384  0.1195 -0.2664
23051W        W41255  13.345  18.080  13.307 -0.0083  0.1558  0.3315
23052W        W41256  16.098   1.044   4.222 -0.0828  0.1173 -0.0473
23053W        W41257   4.038  13.653  14.753  0.0555 -0.0754  0.1476
23054W        W41258  14.547   4.978  10.670 -0.1493  0.1309  0.0338
23055W        W41259  14.134   9.428  11.552  0.1011 -0.0834  0.2475
23056W        W41260  14.088  13.697   0.504  0.0079 -0.0567  0.1303
23057W        W41261   4.576  13.250  15.435 -0.0441  0.5499 -0.0174
23058W        W41262   2.130   9.467  13.932 -0.1572 -0.0497 -0.1443
23059W        W41263   5.256   2.259   2.536 -0.2992 -0.0095 -0.0880
23060W        W41264   7.474  15.303   2.390 -0.1538 -0.1282  0.1093
23061W        W41265   3.211  17.203   1.479 -0.2833  0.3247 -0.0003
23062W        W41266   7.089  14.260   2.800  0.1066  0.0372 -0.3188
23063W        W41267  12.562   4.646  12.075 -0.2013 -0.3412 -0.0818
23064W        W41268   4.816   6.464  11.394 -0.2681  0.3045  0.2752
23065W        W41269  10.214   5.581   2.399 -0.4161 -0.1746  0.0415
23066W        W41270   3.878  17.169  13.708 -0.3034  0.1076  0.0817
23067W        W41271  16.759  16.090  12.895  0.2021 -0.0453 -0.1504
23068W        W41272   1.481  14.325   4.298  0.0198  0.1602 -0.1106
23069W        W41273  10.358   9.295  13.373 -0.1294  0.1795 -0.4689
23070W        W41274   9.541  12.838   3.108 -0.0700  0.3209 -0.1759
23071W        W41275  10.258  18.400  15.294 -0.0995  0.0095  0.2651
23072W        W41276  10.198   5.388  11.385 -0.1938  0.1274 -0.1254
23073W        W41277   2.769   9.475   0.376  0.1707 -0.2256  0.2550
23074W        W41278  17.601   9.173  14.069 -0.6074 -0.3412  0.2379
23075W        W41279  10.000   3.904   1.327  0.0085 -0.2537 -0.0489
23076W        W41280   3.556   4.298   0.886 -0.1576 -0.4395  0.3311
23077W        W41281   4.792   5.236   3.466 -0.1660 -0.2783 -0.0753
23078W        W41282  14.062  13.207  13.466  0.0893  0.1314 -0.1569
23079W        W41283   1.959  18.537  11.488  0.0948 -0.0966  0.2455
23080W        W41284  13.693  14.300  12.497  0.1122 -0.0930 -0.3404
23081W        W41285  11.770   5.105  12.306  0.0680 -0.1967 -0.2670
23082W        W41286  16.047  14.649   0.367 -0.0031  0.0099 -0.2448
23083W        W41287   1.298  18.638  13.718 -0.1089 -0.0708 -0.1016
23084W        W41288  13.426   2.441   2.793  0.0090 -0.0715  0.0070
23085W        W41289   0.139   4.162   1.014 -0.0372 -0.0106  0.2642
23086W        W41290   6.672   2.663  14.798 -0.0638  0.0323  0.0696
23087W        W41291  16.065   7.946  10.967 -0.0240 -0.2923 -0.1480
23088W        W41292  13.599   8.043   2.772 -0.0187 -0.1503  0.4540
23089W        W41293   5.957  16.146   4.303  0.1407 -0.0215 -0.0629
23090W        W41294   9.071   0.973  13.550  0.0968 -0.0585  0.1549
23091W        W41295   3.462   9.499  12.289 -0.1072 -0.0496 -0.0328
23092W        W41296   1.098   8.244   0.305 -0.2633  0.0760  0.0344
23093W        W41297   4.517  16.818  12.923 -0.0975 -0.1108 -0.0517
23094W        W41298  14.006  17.025  10.485  0.1763  0.1350 -0.1848
23095W        W41299   8.015   2.433   3.515 -0.2194  0.2041 -0.1919
23096W        W41300  14.141  15.894   4.265  0.0134  0.2357 -0.2316
23097W        W41301  13.226   7.538   3.987  0.2860 -0.1046  0.3286
23098W        W41302  13.037  17.911   4.904 -0.3420  0.1624  0.1024
23099W        W41303   8.979  13.710  14.730  0.0341 -0.3243  0.0724
23100W        W41304  10.593  17.131   3.458 -0.3446  0.0445 -0.1283
23101W        W41305  13.921  10.812   2.086 -0.1930  0.1701 -0.0713
23102W        W41306  11.092   9.114  13.513  0.1552  0.0206 -0.0025
23103W        W41307  14.778  15.553   2.135  0.3376  0.0831  0.0050
23104W        W41308   4.977  15.850  12.157  0.2659  0.0600  0.0964
23105W        W41309   5.014  15.147  12.390  0.3845  0.1068  0.3219
23106W        W41310   7.798  17.863   1.512 -0.0038 -0.0456 -0.1626
23107W        W41311  17.923  18.579  10.458  0.1127  0.1697 -0.0412
23108W        W41312  18.671   2.839  12.384  0.1533 -0.2688  0.0941
23109W        W41313  12.092   5.631  14.893 -0.1240  0.0951  0.0604
23110W        W41314  17.038   3.712   2.237  0.0831  0.1375 -0.0279
23111W        W41315  15.977  15.163  14.749 -0.0515  0.2445  0.1802
23112W        W41316  16.451   8.921   2.921 -0.0016  0.1677  0.1681
23113W        W41317  10.066  13.614   4.708 -0.4013 -0.0532  0.0963
23114W        W41318   9.239   9.586   1.216 -0.0960  0.0638 -0.1535
23115W        W41319  10.974  12.286   4.135 -0.2218  0.0100  0.0100
23116W        W41320   2.441   4.593  12.925  0.2261  0.1555 -0.1488
23117W        W41321   9.999   0.390  12.509 -0.0054 -0.0080 -0.0040
23118W        W41322   8.411   3.036  14.952  0.0039 -0.4369  0.0639
23119W        W41323   5.639  17.145  12.911 -0.0195 -0.2081  0.1222
23120W        W41324   6.098   9.317  12.488  0.0498  0.1178  0.3091
23121W        W41325  17.894   7.055  15.431  0.0148 -0.1038  0.3202
23122W        W41326  16.671  15.112   4.469 -0.2288 -0.0729  0.1840
23123W        W41327  16.944   1.420   0.231  0.1300  0.3206  0.0605
23124W        W41328   0.185   9.721  12.692  0.4884 -0.2935 -0.2386
23125W        W41329  14.077  11.650  11.041  0.1166 -0.1214  0.2678
23126W        W41330  11.968   9.813   2.786  0.0606 -0.3677 -0.0182
23127W        W41331   6.342  10.865   0.881 -0.2992  0.1131 -0.2242
23128W        W41332  12.259   8.083   2.408 -0.1668 -0.1317  0.2246
23129W        W41333  12.844  10.062  14.161 -0.1976  0.0796 -0.2474
23130W        W41334  10.570  12.013   4.146  0.2593  0.0986  0.0082
23131W        W41335   6.593   5.983  10.960  0.2739  0.0574 -0.3393
23132W        W41336  13.740   1.915   0.169 -0.0583  0.2417  0.2364
23133W        W41337   2.911  13.240   5.163 -0.2112  0.2212  0.0760
23134W        W41338  16.892   1.805  14.570 -0.3328  0.1175  0.0976
23135W        W41339  12.821   7.884   3.595 -0.0619  0.0610 -0.0967
23136W        W41340  16.330  18.143   3.006  0.4990  0.0167 -0.0302
23137W        W41341   4.636   3.527  13.934 -0.2616 -0.0236 -0.0851
23138W        W41342   2.817  16.964   3.339  0.2452 -0.1953 -0.2725
23139W        W41343  11.012   6.059   4.049  0.0310 -0.0233  0.0284
23140W        W41344   2.436   0.507   4.074 -0.3174  0.0759  0.3109
23141W        W41345  14.085   0.452   0.417  0.3214 -0.0202  0.0410
23142W        W41346  13.458   8.675  13.607  0.1806  0.1682  0.1284
23143W        W41347   9.202   6.647  12.005 -0.0202  0.1760  0.0807
23144W        W41348  12.146   9.110  14.210  0.0916  0.2682  0.0343
23145W        W41349  15.290   2.777   2.292 -0.1318 -0.1060 -0.0111
23146W        W41350   5.871  12.524  12.844 -0.0800  0.1782  0.0396
23147W        W41351  17.438   9.140   2.979 -0.0079 -0.2529 -0.1050
23148W        W41352  10.773   7.487  11.401 -0.2439 -0.0847 -0.1297
23149W        W41353  18.527  16.388   0.278  0.4507  0.0156 -0.1967
23150W        W41354   0.276   6.410  12.455  0.1942  0.0392  0.0502
23151W        W41355   7.625  14.375   2.650 -0.1163  0.1190 -0.1416
23152W        W41356  11.441   6.231  13.011  0.1478  0.1410  0.4640
23153W        W41357  10.092   8.077   2.047 -0.0621 -0.0692  0.1429
23154W        W41358   5.600   7.660   3.853 -0.3172 -0.1016  0.0009
23155W        W41359  14.048  10.220   3.986 -0.1429  0.0256 -0.1801
23156W        W41360   9.574  13.375   0.222 -0.1291 -0.0678 -0.0618
23157W        W41361  11.223   1.220   1.404  0.0997 -0.0211  0.0721
23158W        W41362   7.451   7.613   1.904  0.0944 -0.2111 -0.3025
23159W        W41363   6.906  15.679  13.497  0.4794  0.1821  0.2404
23160W        W41364   7.194  15.551   2.054  0.0134 -0.2998 -0.2153
23161W        W41365  16.334   2.182  15.220  0.0011 -0.1759 -0.1504
23162W        W41366  11.193   9.814  14.855  0.1326 -0.1462 -0.3005
23163W        W41367   3.208  10.073   3.600  0.2115 -0.1782 -0.0901
23164W        W41368  13.138  18.685   0.572 -0.1155  0.1090  0.1500
23165W        W41369   5.284   7.145  14.802  0.1199 -0.2072  0.2588
23166W        W41370   6.164   3.888   4.074  0.1978 -0.1711  0.1478
23167W        W41371  17.984   5.309  12.919 -0.3442  0.2471  0.1454
23168W        W41372   8.906  13.222   2.542  0.1362 -0.0019  0.1187
23169W        W41373   1.597   9.044   1.316 -0.1716 -0.0565 -0.0399
23170W        W41374  12.391   9.100  11.105 -0.2001  0.0493 -0.2042
23171W        W41375  12.527   6.897   1.140 -0.6921 -0.0590 -0.3084
23172W        W41376  17.866   3.432  13.460 -0.1308  0.0939  0.1453
23173W        W41377  11.570   1.370  12.347 -0.3493 -0.1123 -0.2117
23174W        W41378   5.006  18.146   0.920  0.2307 -0.2810  0.0117
23175W        W41379  13.870   1.563  11.061 -0.1523 -0.2544 -0.1722
23176W        W41380  12.366   8.302  11.426 -0.0338 -0.0320  0.0200
23177W        W41381  12.115  14.692   0.897  0.0432 -0.0501 -0.3552
23178W        W41382   6.019  13.287  14.601 -0.0028  0.2316  0.2520
23179W        W41383  14.318  10.483   4.477  0.0288 -0.1848 -0.0666
23180W        W41384  12.063  13.753  12.895 -0.1766 -0.0975  0.0288
23181W        W41385   2.036   6.092   0.560 -0.0800  0.1736  0.1226
23182W        W41386  12.070   8.589   3.905  0.2678  0.1880  0.0282
23183W        W41387   3.576   9.481  13.562  0.1264 -0.1987  0.0625
23184W        W41388   6.003  13.158  14.047 -0.0333 -0.2532 -0.1033
23185W        W41389   5.043   1.957   2.869 -0.0122  0.3167  0.3812
23186W        W41390  14.994   4.879  14.270  0.3222 -0.0960  0.0110
23187W        W41391  17.760   9.194   3.425  0.3059 -0.1888  0.0643
23188W        W41392   7.490   7.876  15.006 -0.0747 -0.0095 -0.1777
23189W        W41393   6.518   8.778  10.804 -0.2352 -0.0002  0.3000
23190W        W41394  11.898   4.236   3.831 -0.0924  0.5633 -0.0942
23191W        W41395   6.875  11.840   3.482  0.1726 -0.1284 -0.1440
23192W        W41396  15.979   9.794   3.789  0.0781 -0.2496 -0.3329
23193W        W41397  13.392  10.486   2.036  0.0290 -0.2468  0.3344
23194W        W41398  12.892  12.582   4.974 -0.1638  0.3021 -0.1187
23195W        W41399   1.893  18.604   3.694 -0.0424 -0.3343  0.0150
23196W        W41400  13.133   8.566  14.804 -0.0969 -0.0234 -0.2200
23197W        W41401   8.068  14.330  14.649 -0.0143 -0.3660 -0.2253
23198W        W41402   7.249  15.924  13.953  0.3092 -0.0436  0.0502
23199W        W41403   1.029   6.911   2.950 -0.0239 -0.1959 -0.1112
23200W        W41404  10.649   4.726   0.452 -0.1841 -0.2054 -0.1211
23201W        W41405   1.119  13.101   0.444  0.0537  0.0662 -0.1331
23202W        W41406   5.753  11.766   3.463 -0.3599 -0.0942  0.0245
23203W        W41407  15.114   9.266  14.499 -0.2044  0.0437  0.1210
23204W        W41408   1.520   8.937   4.337 -0.3339  0.1866 -0.1801
23205W        W41409   7.631   9.386  12.239 -0.1103 -0.2735 -0.2168
23206W        W41410   6.423  17.433   4.612 -0.0672 -0.3560 -0.1593
23207W        W41411  11.862   3.458  12.220 -0.0396 -0.0573 -0.0416
23208W        W41412  18.162  12.314  12.900 -0.0251  0.0620  0.2404
23209W        W41413   0.069   1.636   1.965  0.2534 -0.2489 -0.4030
23210W        W41414  11.102   6.911   1.127 -0.0173 -0.2114 -0.2653
23211W        W41415   3.809   7.975   1.857 -0.0715 -0.2861  0.0054
23212W        W41416   9.115  16.408  14.437  0.0753  0.0502  0.2031
23213W        W41417  16.159  13.834  14.796 -0.0135 -0.1320  0.1375
23214W        W41418  16.532   2.234  14.773  0.3462 -0.2698  0.0763
23215W        W41419   6.594  17.944   3.744  0.0404  0.3936 -0.2115
23216W        W41420  14.981  16.911   3.734  0.3792  0.2221  0.0110
23217W        W41421  16.533  11.695   1.768  0.0070 -0.0850  0.0091
23218W        W41422   5.370   3.264  12.685 -0.3000 -0.0781  0.0474
23219W        W41423   5.124  10.546   2.900  0.1526  0.3077  0.2062
23220W        W41424  12.762  10.736  11.598 -0.0603  0.0214  0.1304
23221W        W41425   1.166  15.846   2.224  0.4834  0.1133 -0.0337
23222W        W41426  10.093  13.422   3.018  0.0103 -0.0942  0.0440
23223W        W41427   5.183  14.792   3.385 -0.0376 -0.0729  0.2706
23224W        W41428  14.005  18.387  14.872 -0.1872  0.2641  0.2391
23225W        W41429   5.602  11.177  13.223 -0.0041  0.3259  0.0564
23226W        W41430  16.347  16.678  14.834  0.1236 -0.2320 -0.3480
23227W        W41431   5.103   4.367  13.309 -0.2468  0.2827 -0.0432
23228W        W41432   6.032   7.467   4.576  0.2211 -0.0118  0.0158
23229W        W41433   9.851   3.913   1.819 -0.3673 -0.0695  0.1125
23230W        W41434   0.100   5.451   1.549  0.2207  0.0227 -0.3777
23231W        W41435  12.297  18.599  12.536  0.3561  0.0664 -0.1235
23232W        W41436  16.899   3.528  14.026 -0.0052 -0.1458 -0.0947
23233W        W41437   0.023   7.196  13.610 -0.0834  0.1232 -0.1608
23234W        W41438   2.824   2.701  13.813 -0.0163 -0.0219 -0.0465
23235W        W41439   3.981   1.006   1.103  0.1201 -0.2485  0.0170
23236W        W41440   1.239   2.814   1.709  0.0554  0.0269 -0.0609
23237W        W41441   5.685   7.876   2.294  0.1305  0.2813  0.1281
23238W        W41442   6.795   1.309   1.049  0.2950 -0.2211 -0.0781
23239W        W41443   1.017   9.696   4.244  0.4122 -0.1699 -0.0659
23240W        W41444   0.552  12.295   0.110 -0.1348 -0.2063  0.1365
23241W        W41445   8.810   9.690   3.940  0.4173 -0.0409  0.0337
23242W        W41446  18.033  17.772  14.024 -0.0502  0.0445 -0.1747
23243W        W41447  10.649   3.124   3.639 -0.2745 -0.1240 -0.0883
23244W        W41448   4.786   9.314   2.828 -0.3453  0.3463 -0.0148
23245W        W41449   2.748  17.035   2.285  0.3265 -0.1001  0.0284
23246W        W41450   6.154  14.876  14.021 -0.2162  0.2279 -0.4808
23247W        W41451   2.397   1.082   0.387  0.0448  0.2204  0.0248
23248W        W41452   0.305  16.116   1.005  0.1820 -0.0281 -0.1994
23249W        W41453  17.025  11.456   3.780 -0.1865 -0.1080 -0.1118
23250W        W41454   0.724   6.601  10.764 -0.1664 -0.1701 -0.1367
23251W        W41455   5.667   3.138  13.917 -0.0868  0.2898  0.1428
23252W        W41456   7.299   8.967   0.374  0.1098 -0.1287  0.1257
23253W        W41457  13.396   4.531  10.942  0.0661 -0.3914 -0.0319
23254W        W41458   2.586  16.267   0.921 -0.0532  0.0702  0.3416
23255W        W41459  16.284  14.685  11.395  0.4553  0.1901  0.1738
23256W        W41460   2.785   1.725  12.529 -0.0510  0.1612 -0.2667
23257W        W41461  14.269   1.165   4.035 -0.2244 -0.5016 -0.3133
23258W        W41462   8.503  14.404   1.651 -0.0965 -0.0006 -0.2367
23259W        W41463  18.294  10.501  11.968  0.3452 -0.0955  0.0078
23260W        W41464  15.919   9.223  13.833  0.2147  0.3643 -0.0808
23261W        W41465  15.113   8.503  13.356 -0.2327 -0.1032  0.3510
23262W        W41466  11.993   4.211  14.987 -0.2437  0.1425  0.1808
23263W        W41467  11.702   2.638  10.072  0.0192 -0.1131 -0.0335
23264W        W41468   0.911   1.500   1.582  0.1420  0.0479 -0.1105
23265W        W41469  16.470   3.638  13.682  0.0982  0.0564  0.3099
23266W        W41470   3.096  18.509  13.791 -0.0530 -0.1486 -0.2125
23267W        W41471   2.038  10.594   0.398  0.1100  0.4742  0.0232
23268W        W41472   4.168   0.896   0.662  0.0803  0.1667  0.3380
23269W        W41473   0.023  15.175  14.311 -0.0176  0.1465  0.0321
23270W        W41474  15.338  11.801   3.323 -0.0841 -0.3402  0.2151
23271W        W41475  11.534   2.119   3.410  0.2648  0.1038  0.2940
23272W        W41476  10.938   3.640   0.363 -0.3540 -0.0686 -0.2279
23273W        W41477   0.768   6.581  13.501  0.0643  0.2408 -0.0254
23274W        W41478   9.881  15.406   1.255 -0.0243  0.0882  0.1712
23275W        W41479  14.689  14.185  12.431 -0.0850  0.0075  0.1751
23276W        W41480   4.848   0.505   9.479  0.0515 -0.0198 -0.2221
23277W        W41481   9.065   1.269   2.863  0.0812 -0.2314  0.1440
23278W        W41482  18.504   0.249   0.160  0.0342 -0.1514  0.2119
23279W        W41483   6.269  16.874  13.613 -0.1028 -0.1376 -0.0927
23280W        W41484   7.573   4.302   3.112 -0.0888  0.0289  0.2920
23281W        W41485   2.401  13.889   0.832  0.1043 -0.0856  0.2247
23282W        W41486  14.238   5.397  14.448  0.1040 -0.1748  0.0342
23283W        W41487  15.485  11.134  12.970 -0.0818  0.0980 -0.4670
23284W        W41488   7.731  18.097   1.110  0.3548 -0.1256 -0.2213
23285W        W41489   4.032   6.786  13.500  0.2336  0.1402  0.2101
23286W        W41490  14.136  15.719  13.121 -0.2732  0.0253  0.2173
23287W        W41491   7.337  13.205   1.320 -0.1292  0.0350 -0.0312
23288W        W41492  16.536  10.800  14.923  0.4508 -0.4862  0.1867
23289W        W41493  14.736  17.712   4.061 -0.0352  0.0262  0.2037
23290W        W41494  10.572  17.736   2.224  0.3626 -0.4148 -0.0020
23291W        W41495   1.991   7.490  12.493  0.0069 -0.1009  0.3437
23292W        W41496   5.276   0.981  12.997 -0.1735  0.1042  0.0196
23293W        W41497   0.033   9.479  10.678 -0.3163 -0.0816 -0.3038
23294W        W41498   6.306   1.304  10.447  0.2473  0.0925 -0.0965
23295W        W41499  15.212   0.543   0.321  0.3077  0.0010 -0.3018
23296W        W41500  15.652   4.078   3.749 -0.1754  0.2791  0.1626
23297W        W41501  11.617   3.747   0.164 -0.0385 -0.0383 -0.0330
23298W        W41502   6.121   0.907   9.563 -0.1320 -0.0044  0.1209
23299W        W41503   4.617   1.371   3.538 -0.0665 -0.1556  0.0220
23300W        W41504  15.833   8.968   0.396 -0.0042  0.1101  0.0065
23301W        W41505   0.947   5.207   1.334 -0.1583 -0.3332 -0.0761
23302W        W41506   3.962  12.602  12.672  0.1902 -0.2474 -0.1796
23303W        W41507  18.211   1.181   0.802 -0.2670 -0.2788  0.2410
23304W        W41508   3.388  13.707   1.621  0.0486  0.1174  0.0855
23305W        W41509  18.328  11.093  11.769 -0.3836  0.1974 -0.0731
23306W        W41510   6.517  15.218  13.746 -0.0756  0.0001  0.1590
23307W        W41511   3.384   7.497  13.408  0.1235 -0.1145  0.1834
23308W        W41512  12.307   4.695  14.141 -0.0314  0.0167 -0.3961
23309W        W41513   9.946  12.231  12.703  0.1282  0.0633  0.0272
23310W        W41514  18.341   7.629   2.514 -0.1994 -0.2569  0.0765
23311W        W41515   0.945  12.978   1.486 -0.0432 -0.3907  0.1941
23312W        W41516   5.059  11.647   1.952  0.2745  0.1720 -0.0315
23313W        W41517  16.677  17.042   0.980  0.0370  0.0300 -0.2412
23314W        W41518  13.319  13.609   2.583 -0.1338  0.2966  0.1237
23315W        W41519   3.335  10.300  14.192 -0.1182  0.3160 -0.2491
23316W        W41520  15.241  10.227  10.574 -0.1866 -0.2940 -0.1226
23317W        W41521  13.054  17.049   3.332 -0.2564 -0.4059 -0.0709
23318W        W41522   0.976   2.415  14.466 -0.1829  0.1156 -0.1188
23319W        W41523  14.232   5.297   3.968  0.0734  0.1302 -0.2189
23320W        W41524   9.706  18.399   3.540  0.0153  0.1089 -0.4685
23321W        W41525   8.173   0.794   3.071 -0.0377 -0.2212 -0.1538
23322W        W41526   6.588  12.670  10.395  0.1174  0.0449 -0.0996
23323W        W41527   9.503   7.934  13.322  0.0527  0.0450  0.1392
23324W        W41528  12.544  11.189  14.186 -0.0737 -0.0860  0.2678
23325W        W41529   3.399  16.962  12.676  0.0967  0.0054  0.1599
23326W        W41530   9.738  16.534  10.267  0.0380 -0.4093 -0.4061
23327W        W41531  18.060  16.411   0.571  0.0062 -0.2256  0.0407
23328W        W41532  16.649  14.415   2.088  0.0187 -0.1606 -0.5061
23329W        W41533   4.322  13.597   0.926 -0.0528  0.0058 -0.0166
23330W        W41534  11.589  12.711  14.626  0.2099 -0.0077  0.0384
23331W        W41535   4.124  10.013  11.503  0.2219 -0.2765  0.0393
23332W        W41536   9.175  11.678   4.634  0.0588 -0.1863 -0.0182
23333W        W41537   8.843   5.082  10.730  0.3581  0.0137  0.0243
23334W        W41538   2.603   5.762  12.212  0.2363 -0.0173 -0.0496
23335W        W41539  10.291   8.120   1.550  0.1259 -0.1718  0.0740
23336W        W41540   0.381  14.313  11.262  0.0952  0.1362 -0.1178
23337W        W41541  16.722   9.176  14.620 -0.1246 -0.0979 -0.1593
23338W        W41542  14.804  17.840   0.419  0.0106  0.0440  0.1107
23339W        W41543  16.114  15.576  12.519  0.4332  0.0380  0.2771
23340W        W41544   3.072   8.443   3.791  0.0790 -0.2140 -0.2596
23341W        W41545  13.567  10.186  11.241 -0.2486 -0.4454 -0.1523
23342W        W41546   8.326   3.561   0.277 -0.1173  0.1564  0.0838
23343W        W41547  15.991   8.261   1.111 -0.3170  0.0399  0.0880
23344W        W41548   3.860   3.700   9.850  0.0746  0.0005 -0.2509
23345W        W41549   2.725   2.719   2.358 -0.1442  0.2061  0.1030
23346W        W41550  12.551   9.766   3.515 -0.0395  0.1450 -0.2970
23347W        W41551  11.069  12.067  11.906 -0.2259 -0.0526  0.0773
23348W        W41552  16.357  17.014   3.800  0.1278  0.0910  0.0067
23349W        W41553   8.958  15.285   0.568  0.1492  0.0224  0.1566
23350W        W41554   2.882  15.430   3.405 -0.0015  0.3041  0.0790
23351W        W41555  10.234   5.078   2.596 -0.0885 -0.1706  0.0582
23352W        W41556  16.842  12.303  13.870  0.1128 -0.3320 -0.0658
23353W        W41557   5.356  10.000  13.942 -0.3435  0.1944  0.2515
23354W        W41558   6.700   5.369  13.365  0.0785 -0.3261  0.1235
23355W        W41559   4.342   9.552  14.107 -0.1562 -0.0258 -0.2101
23356W        W41560   1.362   4.649   2.391 -0.0555  0.0676  0.2522
23357W        W41561  17.886  17.760  14.867  0.2972  0.0451 -0.1071
23358W        W41562   8.280   6.962  14.500  0.2108 -0.1085  0.0091
23359W        W41563  18.694   3.808   4.904  0.3174  0.3128 -0.0004
23360W        W41564  12.609  14.928  12.108 -0.3178  0.4414  0.0286
23361W        W41565   3.640  12.436  14.329  0.4024  0.0003 -0.2534
23362W        W41566   3.518  14.918  10.857  0.1444 -0.0617  0.2083
23363W        W41567   1.639   9.675  12.447  0.1519 -0.0726 -0.1525
23364W        W41568   8.646   5.827   4.401 -0.0114  0.3356 -0.0946
23365W        W41569  13.119   5.151  15.026  0.1886  0.3344 -0.2003
23366W        W41570   1.013   4.966   3.063  0.2736 -0.0876  0.3768
23367W        W41571   9.362   4.123   1.826  0.2284  0.0154 -0.0302
23368W        W41572   8.181   8.571   4.236 -0.1144  0.1143  0.0694
23369W        W41573   6.231  11.750  15.199 -0.0093 -0.1651 -0.3172
23370W        W41574   1.659  10.908   1.078 -0.0914  0.0343  0.2997
23371W        W41575   0.475   9.623  15.186 -0.0070 -0.3222  0.2280
23372W        W41576  16.640   2.546   3.694  0.2546 -0.0014  0.2922
23373W        W41577   2.309  11.326  15.147 -0.1883 -0.2236  0.0868
23374W        W41578  12.070   7.197  11.935 -0.1215 -0.0596 -0.0301
23375W        W41579   6.925  17.303   0.844  0.3048 -0.0606 -0.0090
23376W        W41580  18.631  13.718  14.862 -0.2099  0.0116 -0.1974
23377W        W41581  16.165   7.587   2.353 -0.0187 -0.1845  0.2921
23378W        W41582   0.434   2.584  10.551 -0.2492  0.1555  0.1956
23379W        W41583   0.193  16.950  10.254 -0.0179 -0.1592 -0.2768
23380W        W41584   0.709   5.810   1.117  0.0048  0.0068 -0.1470
23381W        W41585  18.369   5.341  12.629 -0.0972 -0.0224  0.0861
23382W        W41586  14.003  18.284   4.438 -0.0362 -0.1930  0.2978
23383W        W41587   0.403   8.920   1.432  0.2729 -0.0927 -0.0123
23384W        W41588   6.228   2.915  12.865 -0.0607  0.3718  0.2042
23385W        W41589  13.707   8.953   1.887  0.0117  0.2329  0.1160
23386W        W41590   1.701   3.403  13.350 -0.2600 -0.0032  0.0846
23387W        W41591  13.924   7.908  13.163  0.0703 -0.1131 -0.0470
23388W        W41592  14.090  15.659   3.761  0.0551 -0.1078 -0.0324
23389W        W41593   2.954  15.295   5.593 -0.2061  0.0233  0.2049
23390W        W41594  10.914   9.075   1.376 -0.0768  0.0710  0.0844
23391W        W41595   9.917   5.502   1.394  0.4357  0.1229  0.1053
23392W        W41596   5.760   4.841  13.360 -0.0650 -0.1170  0.3981
23393W        W41597   8.086   9.543  14.984  0.1269  0.2788  0.1531
23394W        W41598   7.587  14.655  12.394 -0.5119  0.2035  0.0035
23395W        W41599   9.484   8.367  15.432 -0.4840  0.1100  0.2685
23396W        W41600   8.158   1.509   1.746 -0.1713  0.1594  0.1170
23397W        W41601   5.044   8.253   0.004 -0.0439 -0.1095  0.0918
23398W        W41602   3.014   6.759  14.854 -0.2931  0.2347  0.2759
23399W        W41603   0.865   0.652   4.725  0.0163  0.1672 -0.0808
23400W        W41604  17.913   3.126  11.229 -0.0973 -0.0121  0.1419
23401W        W41605   1.961  18.421  14.436 -0.1691 -0.0931  0.0647
23402W        W41606  13.623   0.587  12.328 -0.2411 -0.1488 -0.3592
23403W        W41607   9.855   6.707   2.379  0.0587 -0.2552  0.0302
23404W        W41608  10.286   3.661   1.788 -0.0704 -0.0391  0.3953
23405W        W41609   0.850  12.582  11.627 -0.0264  0.2815 -0.0296
23406W        W41610  17.631  16.615  11.871  0.0444 -0.0519 -0.2324
23407W        W41611   5.046   5.398  14.415  0.1312  0.2193  0.0020
23408W        W41612   0.976   6.188  12.974 -0.0218 -0.0096  0.1680
23409W        W41613  16.432   6.490   4.493 -0.0970  0.0636  0.2109
23410W        W41614   2.877  15.889   3.710 -0.0204  0.1478 -0.1025
23411W        W41615   4.219   3.202  14.643  0.1533  0.0414  0.0094
23412W        W41616   8.235  14.195   1.274  0.0908  0.0091 -0.0424
23413W        W41617   2.662   7.632   4.344 -0.1286 -0.0448  0.0893
23414W        W41618  14.947   3.792   2.005  0.0411  0.0884 -0.0694
23415W        W41619   3.090   2.949  12.757 -0.0464 -0.1823  0.0983
23416W        W41620   9.762  11.781  12.494  0.1275 -0.1270 -0.3392
23417W        W41621   0.460   5.449   3.514 -0.4534  0.0469 -0.2565
23418W        W41622   1.073   2.463   3.718  0.0825 -0.1070 -0.3428
23419W        W41623  18.016   1.056  12.585  0.1622  0.0672 -0.2015
23420W        W41624  15.686   3.222   1.657 -0.2397  0.1146 -0.0535
23421W        W41625   0.505  16.566  12.326  0.1338 -0.1799 -0.3180
23422W        W41626   7.132   2.329  13.150  0.0739  0.0060  0.0637
23423W        W41627   9.361   0.214  15.463  0.3443 -0.0001  0.1931
23424W        W41628   2.577  15.208  14.192  0.3808 -0.1611 -0.2573
23425W        W41629  10.902   7.631   2.111  0.2104 -0.0067 -0.0531
23426W        W41630  10.054   6.273  11.331  0.0664  0.2158 -0.0753
23427W        W41631  17.179  18.641  14.344  0.0288  0.0865  0.0041
23428W        W41632  11.846   8.789   2.458  0.0152  0.1160  0.0180
23429W        W41633   1.878   6.650  13.922 -0.0547  0.1598  0.0622
23430W        W41634  10.796   8.590   1.898 -0.0522  0.2766  0.4018
23431W        W41635   9.841  15.301  13.288 -0.1838 -0.0590  0.1984
23432W        W41636   8.118  14.787  14.360  0.0033 -0.1098  0.1620
23433W        W41637   8.099  10.679   0.531 -0.1120 -0.1867 -0.2175
23434W        W41638   3.154  18.138   0.688  0.1213  0.1372  0.2615
23435W        W41639  17.330   0.793  11.941  0.0419 -0.0189  0.1970
23436W        W41640   6.234  16.066   0.163  0.1982 -0.0827  0.2253
23437W        W41641   7.308  17.596  13.715  0.1863 -0.1139  0.0948
23438W        W41642  17.493  17.637   3.847  0.2955 -0.0179  0.0357
23439W        W41643   0.165   7.094   1.446  0.0324  0.4793  0.1328
23440W        W41644  11.425  13.249  15.296  0.0728 -0.1094 -0.2518
23441W        W41645   2.279   7.560  15.447 -0.0427  0.4014 -0.0738
23442W        W41646   6.513   5.500   3.342  0.1100 -0.1161 -0.0091
23443W        W41647   2.882   7.890  11.965 -0.1328 -0.1010 -0.1505
23444W        W41648   1.661   4.288  13.494 -0.0547 -0.1459 -0.1983
23445W        W41649   3.354   0.974  14.499 -0.1059 -0.0623 -0.1745
23446W        W41650   0.836  17.812  11.408 -0.1652  0.0099  0.0742
23447W        W41651   3.725   6.072  15.305 -0.0338  0.0235  0.0325
23448W        W41652   3.371   4.933  15.292 -0.0393  0.2133 -0.1330
23449W        W41653  13.655  13.260  15.427  0.1369 -0.0915  0.1200
23450W        W41654   7.271   5.921   4.803 -0.1266 -0.1735 -0.2087
23451W        W41655  11.346  15.693  12.666  0.1163  0.1411  0.2050
23452W        W41656  13.555  16.112   5.491  0.0118  0.2322 -0.2750
23453W        W41657  11.227   2.245   3.782  0.1210 -0.2762 -0.2070
23454W        W41658  18.171   7.913  12.187  0.1210  0.0509  0.1578
23455W        W41659   0.906  14.967   2.749  0.0736 -0.1456  0.0227
23456W        W41660   1.004  13.872  13.453  0.0754 -0.2267 -0.1112
23457W        W41661   8.569  14.878  14.049 -0.1245  0.2198  0.0479
23458W        W41662  11.101   4.965   0.185  0.0838 -0.3868 -0.0642
23459W        W41663   0.048   8.371   4.383  0.0263 -0.0303  0.1986
23460W        W41664   3.773   8.024   2.820  0.0294 -0.0932 -0.0914
23461W        W41665  17.823  14.453   3.453 -0.1848  0.2202 -0.0064
23462W        W41666   1.095  11.432   3.847  0.0661  0.1447  0.2180
23463W        W41667   4.606  17.384   0.381 -0.1203  0.4271 -0.0493
23464W        W41668   0.705  16.939   2.184  0.1626 -0.0389 -0.0616
23465W        W41669   3.120  14.824   3.692 -0.2645  0.2560  0.0170
23466W        W41670  16.450   8.754  14.418 -0.1044 -0.0631 -0.3296
23467W        W41671  11.014  16.499   0.815 -0.1139  0.3431  0.1156
23468W        W41672  14.503   7.851  12.135 -0.0654  0.2933  0.0214
23469W        W41673  12.705   1.960  13.582  0.2463  0.1794 -0.0466
23470W        W41674   1.936   8.056   3.101 -0.1729 -0.0326  0.1454
23471W        W41675   9.155   1.805  15.210 -0.0172 -0.3906  0.1946
23472W        W41676   4.968  16.187   3.649  0.0096 -0.2959  0.0270
23473W        W41677   0.052  11.415  14.871 -0.0901 -0.2572 -0.1201
23474W        W41678   1.510   5.890   0.134  0.0810  0.0612 -0.5388
23475W        W41679   4.542  10.957   3.597  0.0736  0.4190 -0.2603
23476W        W41680  16.120   4.813  11.307 -0.0161  0.2414  0.1760
23477W        W41681  12.861   3.071   3.191  0.4614 -0.0216  0.1064
23478W        W41682   0.798   5.536   2.102  0.2022  0.0863 -0.1867
23479W        W41683   0.697  17.715   0.110 -0.0472  0.2067  0.0191
23480W        W41684  16.401  15.967  11.151 -0.1009  0.0659  0.0112
23481W        W41685   7.054   9.780  13.603 -0.0912  0.0530 -0.2452
23482W        W41686   1.263  12.088   2.315  0.2250 -0.2340  0.0441
23483W        W41687  14.368   5.847   1.622  0.1886  0.1117  0.0893
23484W        W41688  17.494  16.717  12.637  0.1793 -0.6767  0.2333
23485W        W41689   2.007   4.287  14.412  0.2848  0.2619 -0.0630
23486W        W41690  17.802   9.136  14.629 -0.2112 -0.1234  0.0691
23487W        W41691   7.074   0.245  15.106 -0.1032 -0.1705  0.0534
23488W        W41692   5.141  12.321  13.827  0.2745  0.2858  0.2100
23489W        W41693  14.214  11.014   3.564  0.1383  0.1204  0.0845
23490W        W41694  14.918  11.626   4.993  0.0753 -0.1570 -0.2227
23491W        W41695   3.654   1.398  10.398 -0.0901 -0.2646 -0.1400
23492W        W41696  14.239  15.311   1.832  0.3707 -0.1390 -0.0561
23493W        W41697   9.987  12.080   4.498  0.3086 -0.1683 -0.2557
23494W        W41698  16.194   6.232  12.152 -0.0138  0.1792  0.2785
23495W        W41699  17.159   8.190   3.283 -0.3070  0.0467  0.0577
23496W        W41700   0.014   6.606   3.991  0.1545 -0.2404 -0.0076
23497W        W41701  14.043   9.446  13.534  0.1009  0.0972 -0.0874
23498W        W41702   3.131  18.264  14.256 -0.0909  0.1156  0.2920
23499W        W41703  12.316  15.526   9.854 -0.1352  0.0606 -0.1517
23500W        W41704  11.632   3.536  14.278 -0.0638  0.1873 -0.2393
23501W        W41705   6.306  13.645  12.088 -0.1229  0.2213  0.6077
23502W        W41706   1.677  16.154   2.131 -0.1849  0.1654  0.1062
23503W        W41707  11.782   3.283  15.418 -0.1400 -0.3453  0.0057
23504W        W41708   2.410   6.818   4.749 -0.1691 -0.1670 -0.2015
23505W        W41709   1.743   1.915  14.113 -0.0222  0.1519  0.0313
23506W        W41710  16.206   6.337  10.552 -0.0242 -0.1829 -0.2363
23507W        W41711  11.183   5.371  13.982 -0.0261  0.1921  0.1567
23508W        W41712  14.998   1.882   4.479  0.0906  0.0928 -0.2343
23509W        W41713  15.174   6.690   0.403 -0.0341  0.3015 -0.0750
23510W        W41714   7.916   6.964   0.454  0.0462 -0.0111  0.1827
23511W        W41715  14.800  17.607   3.137 -0.0172 -0.1000  0.1271
23512W        W41716  15.443  13.531   5.109 -0.3058  0.0948  0.0338
23513W        W41717   8.755  10.733   3.207  0.1769 -0.1977  0.2122
23514W        W41718  12.278   0.143   3.282 -0.1668 -0.0564  0.0034
23515W        W41719  14.616   9.026  14.908 -0.2201 -0.3632  0.0085
23516W        W41720  12.313   5.349   1.422 -0.1191  0.1629  0.0432
23517W        W41721   9.179  15.314   4.565 -0.1094  0.0242  0.1105
23518W        W41722   3.252  17.775  10.964  0.1679  0.2666 -0.0739
23519W        W41723  17.452   7.297   0.795 -0.4581 -0.0782  0.0662
23520W        W41724  16.245  16.703   3.410 -0.0842 -0.2087  0.1616
23521W        W41725   9.619   7.814   0.027 -0.2580  0.1792  0.3177
23522W        W41726  16.924   8.671  14.503 -0.2320  0.2350  0.1280
23523W        W41727  17.153   8.998   2.537 -0.2606  0.2874 -0.2279
23524W        W41728   7.045   1.519  11.190 -0.4240 -0.0735 -0.0533
23525W        W41729  12.274   6.605   3.817  0.0298 -0.3004  0.1838
23526W        W41730   2.448   5.179  12.126  0.2855 -0.5879 -0.0620
23527W        W41731   6.148   7.393   1.508 -0.2231 -0.0188 -0.0864
23528W        W41732  17.535  12.664  12.250  0.0182  0.1103 -0.2581
23529W        W41733  12.895  13.720   3.845 -0.0133  0.3267 -0.0805
23530W        W41734   6.885  12.797   2.529  0.1170  0.1912  0.0422
23531W        W41735   8.391   9.856  10.611 -0.0464  0.0434  0.4230
23532W        W41736   0.535   4.396   1.352  0.0661 -0.2950  0.1176
23533W        W41737  11.699   5.929  11.206 -0.0354 -0.2179 -0.1618
23534W        W41738  15.009  17.619  14.701  0.1029 -0.0551  0.2087
23535W        W41739   6.734  14.662   2.132  0.0363 -0.1569  0.2217
23536W        W41740  10.491   3.773  13.142 -0.1215  0.2355  0.1120
23537W        W41741   8.256  12.924  15.080  0.0665 -0.0361  0.0983
23538W        W41742  12.141  12.416  13.553  0.0531 -0.5151 -0.1363
23539W        W41743  17.442   1.514   3.579 -0.1131  0.0703 -0.2572
23540W        W41744   1.347  12.159   1.393  0.1099  0.0480  0.0704
23541W        W41745   1.375   9.513  11.182 -0.1850 -0.1190 -0.4084
23542W        W41746   0.760   2.022   1.509  0.0314  0.2666  0.0652
23543W        W41747  12.739  16.233  11.741 -0.0281  0.3171 -0.1371
23544W        W41748  16.744   4.700   4.346  0.1090 -0.0544  0.1016
23545W        W41749   4.053   0.568  12.984  0.1308  0.1541 -0.0680
23546W        W41750   5.864  10.792  13.502 -0.0699  0.1470  0.0059
23547W        W41751   7.459  13.595  10.739  0.2954 -0.1741  0.2769
23548W        W41752   9.353   6.418   4.539 -0.3437 -0.2040  0.1405
23549W        W41753   0.542   3.321   3.654  0.0871 -0.0014 -0.5247
23550W        W41754  11.842  18.569  13.109 -0.3643 -0.2183 -0.3516
23551W        W41755  10.338   9.422  11.692  0.0124  0.2000 -0.1008
23552W        W41756  14.393   3.230   1.257 -0.3482 -0.1636 -0.0192
23553W        W41757   8.835  16.174   0.879  0.2929  0.1329 -0.2474
23554W        W41758   9.206  17.546   9.865 -0.0820  0.2800  0.1016
23555W        W41759  16.715   3.054   2.227  0.1132  0.0070 -0.0126
23556W        W41760   7.516   8.668   0.013 -0.2333  0.1566 -0.0342
23557W        W41761   9.724   3.049  11.309 -0.2789 -0.0652  0.2502
23558W        W41762  11.795   1.918   1.338 -0.1354 -0.0694 -0.1361
23559W        W41763  15.610  16.935  14.126 -0.1746  0.0932 -0.1159
23560W        W41764   6.111   3.297   3.312  0.0172  0.1822 -0.2495
23561W        W41765   1.727   4.881  15.193 -0.1446  0.0335  0.2299
23562W        W41766  13.766  17.161  14.617  0.0870 -0.0456 -0.0733
23563W        W41767  13.291   8.309  14.406  0.1577  0.1488  0.3722
23564W        W41768  17.864  10.896   3.711  0.0420  0.0313 -0.0343
23565W        W41769  11.299   3.496  11.595 -0.0087  0.4226  0.2105
23566W        W41770  11.406  18.076  10.432 -0.0962  0.2797 -0.1408
23567W        W41771   1.377   7.528   1.627 -0.1949  0.2340 -0.0264
23568W        W41772  18.661  17.013  13.136 -0.0342  0.0412 -0.1213
23569W        W41773   6.665   0.631  12.460  0.1879  0.1238  0.2273
23570W        W41774   6.399  15.102   2.060  0.0139 -0.0674 -0.0758
23571W        W41775  12.319  18.509  13.509 -0.1992  0.1673  0.1608
23572W        W41776   6.199  16.328   3.383 -0.0470 -0.0893  0.2689
23573W        W41777   0.800   7.414  11.468 -0.0220  0.0402 -0.1238
23574W        W41778   6.250  14.770  11.672 -0.0144  0.0157 -0.2593
23575W        W41779   9.626  11.100  14.538  0.0074 -0.0497  0.0532
23576W        W41780   1.024  13.639   2.251  0.0577 -0.0056  0.0694
23577W        W41781  15.111  10.825  14.046 -0.2399 -0.0504  0.1790
23578W        W41782   8.701   5.069  13.888 -0.0543  0.2326 -0.1275
23579W        W41783   7.588  17.038  11.921 -0.0569 -0.2017 -0.0732
23580W        W41784   8.768   6.203   1.500  0.1362  0.0637  0.0991
23581W        W41785  14.568   2.159  15.311 -0.2995 -0.2423 -0.2651
23582W        W41786   5.982   5.416   1.577 -0.0045 -0.0479  0.2738
23583W        W41787  11.807  16.785  15.364 -0.2330  0.0787  0.2853
23584W        W41788  12.801   6.700   1.959  0.1677 -0.2056 -0.0920
23585W        W41789  13.002   4.332   0.688 -0.3974  0.2071 -0.2011
23586W        W41790  14.789   6.705   5.379  0.0485 -0.3270 -0.3352
23587W        W41791  16.733  15.433   2.506 -0.4098 -0.2969  0.1717
23588W        W41792   3.060  17.748   1.404 -0.0435 -0.1316  0.0548
23589W        W41793   8.467   6.413   0.585  0.0812 -0.2888  0.2425
23590W        W41794   6.344  16.140  12.933  0.0313 -0.0405  0.0807
23591W        W41795   2.725   8.833   3.776  0.0208  0.0574  0.0147
23592W        W41796  10.293   0.390  10.650  0.1971 -0.1602 -0.0356
23593W        W41797   3.693  11.423   2.721  0.2014  0.1399  0.1085
23594W        W41798  15.681   3.391  14.277 -0.1282 -0.4800  0.1493
23595W        W41799  17.589  11.518   3.022  0.0940 -0.0602  0.1193
23596W        W41800  14.129   3.821  11.551 -0.5082  0.0934 -0.1510
23597W        W41801  13.553  10.406  14.988 -0.0183 -0.0089  0.1075
23598W        W41802   0.419   1.247   2.060  0.1893  0.0038 -0.0756
23599W        W41803   3.725   4.388   0.216 -0.0916  0.1898  0.0519
23600W        W41804  13.278   7.462   0.980  0.1565  0.1502  0.3178
23601W        W41805   6.897  10.845   4.373 -0.0525  0.1129  0.0472
23602W        W41806   2.306   4.891  15.291  0.1094 -0.1282 -0.0841
23603W        W41807   4.932   5.137  12.814  0.2736 -0.1320  0.0789
23604W        W41808   9.639  13.643  14.064 -0.0323  0.0604  0.2411
23605W        W41809   8.262  15.538   2.441  0.0143 -0.0495  0.1481
23606W        W41810   2.855  14.977   1.214 -0.0635 -0.0674 -0.0507
23607W        W41811  17.811   5.639   1.904  0.0492  0.0009 -0.0861
23608W        W41812  12.587   0.172   4.076  0.1295 -0.0518  0.2144
23609W        W41813  11.944   6.408   2.970  0.1980 -0.1601 -0.0791
23610W        W41814  13.956   2.340  13.125 -0.2262 -0.0691 -0.0047
23611W        W41815  10.678   1.658  12.134 -0.2654  0.0387  0.2133
23612W        W41816  10.462  17.026  10.567 -0.1706 -0.0161 -0.1906
23613W        W41817  15.920   5.346   2.698  0.1979 -0.3591 -0.2535
23614W        W41818   2.882  16.492  14.067  0.1239  0.2090 -0.0571
23615W        W41819   4.124   2.864  15.204  0.0369  0.1374  0.3264
23616W        W41820  17.897  10.678   0.808 -0.0852  0.1229  0.0275
23617W        W41821   6.786  17.126  12.200 -0.4695  0.4073 -0.1742
23618W        W41822  17.671  13.298  14.381 -0.2523 -0.3200 -0.1199
23619W        W41823   2.789  13.026   0.253  0.0392 -0.0110 -0.0446
23620W        W41824   9.680   4.924   4.541 -0.0062 -0.1836  0.0507
23621W        W41825  11.922  18.037  15.075  0.0998  0.0976  0.2531
23622W        W41826  16.819  16.759   1.330  0.1244 -0.0270 -0.0478
23623W        W41827   4.982   2.053  14.207  0.0438 -0.2005  0.0828
23624W        W41828   1.926   3.103  11.527 -0.1700 -0.4789 -0.0354
23625W        W41829   2.486  14.333   0.402 -0.2990  0.0815  0.2021
23626W        W41830  17.360   5.155   2.697  0.1380 -0.0277  0.4715
23627W        W41831   4.955   3.997  14.899 -0.0060  0.3324 -0.1188
23628W        W41832  18.268  12.986  14.179 -0.2919  0.0427  0.2111
23629W        W41833  17.703  11.686  11.805 -0.3378 -0.0511  0.1021
23630W        W41834  16.059  13.041   1.972 -0.2855  0.1302 -0.3275
23631W        W41835  16.306   9.645   2.453 -0.1173  0.1485 -0.2861
23632W        W41836   5.779   8.981   3.436 -0.0551  0.2099 -0.2173
23633W        W41837   7.600  15.919  15.029  0.3897  0.0333 -0.1718
23634W        W41838   4.294   6.733   1.967  0.1352  0.2577  0.1964
23635W        W41839   1.231  17.987  13.071 -0.1573 -0.1056 -0.4376
23636W        W41840   3.975   7.265   3.672 -0.3413  0.1350  0.1646
23637W        W41841   9.624   7.051  15.354 -0.1925  0.1252  0.0826
23638W        W41842   1.463   9.581  15.421  0.1112  0.3834 -0.1284
23639W        W41843  18.288   3.443  12.435 -0.1027  0.1006  0.0777
23640W        W41844  14.139  12.413   1.640  0.1477  0.1229  0.0213
23641W        W41845  13.591   0.210  11.496  0.1440  0.2351 -0.0245
23642W        W41846   2.381  12.908  14.566  0.1634 -0.1344  0.0564
23643W        W41847   6.068  18.507   1.698  0.2044  0.3584  0.1276
23644W        W41848  16.816   9.968   3.132  0.1084 -0.2566 -0.2430
23645W        W41849  15.896  15.495  10.694 -0.0320  0.5502  0.0571
23646W        W41850  17.360  18.239   1.515 -0.0047 -0.0517  0.1914
23647W        W41851   4.418   0.763   1.087  0.1074 -0.1469  0.0891
23648W        W41852   1.696  17.649   1.587 -0.0671  0.0402  0.1109
23649W        W41853   1.878   7.264  11.259  0.0248  0.0316 -0.1494
23650W        W41854   3.976  13.818   2.130  0.2276  0.1845 -0.2852
23651W        W41855   4.627  11.451   2.709  0.1788 -0.0264 -0.1903
23652W        W41856  17.719   2.517   4.577  0.2346 -0.0882  0.0252
23653W        W41857   2.688  18.450  12.575  0.0802  0.0080 -0.1246
23654W        W41858  17.497  16.110  11.377  0.0482 -0.0374 -0.2311
23655W        W41859  17.534   4.144  11.101  0.0900 -0.0241 -0.1749
23656W        W41860   4.999   5.742  11.530  0.2713 -0.0168  0.3687
23657W        W41861  15.796   8.292   3.366  0.3619  0.0977 -0.1821
23658W        W41862   0.728   8.622   0.285 -0.1755 -0.2827  0.0212
23659W        W41863   9.072   0.640  11.882 -0.0185  0.1089 -0.2239
23660W        W41864  17.177   8.666  11.359  0.1282  0.1415  0.2126
23661W        W41865  12.798   6.241   1.127 -0.1318 -0.2259 -0.2338
23662W        W41866   2.317   7.013   0.170  0.0808 -0.0096 -0.1293
23663W        W41867   6.912  11.919   0.420 -0.0763 -0.2895 -0.0331
23664W        W41868  16.901   3.664  13.478  0.2394  0.2223  0.2490
23665W        W41869   2.827   6.246  11.422 -0.2164 -0.2804  0.0124
23666W        W41870   8.953  15.179   2.991 -0.1693 -0.0062  0.0926
23667W        W41871   7.585  15.363  11.833 -0.0759  0.3168 -0.1002
23668W        W41872  16.947   5.915  13.726 -0.0137  0.1034 -0.1008
23669W        W41873  12.498  12.856   5.054  0.0902  0.1173 -0.1022
23670W        W41874   9.186   4.857   2.962 -0.2520 -0.2038 -0.0124
23671W        W41875   6.794   1.991  11.201 -0.1956  0.2839  0.1177
23672W        W41876   7.190  16.400  14.278  0.2424  0.2723  0.0828
23673W        W41877  11.052   6.688  14.041 -0.0553 -0.1680 -0.1605
23674W        W41878   0.855   9.047   0.489 -0.0414 -0.2254  0.3562
23675W        W41879   6.064   7.145   0.768 -0.2281  0.0075  0.1174
23676W        W41880   2.366  11.295  11.962 -0.2715  0.0142  0.0980
23677W        W41881   6.415  17.453  13.522  0.2778  0.1787  0.0393
23678W        W41882  14.714  14.439   4.562 -0.0605 -0.1323  0.2007
23679W        W41883   4.349   7.422   3.903  0.0588 -0.2506  0.1538
23680W        W41884   9.409   0.859  13.225 -0.1120  0.0171  0.5753
23681W        W41885  13.533   9.717  11.010  0.1141  0.0102  0.0374
23682W        W41886   4.327  13.383  13.776 -0.1321 -0.1817  0.0442
23683W        W41887  18.578   4.560   0.174  0.0620  0.0168  0.0203
23684W        W41888   7.419   1.056  11.112  0.0213  0.1641  0.1453
23685W        W41889  18.215   8.178   4.750  0.0474  0.1629  0.0207
23686W        W41890  16.839  14.520  15.396 -0.2973  0.2648 -0.1086
23687W        W41891   2.683   0.730   3.384 -0.2188  0.1387 -0.0920
23688W        W41892   5.251   8.931   2.681 -0.0722  0.2535 -0.0840
23689W        W41893   2.282   3.555   3.327 -0.0705 -0.2744  0.3145
23690W        W41894   9.490   8.240   3.592  0.0851  0.2680 -0.0188
23691W        W41895  15.198   9.696   4.855 -0.0295  0.2576 -0.0557
23692W        W41896   3.371   9.647  13.050  0.2164  0.0639 -0.1211
23693W        W41897   6.838  14.202  12.112 -0.4878  0.2333  0.0882
23694W        W41898  17.060   0.914  14.365  0.3062 -0.1117 -0.1513
23695W        W41899  11.584   3.337  13.147  0.0601 -0.0778  0.1525
23696W        W41900   6.328   4.644   0.596 -0.0402 -0.1799  0.1536
23697W        W41901   1.691  14.619   0.645  0.2402 -0.0150  0.1051
23698W        W41902  10.271   4.685  13.993  0.1251 -0.1664 -0.4150
23699W        W41903   3.980  11.671  12.947 -0.1064  0.2527 -0.0570
23700W        W41904   8.638  18.372  12.834 -0.1966 -0.2887  0.1064
23701W        W41905  16.584   4.870  11.734  0.0174  0.2145  0.0081
23702W        W41906  18.121  14.836  11.959  0.0233 -0.3774 -0.6272
23703W        W41907   7.389  16.323   2.364  0.0961  0.0134  0.0996
23704W        W41908  18.100   0.358   1.166  0.0735 -0.0502 -0.0908
23705W        W41909   0.746   6.257   3.350  0.1438  0.2657  0.1897
23706W        W41910  12.522   9.627  10.071  0.0744 -0.1882  0.1951
23707W        W41911  10.576  14.775  15.156 -0.3182 -0.2352 -0.0309
23708W        W41912   5.303   0.193  15.192  0.0869  0.2810  0.0412
23709W        W41913   2.066   8.820   1.707 -0.1404 -0.0022 -0.1085
23710W        W41914   6.723   7.495   4.560  0.1497  0.2320  0.4954
23711W        W41915   6.237   5.893  14.082 -0.0470 -0.1897 -0.3131
23712W        W41916   8.042  18.329   0.756 -0.0903 -0.0324 -0.0852
23713W        W41917  11.035  10.394   4.601  0.3747  0.1525  0.0158
23714W        W41918   9.455   7.042  11.073 -0.0976  0.0444  0.1444
23715W        W41919  11.284  12.625   0.523 -0.2264 -0.1502  0.1212
23716W        W41920   4.018  11.884   2.679  0.1362  0.2391  0.1738
23717W        W41921  13.416  14.014   2.821  0.2538  0.0136  0.0013
23718W        W41922  12.352   9.016   2.532 -0.0263  0.1886 -0.0818
23719W        W41923  13.632  11.271   3.557 -0.0900 -0.1704 -0.1860
23720W        W41924   2.509   5.365   2.302 -0.2607 -0.1159  0.1138
23721W        W41925   7.274  17.068  13.853  0.2692 -0.0540  0.0807
23722W        W41926  14.645   8.771   2.129  0.0774 -0.2783 -0.3441
23723W        W41927  12.082  15.989  11.514  0.0155  0.0646  0.3155
23724W        W41928  17.714  10.534   3.422 -0.0734  0.1186  0.4072
23725W        W41929  13.353   3.831   0.815 -0.0160 -0.3530 -0.1571
23726W        W41930  12.498   6.595  12.423 -0.0659  0.0779 -0.1237
23727W        W41931   4.356   7.938   3.797 -0.0687  0.2405 -0.2079
23728W        W41932  14.239   2.252  12.617 -0.1394 -0.2334 -0.1755
23729W        W41933   0.049  13.132   0.898  0.0916 -0.4491 -0.2490
23730W        W41934   6.209   3.597  15.297 -0.0384 -0.0448  0.0673
23731W        W41935   8.712  14.936   1.473 -0.0376 -0.0557 -0.0636
23732W        W41936   2.267   7.736   0.539  0.0085 -0.2277 -0.0321
23733W        W41937   9.288  10.107   3.905 -0.1425 -0.1933  0.3233
23734W        W41938  14.651   9.670  11.328  0.0658 -0.1358  0.1820
23735W        W41939   8.179  10.440   4.388 -0.1801 -0.0090 -0.2039
23736W        W41940   7.130  12.709  14.634  0.0119 -0.0622  0.0698
23737W        W41941  17.347  11.196  12.180 -0.2936  0.1658  0.1373
23738W        W41942  16.793   2.907  11.558  0.1021 -0.1290  0.1467
23739W        W41943   4.333   6.472   2.602  0.2265  0.0337 -0.0547
23740W        W41944   2.168   9.957   3.676 -0.1840 -0.0178 -0.2665
23741W        W41945   9.312   6.027   2.283 -0.4347  0.0739  0.0223
23742W        W41946   1.659  10.430   0.635 -0.1548  0.3709  0.0290
23743W        W41947   4.769   7.450   1.366 -0.2904  0.1186  0.2498
23744W        W41948  17.030   7.210   2.058  0.1124 -0.2238  0.0770
23745W        W41949  16.037  13.277  11.405  0.1852 -0.0073 -0.2993
23746W        W41950   0.469  15.244  15.092  0.2265 -0.0029  0.0095
23747W        W41951   9.706  16.507  10.775 -0.0434 -0.2078 -0.3422
23748W        W41952  15.289  11.255  14.303  0.2874  0.3651  0.0866
23749W        W41953  13.304   2.791  14.727 -0.2743  0.0960  0.0719
23750W        W41954  15.052   3.948   5.183  0.0744  0.3906  0.1035
23751W        W41955  13.420   3.660   2.236 -0.2866  0.2442  0.3943
23752W        W41956  11.971   1.719   0.224  0.0755 -0.1980  0.2238
23753W        W41957  15.991  17.008  15.383  0.2855  0.0967 -0.1150
23754W        W41958   6.930  16.295  11.110  0.0890 -0.0459 -0.0341
23755W        W41959  14.966  17.878   0.882 -0.0710 -0.1121 -0.3979
23756W        W41960  17.991   3.642   2.313  0.0437  0.0769 -0.0077
23757W        W41961  13.569  11.600   2.395 -0.0962  0.0827  0.0458
23758W        W41962  15.211   4.534  12.083  0.1213  0.0112 -0.1660
23759W        W41963  18.464   9.823  11.758 -0.1223  0.2004 -0.2948
23760W        W41964   7.354   2.514   2.775 -0.1035  0.2062  0.0439
23761W        W41965   9.651   5.255   3.853  0.0100  0.2648 -0.0051
23762W        W41966  15.877   3.710   1.589  0.1056  0.0717  0.2014
23763W        W41967   0.787   0.219   4.301  0.4930 -0.3285  0.0630
23764W        W41968   2.656   2.403  14.199 -0.1426 -0.0552  0.1673
23765W        W41969  15.637  12.986  14.806 -0.1245  0.2596  0.0229
23766W        W41970   0.276   9.410   1.927  0.2652 -0.0702 -0.0919
23767W        W41971   5.290  16.161  13.134 -0.0205  0.1211  0.2210
23768W        W41972   1.291   9.145  11.594  0.3020 -0.1318  0.0025
23769W        W41973  14.362  16.969   0.826  0.0565  0.0802  0.0454
23770W        W41974  16.786   3.198   0.561  0.2666  0.3024  0.0388
23771W        W41975   2.381  15.432  15.073 -0.3746  0.1690  0.0838
23772W        W41976  15.469  18.685  14.918 -0.0358 -0.0026  0.1605
23773W        W41977   0.569   0.134  12.423  0.0184  0.0662  0.2052
23774W        W41978  16.299  17.488   3.981  0.2733  0.0077 -0.2971
23775W        W41979  11.777   1.981  13.011  0.0455  0.0461 -0.2831
23776W        W41980   9.831   8.674  14.437  0.2903  0.0550 -0.1571
23777W        W41981   9.839   8.487  13.368  0.3955 -0.0751  0.1671
23778W        W41982   7.644   4.487   2.252 -0.0590 -0.2664 -0.0718
23779W        W41983   1.161  17.897  10.472  0.2125  0.0870 -0.3973
23780W        W41984   9.715   4.932   1.884 -0.1115  0.4484 -0.0537
23781W        W41985  10.317   1.176   1.929  0.1977  0.0276  0.4012
23782W        W41986   2.366  13.299  13.177  0.2545  0.2000  0.6687
23783W        W41987   5.693   5.361  13.148 -0.0069 -0.0692  0.2429
23784W        W41988   2.721  10.266   4.845  0.0960  0.0471 -0.0741
23785W        W41989  11.783  14.509  14.850 -0.1333 -0.1741 -0.0039
23786W        W41990  14.272  11.696   4.115  0.4468  0.3508  0.1619
23787W        W41991  13.875   2.102  15.137  0.2038  0.1207 -0.0342
23788W        W41992   8.738   7.800  12.362 -0.1596 -0.1040  0.3260
23789W        W41993   8.042   1.377  11.444  0.0271  0.0074  0.2046
23790W        W41994   5.412  17.809  14.839  0.3680 -0.2429 -0.1225
23791W        W41995  16.542  12.721  13.668  0.3471  0.1593 -0.1615
23792W        W41996   9.853  12.271  13.252 -0.0542 -0.2352  0.2944
23793W        W41997   9.081  15.259   2.491  0.0414 -0.1400 -0.5544
23794W        W41998   6.743  16.055  13.861 -0.1494 -0.1254  0.2001
23795W        W41999  16.369  13.081  11.737  0.3383 -0.0622  0.0153
23796W        W42000  15.429  10.783  14.435 -0.0612 -0.1194 -0.1287
23797W        W42001   1.104  16.667  13.800  0.0468  0.0464 -0.0146
23798W        W42002   0.533  11.182  11.642  0.1265 -0.3138 -0.0106
23799W        W42003  18.146  12.285   0.098  0.3794 -0.1724  0.1584
23800W        W42004  14.884   7.455  13.613  0.0433  0.0896  0.0277
23801W        W42005  11.206   3.937   2.188 -0.1284  0.2056 -0.0450
23802W        W42006  15.910   5.164   4.572 -0.0208 -0.2889  0.0763
23803W        W42007  12.016   5.768   1.222 -0.1645 -0.0590 -0.1010
23804W        W42008  17.484   7.834   3.376 -0.0713  0.2393 -0.0190
23805W        W42009   9.263   6.407  10.597 -0.3418 -0.5124 -0.0616
23806W        W42010  13.271   8.970   1.215 -0.2212 -0.2050 -0.0881
23807W        W42011  14.482  10.870  13.961 -0.1691 -0.2227 -0.0118
23808W        W42012  10.430  12.089  11.192 -0.2284  0.0368  0.2773
23809W        W42013   7.509   7.619  14.098 -0.3365  0.1666 -0.1296
23810W        W42014  10.417   4.322  15.071  0.1475  0.1077  0.0477
23811W        W42015  15.828  13.050   5.549  0.3598  0.0258  0.3363
23812W        W42016   4.568  13.342   2.335  0.2023  0.0115  0.0153
23813W        W42017  10.384   7.243  12.805  0.2311  0.1821 -0.1898
23814W        W42018   9.281  11.305   0.966  0.0166  0.0823  0.1263
23815W        W42019  16.021   1.800   0.887 -0.2514 -0.0944  0.2699
23816W        W42020   7.199  16.530  11.487 -0.1833  0.1214  0.2295
23817W        W42021   6.574   8.360   0.160  0.3304  0.0119 -0.3249
23818W        W42022  10.716   9.679   3.580  0.4377 -0.1151 -0.1947
23819W        W42023   9.422  14.374  13.980 -0.0952  0.0707  0.1039
23820W        W42024  12.826   1.365  11.776 -0.0125  0.0447 -0.3649
23821W        W42025  14.555   3.083  13.127 -0.1462 -0.2636 -0.3433
23822W        W42026  10.197  10.869  13.443  0.1118 -0.0573  0.0887
23823W        W42027   2.243  17.822   4.108  0.2183  0.1215  0.1105
23824W        W42028  16.040   8.357  12.900  0.2881 -0.0875  0.2675
23825W        W42029  16.014   3.338  14.637  0.1561 -0.1086  0.2678
23826W        W42030  17.358  10.804  14.626 -0.3481  0.0054  0.0142
23827W        W42031  10.244  16.897  12.434  0.4192 -0.0662  0.2490
23828W        W42032  16.102   8.491   2.937  0.0509  0.0128 -0.0122
23829W        W42033   4.464  14.950   2.279 -0.3101 -0.1057 -0.0243
23830W        W42034   5.792  18.069   3.313 -0.0418  0.2233  0.3602
23831W        W42035  14.407  17.793   0.802  0.3139 -0.0614  0.0392
23832W        W42036  18.691  13.548  13.452 -0.0011 -0.0214 -0.4252
23833W        W42037  17.442   7.697  11.321  0.3486  0.1771 -0.1057
23834W        W42038  15.330  14.301  11.232  0.2045  0.3894  0.1962
23835W        W42039  11.651   4.097   1.484  0.2146 -0.1425  0.1080
23836W        W42040   0.554  18.693  15.075  0.0368  0.0918 -0.0759
23837W        W42041  14.417  17.613   4.668 -0.2476  0.1753 -0.1311
23838W        W42042  16.923  11.002  11.992 -0.2632  0.2552  0.1910
23839W        W42043   0.314   6.713   2.218  0.1192 -0.2433  0.3057
23840W        W42044  10.789   2.474   2.083  0.1422 -0.1000 -0.0139
23841W        W42045  10.018   2.844   4.188  0.1939  0.2057  0.1040
23842W        W42046   7.985   3.341   0.567  0.0433  0.1041 -0.1819
23843W        W42047   5.526  17.048   0.739  0.0535  0.0090  0.1936
23844W        W42048   2.148  11.675  14.205  0.1542  0.0599 -0.1877
23845W        W42049   3.001  10.112  15.222 -0.3040  0.0737  0.1965
23846W        W42050   7.887   5.383   4.222 -0.0412 -0.0243 -0.0819
23847W        W42051   2.339   7.739   3.037  0.1251 -0.1100 -0.2784
23848W        W42052   0.056  17.704   4.622  0.0118  0.0804  0.1597
23849W        W42053  17.934   1.989   5.350 -0.0063  0.0657 -0.0806
23850W        W42054   8.618  17.467   4.019  0.2474  0.0771 -0.3887
23851W        W42055  14.957  18.175   2.572  0.0447  0.0174  0.0322
23852W        W42056  11.996   9.708   1.339  0.1303 -0.1978 -0.2360
23853W        W42057  14.297  18.022   3.734 -0.0355 -0.0012 -0.0914
23854W        W42058  10.266  12.884  15.156  0.2630 -0.0699  0.1600
23855W        W42059  16.809   9.339  12.310 -0.2169 -0.1628  0.4649
23856W        W42060  15.497   9.385  13.541  0.1278 -0.2271 -0.0019
23857W        W42061   1.171  15.948  12.485 -0.1448  0.0797  0.0832
23858W        W42062   7.037  13.450   3.176 -0.0375  0.2599  0.4710
23859W        W42063  10.231   8.762  13.223 -0.1352 -0.0444 -0.2640
23860W        W42064   7.531   0.751   2.391  0.1241 -0.1924 -0.2870
23861W        W42065   0.375  15.590   1.910  0.0035 -0.0221 -0.0238
23862W        W42066   7.939   7.273   1.770  0.2455 -0.0994  0.1334
23863W        W42067   2.045  16.328   4.019  0.1720  0.3186 -0.3372
23864W        W42068   5.961  18.401   3.730  0.0850 -0.0330 -0.0362
23865W        W42069   0.204   2.479  11.036 -0.2143 -0.1129  0.0754
23866W        W42070   0.821   7.865  15.039  0.1362  0.1658 -0.0050
23867W        W42071  10.728  18.243   0.610 -0.3157 -0.0189 -0.0173
23868W        W42072   9.627   5.735  11.489 -0.1286 -0.0105  0.0828
23869W        W42073   0.809   4.826  11.353  0.0589  0.1331  0.0624
23870W        W42074  10.940   8.307  14.801  0.2761 -0.1205  0.1422
23871W        W42075  17.127   7.736  13.443  0.2207 -0.3016  0.0018
23872W        W42076  17.539  10.817   0.028 -0.3282  0.1549  0.0567
23873W        W42077  18.683   6.860  11.433  0.1921 -0.1150 -0.0797
23874W        W42078  13.584  15.187  11.594  0.0142 -0.4994 -0.0490
23875W        W42079   6.008   2.483  14.666  0.0174 -0.0078 -0.0518
23876W        W42080   8.375   5.470   1.233  0.0488 -0.0003 -0.4657
23877W        W42081  15.012   5.134   3.205  0.1713  0.0132 -0.2873
23878W        W42082   0.108  16.077  14.476  0.5083 -0.1985  0.2463
23879W        W42083   1.097  16.352   4.298 -0.0020 -0.3696  0.1516
23880W        W42084   3.206  11.623  14.513  0.0499  0.1698  0.0653
23881W        W42085  16.940   7.568  12.198 -0.0015  0.0350 -0.1160
23882W        W42086  14.147  16.324  14.391  0.0223 -0.0335  0.2081
23883W        W42087   1.232   8.998   2.547 -0.1004 -0.2659 -0.0620
23884W        W42088   5.393   7.935  15.259  0.1050 -0.1174  0.0742
23885W        W42089   6.933   8.493   2.803  0.1915 -0.0916  0.1696
23886W        W42090  15.339  13.867   4.645  0.0236 -0.0416 -0.1310
23887W        W42091   1.040   0.946  12.553  0.4641 -0.2620 -0.2896
23888W        W42092  15.749   7.255   3.421 -0.0260  0.1208  0.3201
23889W        W42093  12.307   4.243   1.610  0.2495 -0.2061  0.0868
23890W        W42094  17.664   5.916   0.659 -0.0966  0.0132  0.1989
23891W        W42095   9.671   6.536  12.490  0.0171 -0.0636  0.2697
23892W        W42096  10.720  18.219   1.490  0.1892 -0.3734  0.0887
23893W        W42097   5.039   2.906  13.565 -0.0646 -0.2097 -0.0836
23894W        W42098   0.470   2.455  14.601 -0.1072  0.2984  0.1504
23895W        W42099  13.702   3.535   0.990  0.2796 -0.1835  0.0786
23896W        W42100   5.806   4.565   0.465 -0.3052  0.1216  0.0823
23897W        W42101   0.347  16.466   1.365  0.1649  0.2858  0.3480
23898W        W42102  11.256   0.592  11.722  0.0520 -0.3592 -0.0693
23899W        W42103   9.080  13.789  12.104  0.0633  0.1213  0.1979
23900W        W42104   9.348  10.650  11.508 -0.3556  0.0458  0.0789
23901W        W42105   2.004  14.046  14.319  0.3025 -0.0847  0.1092
23902W        W42106  18.026   6.674  13.006 -0.0323 -0.3740 -0.0925
23903W        W42107   7.474  10.378  13.978 -0.2277 -0.3741  0.0408
23904W        W42108  11.463   0.659  13.610 -0.2157 -0.1502  0.2296
23905W        W42109   4.384   6.589   3.947 -0.4641 -0.0575  0.1355
23906W        W42110   5.321   5.456   0.973  0.0528 -0.2133  0.1195
23907W        W42111  15.655  16.346  14.216  0.0169  0.0838 -0.1718
23908W        W42112   3.590   1.634   2.641 -0.2181  0.3744 -0.1168
23909W        W42113  15.638   1.959   3.510 -0.0656  0.5042  0.2360
23910W        W42114   1.107  11.032   5.145 -0.1516 -0.2491 -0.2449
23911W        W42115   1.961  17.506  13.434 -0.1844  0.1407 -0.3332
23912W        W42116  13.594  17.363   3.177 -0.2753 -0.2130 -0.0132
23913W        W42117  12.209   6.943   0.477  0.4638 -0.1360 -0.2330
23914W        W42118  13.248   5.050   4.074 -0.0624  0.0494  0.0025
23915W        W42119  12.394  13.677  13.238 -0.2806  0.2091 -0.2347
23916W        W42120  11.762   9.018  15.352 -0.2457  0.0429  0.0287
23917W        W42121  11.240  14.049   0.599 -0.0514 -0.1217  0.0718
23918W        W42122  17.069   7.587  12.924  0.2573 -0.2685  0.0842
23919W        W42123  18.610  11.575  11.715 -0.0762 -0.3038 -0.2235
23920W        W42124  10.025   2.323  14.311 -0.1413 -0.0487  0.2000
23921W        W42125  13.988  11.887  12.181  0.3070  0.0858  0.1376
23922W        W42126  12.164   8.529  11.881 -0.1080  0.0672 -0.1496
23923W        W42127  17.321   8.887  12.925  0.1583  0.1871 -0.2823
23924W        W42128   6.416  15.939   0.645  0.1627 -0.2383 -0.1670
23925W        W42129  10.542   6.990  12.308 -0.1736  0.2179  0.4057
23926W        W42130   0.016  16.237   5.690 -0.2068  0.3099 -0.1158
23927W        W42131   3.399   0.345  15.225 -0.3454 -0.3412  0.0449
23928W        W42132   7.490   8.237  12.693  0.1083  0.0571 -0.3472
23929W        W42133   3.159   0.343  11.985 -0.0996 -0.1113  0.0962
23930W        W42134  15.711   4.327  11.773 -0.1133  0.2941  0.2614
23931W        W42135  12.898  12.389   2.296 -0.1898 -0.0860 -0.2382
23932W        W42136   7.043  10.796   5.753 -0.3782 -0.0028 -0.3205
23933W        W42137   9.615  10.879   3.294  0.0536  0.0071 -0.0137
23934W        W42138   3.200   2.856  11.165 -0.2966 -0.0826  0.3963
23935W        W42139  15.013  12.777  11.108 -0.4396  0.0486 -0.1699
23936W        W42140  14.377   8.771  10.542  0.4133  0.0793  0.2056
23937W        W42141  12.189   1.655  10.832  0.0081 -0.1307 -0.0089
23938W        W42142  10.435  10.824   2.706  0.1064  0.0603 -0.0024
23939W        W42143  12.611   4.315   0.982  0.0109 -0.0514 -0.0732
23940W        W42144   8.259   0.085  12.972 -0.1404  0.2240  0.1341
23941W        W42145   5.606  18.325   2.642 -0.2004 -0.3881  0.1120
23942W        W42146   1.955  10.864   2.339 -0.1308 -0.0534  0.0424
23943W        W42147   4.534   6.864  13.623  0.2451  0.1113  0.0106
23944W        W42148   6.333   2.490  13.592 -0.0209  0.0787  0.0501
23945W        W42149   1.912  13.250  12.004 -0.0194  0.0023  0.0495
23946W        W42150   5.926   4.108  14.976  0.0013  0.2773 -0.0351
23947W        W42151  15.335   1.243   4.512 -0.0595 -0.0982 -0.2651
23948W        W42152  12.527   0.935   3.825  0.0673  0.2852 -0.2970
23949W        W42153   0.985   1.010  13.928  0.0771  0.1603 -0.0283
23950W        W42154  11.303   6.962   0.646 -0.1058 -0.1515 -0.1447
23951W        W42155  18.676  14.189   3.754 -0.0620  0.0218 -0.1873
23952W        W42156  17.016   1.237   3.487 -0.2523  0.2188  0.0524
23953W        W42157   7.448   5.335  15.145 -0.2250 -0.0500  0.2614
23954W        W42158  13.575  10.825   1.707 -0.1930 -0.0400 -0.3049
23955W        W42159  16.259   9.147   2.367  0.1839 -0.0584 -0.3018
23956W        W42160   9.484   4.280  11.123 -0.0859  0.0007  0.1483
23957W        W42161   4.674  13.523  13.393 -0.3910  0.0432  0.1905
23958W        W42162  10.521  12.173  14.051 -0.1256  0.0198 -0.0283
23959W        W42163  13.046  14.953   3.765 -0.1268  0.0002  0.1474
23960W        W42164  12.512   2.868   0.638  0.1060 -0.1840 -0.4164
23961W        W42165   3.129  12.934  11.437 -0.0818  0.0006  0.2213
23962W        W42166  13.048   5.474   2.056  0.4158  0.0052 -0.0862
23963W        W42167   3.233   1.460   0.154  0.3766 -0.1225  0.2888
23964W        W42168  16.736   3.651   4.748  0.0461 -0.1871  0.0384
23965W        W42169  12.007   8.372   2.742 -0.2606 -0.0956  0.2852
23966W        W42170  16.203  12.256  11.397 -0.0389  0.1982 -0.1108
23967W        W42171   1.252  10.193   3.050 -0.6582 -0.0771  0.0012
23968W        W42172   7.303   4.886   3.590  0.2910  0.1666  0.0681
23969W        W42173   8.173  11.164  11.207  0.3297 -0.2509 -0.2202
23970W        W42174   9.548   0.953  13.722 -0.1144  0.0782 -0.0183
23971W        W42175  14.596  14.071   4.241  0.0940 -0.2173  0.0948
23972W        W42176  12.088   9.159  10.668  0.2244 -0.0243  0.1207
23973W        W42177  13.158  14.902  10.995 -0.3081  0.1252  0.0036
23974W        W42178   0.848  16.462  13.341  0.1882  0.2829 -0.1558
23975W        W42179   2.569  13.307  14.779 -0.1360  0.0268 -0.3037
23976W        W42180   8.373  12.227  14.248 -0.2067 -0.2309 -0.0866
23977W        W42181   2.998  12.977  11.966 -0.0587 -0.3296  0.1481
23978W        W42182   5.446   8.315   3.984  0.3781  0.0020 -0.0086
23979W        W42183  17.380   7.680  14.252 -0.0475 -0.1658 -0.3079
23980W        W42184  14.047   3.682   3.775 -0.3780  0.0738 -0.0251
23981W        W42185   1.213   2.779  11.779  0.3653  0.0983 -0.2188
23982W        W42186   2.584   7.504  12.371 -0.0786 -0.1170  0.1575
23983W        W42187  13.139  17.905   0.512  0.0279  0.1661  0.0676
23984W        W42188   7.485   5.599  11.031 -0.0049 -0.2419 -0.2244
23985W        W42189   6.767   2.080  11.705 -0.1775 -0.1445  0.1029
23986W        W42190   7.771  17.594   3.840  0.2961  0.1035 -0.1310
23987W        W42191   3.179   4.245   1.759 -0.3174 -0.2282  0.0242
23988W        W42192   4.014  10.386   4.663 -0.0668 -0.0272 -0.2887
23989W        W42193  11.493  11.583  11.681 -0.2688  0.0850 -0.2719
23990W        W42194   5.100   1.115  14.065 -0.2632 -0.1092  0.1947
23991W        W42195  13.645   4.701   4.103 -0.3189  0.1140  0.1887
23992W        W42196  17.772  12.183  13.726 -0.0886  0.2047 -0.0780
23993W        W42197  17.672  14.566   1.114  0.1455  0.1366 -0.3421
23994W        W42198  15.465   2.042  12.134  0.2355 -0.3906  0.1654
23995W        W42199  15.359  12.294  11.157 -0.0887  0.1280 -0.1187
23996W        W42200  13.571  12.899  11.353 -0.4051 -0.0033  0.1443
23997W        W42201   5.214   0.415  14.709 -0.0283  0.1236 -0.0710
23998W        W42202  16.555   1.675   2.494  0.0966  0.2554  0.0684
23999W        W42203   4.855  11.834  10.843  0.0008 -0.1468 -0.0908
24000W        W42204   6.805  11.336   0.236  0.0062 -0.5163 -0.1540
24001W        W42205  14.389   6.861  14.229  0.1531 -0.1462 -0.3449
24002W        W42206  15.412  15.928  11.340 -0.2593  0.0452 -0.0577
24003W        W42207   5.401   3.316   0.186 -0.0511 -0.1643  0.0107
24004W        W42208  18.089  16.165  14.855 -0.0749  0.0082  0.3051
24005W        W42209  10.341  10.046  14.982  0.0291 -0.0108 -0.1856
24006W        W42210  13.335  12.597   5.854 -0.0374  0.0089 -0.2468
24007W        W42211   4.697   1.879  10.862 -0.0872 -0.4022  0.1148
24008W        W42212  17.020  18.596  13.887 -0.1098  0.1507 -0.2574
24009W        W42213  17.810  13.037  13.354  0.0008 -0.0246 -0.0216
24010W        W42214  11.687   8.664   0.245  0.1759 -0.2407 -0.1452
24011W        W42215  16.169   2.377   3.849  0.0003 -0.2794 -0.0053
24012W        W42216  14.465   9.222   2.545  0.3046  0.1591  0.4801
24013W        W42217   6.662  14.056   2.812  0.0809 -0.0812 -0.0728
24014W        W42218  16.001  12.040  10.994 -0.1281  0.0727  0.0202
24015W        W42219  17.431   2.535   3.452 -0.0707 -0.1084 -0.0060
24016W        W42220   5.975  14.401  11.851 -0.0421  0.0364  0.2983
24017W        W42221   7.996  17.934  12.653  0.0080  0.0117 -0.2841
24018W        W42222  12.447  10.886   2.192  0.1583  0.3868  0.0283
24019W        W42223   5.506   1.504   4.256 -0.0045 -0.1015  0.3801
24020W        W42224   4.944   0.475   3.038 -0.0590 -0.0203 -0.3795
24021W        W42225   5.172   7.894   9.654  0.0003 -0.0062 -0.0673
24022W        W42226  12.751   7.762   2.878  0.2072  0.1717 -0.0326
24023W        W42227   2.749  11.626   3.019 -0.1737 -0.2165 -0.3876
24024W        W42228   4.552   9.570  12.469  0.1199  0.3327  0.4111
24025W        W42229   5.445   5.778  12.094  0.0340  0.3898 -0.1988
24026W        W42230   2.359   0.960   3.728  0.3019  0.2426  0.2061
24027W        W42231  14.472  16.828   2.338  0.0403  0.4391  0.2088
24028W        W42232  13.161  18.250  12.607 -0.1907 -0.0087  0.0816
24029W        W42233   5.159  16.205  11.774  0.5670  0.0731 -0.0119
24030W        W42234   9.296  12.443   2.437  0.0437 -0.1411  0.0502
24031W        W42235   1.648   1.950   0.552 -0.0682 -0.0935 -0.0544
24032W        W42236   4.480  10.750  11.660  0.2866  0.2067  0.0316
24033W        W42237  18.196   8.515  12.272 -0.1589 -0.1789  0.4831
24034W        W42238   7.796  16.617  11.640 -0.0725  0.2276  0.1021
24035W        W42239  14.366   9.663  13.928 -0.0505  0.0870 -0.0134
24036W        W42240   4.840   9.538  14.917 -0.0848 -0.2695  0.3110
24037W        W42241   2.949   0.352  14.955 -0.1155 -0.3125  0.1603
24038W        W42242   2.607  15.258  15.467  0.0225  0.0426  0.2756
24039W        W42243   1.836   4.949   1.095 -0.1696 -0.0937 -0.4157
24040W        W42244   5.324   8.720   0.988  0.1231  0.2458  0.2713
24041W        W42245   5.828  13.496  12.235 -0.0649 -0.1561 -0.2660
24042W        W42246   4.759   0.748  13.790 -0.1275  0.0959 -0.1384
24043W        W42247  15.195  12.700  13.938  0.2505 -0.0485 -0.2313
24044W        W42248  11.003   8.805  13.968  0.0749  0.0665  0.2058
24045W        W42249   2.305  18.345   3.964  0.2022 -0.0833  0.2139
24046W        W42250   9.453   6.137   4.128  0.0588 -0.1058 -0.0991
24047W        W42251  13.261   9.620  14.855 -0.2001 -0.1994  0.1329
24048W        W42252  18.126  17.061   2.820  0.3156 -0.0037  0.2094
24049W        W42253  16.817   5.661  15.025  0.0430 -0.1273  0.2543
24050W        W42254  16.135   5.810   0.026 -0.0925 -0.1093 -0.1797
24051W        W42255   3.527   4.264  13.539 -0.2575 -0.0941  0.0046
24052W        W42256  12.299  15.094   1.816  0.1286  0.3571 -0.0027
24053W        W42257   7.174   9.695  13.098 -0.0331  0.0483  0.1064
24054W        W42258   9.664   0.066  13.405 -0.1223 -0.2952  0.4230
24055W        W42259  16.608   2.658   1.634  0.3132 -0.1550 -0.3645
24056W        W42260  11.580   8.667   0.749 -0.1992 -0.1554  0.1725
24057W        W42261  15.671  14.712  14.296 -0.1517  0.0260  0.0817
24058W        W42262   7.231  17.310  11.038 -0.1487  0.3503 -0.0936
24059W        W42263   2.603  13.908   5.772 -0.0218  0.1955  0.1832
24060W        W42264   4.336   3.449  10.651  0.2103  0.1175  0.1393
24061W        W42265  11.347   6.076   3.652  0.3062  0.0922  0.0655
24062W        W42266  11.490   1.671   4.349  0.1003  0.0721 -0.2580
24063W        W42267  14.625  12.135  14.205 -0.0417  0.1903 -0.3160
24064W        W42268   9.559  15.423   2.335  0.1332 -0.1479  0.2068
24065W        W42269   1.343   9.884   5.123 -0.0551 -0.0452  0.0868
24066W        W42270   6.958  12.325  15.081  0.1569 -0.0140  0.2172
24067W        W42271   7.984   7.135  11.923 -0.1357  0.0184  0.0065
24068W        W42272   9.258  14.595   4.687 -0.0567 -0.1042  0.0498
24069W        W42273  18.367  17.158  13.510 -0.0646  0.2665  0.0788
24070W        W42274   8.326  13.388   3.980 -0.0230 -0.1462 -0.4259
24071W        W42275   7.769   5.198  11.022 -0.4281  0.1256  0.1263
24072W        W42276  11.065  16.851  11.793 -0.3386  0.0762 -0.3512
24073W        W42277  13.564  13.722  15.251  0.1334 -0.0864  0.0972
24074W        W42278  16.633   2.797  13.404 -0.1622 -0.1705 -0.0034
24075W        W42279  17.514  18.645  12.522  0.0147 -0.2418 -0.4129
24076W        W42280  14.922  16.455  15.261  0.2790  0.3685 -0.1240
24077W        W42281  17.131  18.341   4.319 -0.1299 -0.0526  0.0464
24078W        W42282   2.544   3.175  15.028  0.5154 -0.0442  0.0402
24079W        W42283  17.219   9.288  15.404  0.3070 -0.0542  0.0475
24080W        W42284  15.441  15.633  13.024 -0.2676  0.1611  0.3768
24081W        W42285  14.763   5.605  15.012 -0.5851 -0.0800 -0.0544
24082W        W42286   9.860  13.455  10.274 -0.0447 -0.1867  0.1150
24083W        W42287   3.336  12.952  15.025  0.3741 -0.2944  0.1219
24084W        W42288  13.680   3.740  14.357 -0.3759 -0.1702 -0.1274
24085W        W42289   6.128  13.892  11.665  0.2867 -0.0606  0.0431
24086W        W42290   2.028  14.217  13.219 -0.3438 -0.0158 -0.0301
24087W        W42291   0.251   1.915   1.577  0.1387  0.0757 -0.0705
24088W        W42292   5.038  12.045  11.946  0.0095  0.4083 -0.1214
24089W        W42293   0.778  12.580  13.770 -0.1387 -0.2864  0.4088
24090W        W42294   7.364   6.934  13.796 -0.0303 -0.1740  0.0046
24091W        W42295  13.708   9.217  14.832  0.0365 -0.0761 -0.1983
24092W        W42296   5.908  18.092  14.176 -0.0629 -0.1898 -0.1450
24093W        W42297  10.430   4.128  14.613  0.0344  0.3696 -0.1377
24094W        W42298   7.410  10.569   1.088  0.2026 -0.0950  0.0440
24095W        W42299   2.766  15.456   1.251 -0.0667 -0.0884  0.3220
24096W        W42300   4.719   7.055   1.003  0.0114 -0.1532  0.1393
24097W        W42301   3.869   1.643   4.949 -0.3164  0.2259 -0.0701
24098W        W42302   5.585   2.264  14.002  0.1409  0.1610 -0.1338
24099W        W42303   0.957   3.323  14.925  0.1396  0.0641  0.0227
24100W        W42304   4.436  15.365   1.920 -0.1694 -0.0145 -0.4703
24101W        W42305   8.940  13.433  12.651  0.0570 -0.0221  0.2147
24102W        W42306  15.960   3.968  10.191 -0.0460  0.2670  0.1141
24103W        W42307   5.918  17.798  13.646 -0.0950  0.1196  0.1950
24104W        W42308   4.705   1.430  10.632 -0.0904 -0.0427 -0.0031
24105W        W42309  11.457  10.376  15.183  0.1994  0.2120  0.1641
24106W        W42310  14.506  13.262   0.298 -0.1658  0.1237  0.1728
24107W        W42311  10.896   9.761   4.178 -0.0039  0.1453 -0.1192
24108W        W42312  16.320  13.302   1.394  0.1095 -0.2536  0.2138
24109W        W42313  18.688   5.857   2.788 -0.1516 -0.0165 -0.0464
24110W        W42314  10.633   2.556  13.619  0.2743  0.1323 -0.1295
24111W        W42315   4.127  18.157  12.379 -0.0512  0.0831 -0.4049
24112W        W42316  12.678   8.738   0.368 -0.1974  0.0275  0.1111
24113W        W42317  18.181  12.031   1.822  0.1401  0.0463 -0.0918
24114W        W42318   6.144   9.236  14.430 -0.0301 -0.5546 -0.1895
24115W        W42319  11.493  15.446   3.568 -0.0269 -0.0765 -0.1999
24116W        W42320  18.595  11.108  12.605 -0.2101 -0.0639 -0.0571
24117W        W42321  10.679  15.390  13.862  0.2149  0.0484  0.3000
24118W        W42322  11.509  11.313   3.923  0.0895  0.0006 -0.0572
24119W        W42323   8.979  17.884   1.067  0.3265  0.1636 -0.1609
24120W        W42324  10.035  11.317  10.419 -0.1500 -0.0924  0.0686
24121W        W42325  12.643  14.597  15.141  0.1083  0.1070  0.2145
24122W        W42326  10.014  13.078   0.044 -0.0496 -0.1097 -0.1263
24123W        W42327   9.703  10.725   5.696  0.1491  0.4723  0.2387
24124W        W42328  10.696  15.872  11.753 -0.1502 -0.4334 -0.1636
24125W        W42329   6.843  18.057   1.138  0.1417 -0.0912 -0.1013
24126W        W42330  14.346   2.417  10.349  0.0914 -0.0351 -0.0204
24127W        W42331   1.470   1.014   1.924 -0.1769 -0.1400 -0.2717
24128W        W42332  13.936  11.627  15.252 -0.1403  0.0917 -0.1579
24129W        W42333   0.549   8.970   4.281  0.0632  0.2962  0.1370
24130W        W42334   1.699   6.810  11.411 -0.2106  0.1358  0.0467
24131W        W42335   7.455  12.586   1.215 -0.1550 -0.0259 -0.3748
24132W        W42336   6.290  10.898   2.288  0.0197  0.1731  0.0296
24133W        W42337  13.140   0.182  11.703 -0.2026  0.0397  0.0130
24134W        W42338   7.371   7.507  14.691  0.0956 -0.0092 -0.0326
24135W        W42339   1.178  14.180   3.989 -0.4116  0.1365  0.0313
24136W        W42340  10.420  15.122  12.408 -0.0151  0.1922 -0.0958
24137W        W42341   8.489  12.484   0.947 -0.0256  0.1752  0.0897
24138W        W42342  12.573   4.109  13.499 -0.0346  0.2004  0.4451
24139W        W42343  10.591  12.536  11.028  0.0689  0.0021 -0.3497
24140W        W42344   4.436   6.355   4.348 -0.0478  0.1044 -0.1368
24141W        W42345   3.161  12.195   2.569 -0.3019 -0.2272  0.0077
24142W        W42346   1.332  16.288  13.409  0.0305 -0.0190  0.2015
24143W        W42347  14.293  10.375  11.847 -0.1315 -0.1225 -0.0476
24144W        W42348  13.756  13.624   3.917  0.3593  0.1975 -0.0120
24145W        W42349  14.443   5.443   2.672 -0.1470  0.0396 -0.0136
24146W        W42350  16.554   7.191   0.915  0.1738  0.1600 -0.1283
24147W        W42351  11.565   1.795   2.475 -0.1831 -0.2364 -0.1761
24148W        W42352  10.622  13.989  11.316  0.2173 -0.0302  0.0670
24149W        W42353   0.744   5.388   3.114 -0.2384 -0.1161  0.4959
24150W        W42354   5.571   7.428   4.266 -0.1603 -0.3329 -0.1364
24151W        W42355  17.671   6.469   0.778 -0.1539  0.3155  0.1834
24152W        W42356   2.937   9.344   3.468  0.2433 -0.0170  0.2117
24153W        W42357  14.689   9.016  13.827  0.0335  0.1034  0.0981
24154W        W42358  14.685  12.790   4.222 -0.3522 -0.2218 -0.0856
24155W        W42359  17.042   6.590  11.886  0.0921 -0.2657  0.5034
24156W        W42360  17.190   9.334   0.440 -0.0066 -0.3187 -0.2320
24157W        W42361  14.310   4.491  11.889 -0.0044  0.3676  0.0696
24158W        W42362  12.318  12.050   4.489 -0.2389 -0.1607  0.0653
24159W        W42363   5.130   2.806   1.428 -0.2395  0.1655  0.3739
24160W        W42364  11.483  17.515  11.205 -0.2180  0.1594  0.1131
24161W        W42365   9.604  18.354  14.226 -0.2248  0.1393  0.2546
24162W        W42366   3.269   7.103   4.333 -0.1732  0.0181  0.4876
24163W        W42367   4.630   1.294  13.705 -0.0570 -0.0188  0.1093
24164W        W42368   0.164   3.141  12.787  0.1334 -0.1774 -0.4400
24165W        W42369  12.835  15.157  10.618  0.1098  0.0160  0.2768
24166W        W42370   1.415  12.198   1.863 -0.2853  0.2453 -0.0377
24167W        W42371  11.468  16.755   0.844  0.1559  0.4210  0.0664
24168W        W42372  16.766  13.701   2.970 -0.1500 -0.1404  0.0616
24169W        W42373  11.931  12.072   2.858 -0.0712  0.1506  0.0762
24170W        W42374   3.449  15.478  12.931  0.0670  0.2280 -0.3341
24171W        W42375   1.671  16.572  14.480 -0.3068  0.0487 -0.1647
24172W        W42376   3.671  17.676  12.436 -0.0260  0.2565 -0.1680
24173W        W42377  15.521   7.949   1.731  0.0667 -0.0798 -0.1622
24174W        W42378   0.929   8.738  13.867 -0.1734  0.2083  0.0324
24175W        W42379   4.331   1.406   4.868 -0.1445 -0.1429 -0.0596
24176W        W42380   4.476  18.367   2.858 -0.4464  0.2879 -0.2706
24177W        W42381  14.700  17.129  15.275  0.2096  0.0364  0.1827
24178W        W42382   1.143  17.216   2.219 -0.1331  0.0528 -0.0173
24179W        W42383  14.307   7.083  13.766 -0.3674  0.0808 -0.1528
24180W        W42384  17.717   6.757   2.474 -0.2617 -0.1975  0.2011
24181W        W42385   8.245   7.500   1.369  0.1493  0.2351 -0.3717
24182W        W42386   9.203   5.776  12.263 -0.1118 -0.1772 -0.3065
24183W        W42387   4.210  17.087  15.089  0.0269  0.1136 -0.2575
24184W        W42388   9.085   9.838   3.563 -0.1457  0.4646 -0.3342
24185W        W42389  16.768   6.666   4.905 -0.0112 -0.2597 -0.0779
24186W        W42390   3.630  17.074  11.210  0.0999  0.0307  0.0405
24187W        W42391  11.431   2.662  14.271 -0.0840 -0.0859  0.0376
24188W        W42392   9.646   1.882  12.566  0.4009 -0.1389 -0.0132
24189W        W42393   5.887   4.951   4.482  0.1778  0.4066  0.2505
24190W        W42394   0.142   6.633   1.743 -0.2822  0.0484  0.2396
24191W        W42395   0.873  12.714   0.771  0.0209  0.3070 -0.2301
24192W        W42396   3.474  14.068  12.614  0.0867  0.3213  0.3770
24193W        W42397   4.796  11.802   0.068  0.4199  0.2487 -0.0590
24194W        W42398   9.175   1.281  13.914  0.0517  0.2108 -0.1005
24195W        W42399   1.497   1.205  12.632  0.2559 -0.3012 -0.1820
24196W        W42400  14.038  15.036   3.509 -0.1259 -0.1920 -0.0471
24197W        W42401   0.331   8.369   0.241  0.0720 -0.1229  0.1876
24198W        W42402   2.705   0.523   2.571 -0.1264  0.1279 -0.0026
24199W        W42403   8.655   5.777  12.601  0.2139  0.1256  0.0261
24200W        W42404  12.726   6.077  13.656 -0.0938  0.0723 -0.1368
24201W        W42405  10.970   2.100  11.006  0.2627 -0.1180 -0.3052
24202W        W42406  14.789   1.846   3.174  0.1238 -0.1488 -0.0369
24203W        W42407  15.350   7.773   2.760 -0.2750 -0.3372 -0.0356
24204W        W42408  12.813   5.067  11.118  0.2744  0.0495  0.2068
24205W        W42409  14.029  12.643  12.064 -0.0758  0.2777 -0.0489
24206W        W42410   5.690  10.049   3.218 -0.5883  0.0439 -0.2802
24207W        W42411  13.686  16.345  14.517  0.3342  0.3786  0.0977
24208W        W42412  17.947  17.576   1.834 -0.0550  0.0234 -0.0363
24209W        W42413  14.675   3.864   4.256  0.0530  0.0516 -0.1533
24210W        W42414  17.494   9.215  12.600 -0.1199  0.0630 -0.0611
24211W        W42415  14.697   6.597   4.896  0.0759 -0.2515  0.2171
24212W        W42416   8.229   5.576   0.273 -0.2430  0.1668  0.3789
24213W        W42417  16.372  10.830  10.351 -0.3730 -0.0929 -0.2179
24214W        W42418  11.119   1.358   0.353  0.1040  0.2317  0.5441
24215W        W42419  17.363   2.361   1.922 -0.0686 -0.0174  0.1682
24216W        W42420   4.372  11.475  10.257 -0.0737 -0.2313 -0.1887
24217W        W42421  14.189  10.312  12.695 -0.2335 -0.0036  0.1065
24218W        W42422   3.041  14.911  11.619  0.4871 -0.1023  0.0776
24219W        W42423  12.538   7.632   3.955  0.0888 -0.2046  0.1763
24220W        W42424   8.176   6.249  12.001  0.2128 -0.0430 -0.0669
24221W        W42425   5.194  11.454  11.212 -0.0259 -0.1621 -0.0685
24222W        W42426   4.749  11.828   1.492  0.2735  0.1094  0.3156
24223W        W42427   0.225   5.041  13.502 -0.3976  0.0148 -0.0401
24224W        W42428   7.442  17.122   3.832 -0.2133 -0.0489 -0.0965
24225W        W42429  11.640  13.900  11.769 -0.0997 -0.2350 -0.0015
24226W        W42430   9.846   9.984   2.763  0.1475 -0.1895  0.3269
24227W        W42431   5.556   9.907   0.431 -0.2353 -0.0515 -0.0724
24228W        W42432  13.422   3.060  13.129  0.1236  0.1783 -0.1478
24229W        W42433   3.739  13.441   1.164  0.2375  0.0577  0.3589
24230W        W42434   7.297   2.210   3.223  0.4522 -0.0958 -0.0833
24231W        W42435   4.920   0.422   4.184 -0.0140 -0.2448  0.0181
24232W        W42436  16.347  16.065  11.992  0.0417  0.0622  0.0574
24233W        W42437  12.196   7.728   2.727 -0.0523  0.2105  0.1119
24234W        W42438  10.942  11.646  13.968  0.0635 -0.1363 -0.1109
24235W        W42439   4.270  10.575   0.142  0.0017  0.2573 -0.3586
24236W        W42440   8.488   6.936  14.937 -0.3789  0.1498 -0.3280
24237W        W42441  18.462  12.481   1.429 -0.1454  0.2321  0.3223
24238W        W42442  14.111   2.403   1.692  0.0522  0.0971 -0.2119
24239W        W42443   4.460   2.806   2.761 -0.1755 -0.2108 -0.0201
24240W        W42444  14.694  12.025  11.829 -0.3053 -0.2370  0.1090
24241W        W42445   8.889   7.752   4.187 -0.2427 -0.2503 -0.1291
24242W        W42446   6.467  16.080  11.410 -0.0375  0.2680 -0.0899
24243W        W42447  10.386  18.089  12.947 -0.0229 -0.4146 -0.0861
24244W        W42448   3.457  15.106   5.806  0.0151 -0.0992  0.0957
24245W        W42449  16.620   3.853  14.331 -0.3397  0.1629 -0.1235
24246W        W42450  12.733   9.070   2.929 -0.1580  0.0787 -0.0860
24247W        W42451   6.008  12.890   1.217  0.1894  0.1797 -0.4178
24248W        W42452   5.710   2.680   0.748 -0.2306  0.1281 -0.0468
24249W        W42453  11.814   2.721  12.143 -0.1645  0.0376 -0.1825
24250W        W42454   7.691  13.569   0.741 -0.0252 -0.0337 -0.0492
24251W        W42455   7.573   8.469  14.369  0.1227  0.3633 -0.3077
24252W        W42456   4.268   5.497   2.833  0.0868  0.2118 -0.1390
24253W        W42457  14.707  18.101  15.448 -0.0127  0.0629  0.1498
24254W        W42458  11.547  15.218   2.565 -0.0225  0.1494  0.4824
24255W        W42459   8.069  11.561   1.524 -0.0811 -0.0648 -0.1893
24256W        W42460  17.026   4.432   1.954  0.0718  0.2997 -0.0182
24257W        W42461  15.156  13.750  14.355  0.2806 -0.0162  0.0784
24258W        W42462  17.635  11.601  14.963 -0.0909  0.0962 -0.0408
24259W        W42463  14.124   0.590  12.289  0.1643 -0.1393 -0.2506
24260W        W42464   9.828   4.794   3.803  0.0269 -0.1002 -0.4785
24261W        W42465   0.729   3.248  13.013 -0.0138 -0.1569 -0.1802
24262W        W42466  11.254  15.173  11.780  0.0575 -0.2683 -0.1713
24263W        W42467  15.067  11.564  13.808  0.2437 -0.0498 -0.0913
24264W        W42468   3.297  17.081   4.249 -0.1549 -0.0212 -0.2398
24265W        W42469   4.976  18.545   4.020  0.1378 -0.2970  0.1435
24266W        W42470   7.375  13.052  14.839 -0.0538  0.0298  0.1149
24267W        W42471   3.809   2.121   2.718 -0.0474  0.3660  0.1799
24268W        W42472   6.177   5.896   3.464 -0.2523  0.2938  0.1933
24269W        W42473   4.217   1.038   3.306  0.0337  0.1561  0.1790
24270W        W42474   7.003  10.992   3.134 -0.1647  0.0619 -0.0568
24271W        W42475   6.988  17.300   2.376  0.2064  0.0638 -0.0436
24272W        W42476  14.534   2.068   4.420 -0.1179 -0.1787 -0.2304
24273W        W42477   5.697  10.098  14.284  0.1297  0.3049 -0.0721
24274W        W42478  17.502  15.695  15.120  0.1773  0.1096 -0.0329
24275W        W42479  17.326  12.947   3.822  0.2431 -0.0977 -0.0979
24276W        W42480   7.457  15.788   2.523  0.0940  0.1439  0.2623
24277W        W42481  10.963   6.914   3.925  0.3150  0.0693 -0.1626
24278W        W42482   1.545   6.717  12.515  0.0356 -0.0840  0.2714
24279W        W42483  13.366  13.467   3.196  0.1978  0.1611  0.1481
24280W        W42484  16.416  16.140   0.933 -0.2911  0.2751  0.0800
24281W        W42485   9.075   7.572  14.844 -0.1403 -0.3198 -0.3830
24282W        W42486  17.173   4.857   0.292 -0.4556 -0.0626 -0.0639
24283W        W42487  16.929  12.118  15.456 -0.1172 -0.0929 -0.1806
24284W        W42488  14.479   2.504   0.820  0.1861 -0.0013 -0.0202
24285W        W42489   8.556   0.943   0.014  0.3951 -0.0136  0.2797
24286W        W42490  16.724   7.441   2.992  0.1130 -0.2732 -0.0297
24287W        W42491   3.711   3.636  11.787  0.1062  0.1333  0.1944
24288W        W42492   8.483  16.620   5.030 -0.0609  0.0251  0.0106
24289W        W42493  11.006  18.036  15.316  0.0304  0.1202  0.0763
24290W        W42494  15.726   9.589   4.656 -0.1092  0.0755  0.0457
24291W        W42495  17.887  17.449  11.402  0.2458  0.2965  0.1592
24292W        W42496  10.505  12.463   2.259  0.0563 -0.1577  0.0687
24293W        W42497   5.604   9.435  11.374 -0.0972  0.0396 -0.1006
24294W        W42498  13.654   2.366   3.689  0.1999 -0.0290 -0.3219
24295W        W42499   5.981  11.332   0.136  0.3344 -0.0899  0.0029
24296W        W42500  10.166  13.867   1.270 -0.0388 -0.2125 -0.0927
24297W        W42501   8.042  15.148   2.248 -0.1883 -0.3505  0.0218
24298W        W42502  12.353  13.155   0.035 -0.2294 -0.0762 -0.1681
24299W        W42503  15.436  16.486   3.572  0.2273 -0.1551 -0.0328
24300W        W42504   2.951  14.486   4.044 -0.0001  0.2411  0.1819
24301W        W42505   5.559   1.749   1.229 -0.0473  0.1384  0.2828
24302W        W42506   0.123  18.025   3.442  0.0343  0.0554  0.3092
24303W        W42507  12.180   6.272   1.814 -0.0490 -0.2203  0.2134
24304W        W42508  14.175   5.761  13.119  0.0518 -0.2103 -0.1301
24305W        W42509  10.704  17.260  14.077 -0.3587  0.2157  0.0733
24306W        W42510   9.280   1.304   2.330 -0.0158 -0.0110 -0.0577
24307W        W42511  15.053   0.528  12.734  0.0273 -0.2682  0.0681
24308W        W42512   8.461   8.633  14.967 -0.0420  0.2259 -0.0574
24309W        W42513   4.249  14.583   0.728  0.1550  0.1274  0.1222
24310W        W42514   4.299  12.332   0.558 -0.0149 -0.0031 -0.1384
24311W        W42515  14.516   4.018   0.747 -0.0778  0.3211 -0.2582
24312W        W42516  13.082  11.333   1.995 -0.0246 -0.2521  0.1216
24313W        W42517   4.307  10.546  12.428 -0.1365  0.1238 -0.0120
24314W        W42518   0.269  10.521   2.448  0.0529  0.4469  0.1415
24315W        W42519  13.428   9.112   3.380  0.2319  0.0778 -0.2168
24316W        W42520  13.610   2.081   1.334  0.0446 -0.0473  0.2399
24317W        W42521  12.174   8.636  13.990 -0.1527  0.3805  0.0956
24318W        W42522   3.780   9.356   1.437 -0.1393 -0.1165 -0.4321
24319W        W42523  10.549  12.953   1.872  0.0297  0.3450 -0.0868
24320W        W42524   8.217   8.173   2.613  0.0361  0.1894  0.3045
24321W        W42525  18.671   9.276  11.277  0.0591 -0.1307  0.0882
24322W        W42526   6.871  18.136  14.767  0.1134  0.0235  0.1582
24323W        W42527  15.115  12.296   2.565 -0.0070  0.0459  0.1364
24324W        W42528  13.243  12.535   1.550 -0.1521 -0.1290  0.1145
24325W        W42529   4.892   7.756   0.006 -0.0648 -0.2807 -0.1207
24326W        W42530  11.536   4.832   4.783 -0.2779  0.2126 -0.0541
24327W        W42531  18.203   6.419  12.548  0.0205 -0.0426 -0.0301
24328W        W42532   6.212  11.990   1.519  0.0658  0.2969  0.1158
24329W        W42533   7.538  13.767   3.443 -0.0073 -0.1681  0.2705
24330W        W42534   1.026   6.154  11.676  0.0035 -0.1055  0.1327
24331W        W42535  11.937   4.747  11.957  0.0302 -0.1035  0.0625
24332W        W42536   4.705  14.355   3.420 -0.1426 -0.1896  0.0047
24333W        W42537  18.573   8.407   3.892 -0.2533 -0.0697  0.0341
24334W        W42538  13.993   7.695   2.778  0.2119 -0.3166 -0.1088
24335W        W42539  14.142  15.064  11.092 -0.1021 -0.1043  0.1972
24336W        W42540   0.508  11.182  12.759  0.2200  0.0112 -0.2585
24337W        W42541  14.490  17.566  13.962 -0.1108 -0.2080 -0.1702
24338W        W42542   3.530   8.101   0.171  0.1544  0.3476  0.3628
24339W        W42543  13.148   7.833  11.234 -0.0328 -0.1609  0.0555
24340W        W42544  12.300  17.958   1.033 -0.1648  0.4210  0.1870
24341W        W42545   2.187   1.967   5.686  0.2966  0.0487 -0.3021
24342W        W42546   2.839  16.753  11.741  0.1951 -0.2525 -0.0264
24343W        W42547  10.388   1.922   0.479  0.2001 -0.3786 -0.1824
24344W        W42548   8.232   9.554   4.189 -0.2327 -0.0195  0.0128
24345W        W42549  10.277   9.003   2.145  0.1419  0.3678  0.0141
24346W        W42550   4.881  17.254   1.224 -0.3397 -0.3572  0.1611
24347W        W42551   6.890   7.496   1.020 -0.1811  0.1993  0.1185
24348W        W42552  11.565   8.573  14.067 -0.4469 -0.2275 -0.4453
24349W        W42553   3.801  17.231   0.023  0.0387 -0.2623  0.0733
24350W        W42554   8.227  10.903   1.900 -0.1017 -0.0404 -0.0593
24351W        W42555   4.016   7.284  12.031  0.1236  0.1419  0.0859
24352W        W42556  13.858   1.231  13.759  0.1865 -0.2735 -0.1845
24353W        W42557  12.285  13.263   2.209  0.2912  0.1210  0.2726
24354W        W42558  12.364   8.234  12.663 -0.4221 -0.1608 -0.2265
24355W        W42559   1.259   6.793   2.012 -0.0605  0.1898 -0.4352
24356W        W42560  17.685  13.691  14.825 -0.0077  0.2370 -0.4455
24357W        W42561   6.192   2.207  10.979 -0.2950  0.1377 -0.1009
24358W        W42562   7.713   3.565  14.966 -0.0811 -0.0123 -0.3187
24359W        W42563  17.955  10.089   2.027  0.1954  0.2082 -0.1697
24360W        W42564  15.363  14.743  10.486  0.0049 -0.0204  0.0978
24361W        W42565   3.903  15.699  11.233 -0.0560  0.1037  0.2507
24362W        W42566  11.884  15.932  10.634  0.0962  0.0431  0.3285
24363W        W42567  14.933  16.308  12.241 -0.0398 -0.1939  0.1639
24364W        W42568   0.598  10.830  10.790 -0.0835  0.0368 -0.1392
24365W        W42569   3.563  11.393  14.206  0.1001 -0.3168  0.0749
24366W        W42570   5.268   5.066  13.181 -0.6403  0.2141  0.1918
24367W        W42571  15.257   1.633   1.361 -0.3337 -0.0785 -0.1071
24368W        W42572   3.108  15.155   4.452  0.0757 -0.0439 -0.2895
24369W        W42573   3.667  18.022  14.324  0.3101  0.0746  0.3105
24370W        W42574   2.108   2.102   3.358 -0.1167  0.2417  0.0913
24371W        W42575   4.330  18.544  14.080  0.0293 -0.1513 -0.1052
24372W        W42576  11.501   3.426   2.263 -0.1396 -0.1568 -0.0402
24373W        W42577   0.084   4.950  14.897  0.2609  0.1617  0.1754
24374W        W42578   3.619   0.277  12.765 -0.0071 -0.2340 -0.2318
24375W        W42579   0.535   1.925   0.228 -0.0774 -0.3371 -0.1732
24376W        W42580   1.253   2.260  10.290  0.3669  0.1626  0.0552
24377W        W42581   3.628   2.558  13.456 -0.0633 -0.0131 -0.1310
24378W        W42582  10.610  11.405   2.545 -0.1741 -0.3142 -0.0051
24379W        W42583  10.272   7.890   4.161  0.0582  0.3035 -0.0598
24380W        W42584  11.379   9.036  12.489  0.2235 -0.3857 -0.1890
24381W        W42585  15.605   4.718  11.490  0.1606 -0.0003 -0.1444
24382W        W42586   3.287   9.331   2.748  0.0203 -0.0325  0.1813
24383W        W42587   2.419  14.670   2.120 -0.1967  0.1687 -0.0197
24384W        W42588   5.380   2.666   3.297  0.0342  0.1120  0.1405
24385W        W42589   8.356  14.633   4.382  0.0231  0.0630  0.1063
24386W        W42590   3.454  17.555   3.665  0.1850 -0.0939 -0.4060
24387W        W42591   5.725  15.360   0.801 -0.1302 -0.2722 -0.0443
24388W        W42592  14.903  14.145  14.180 -0.1126  0.2094 -0.0581
24389W        W42593   3.719   8.350   0.551 -0.1806  0.2862  0.0671
24390W        W42594  16.161   2.632  14.703  0.0663  0.2158 -0.1565
24391W        W42595   3.995   9.559   1.045 -0.0694  0.1197 -0.2096
24392W        W42596   9.057   4.409  14.830  0.2360 -0.2498  0.0163
24393W        W42597  17.380  15.738  11.951 -0.0406 -0.1921  0.1715
24394W        W42598   9.661  12.195  10.833  0.1042  0.0311  0.1952
24395W        W42599  15.823   8.501   2.483 -0.0348  0.3892 -0.0823
24396W        W42600   8.981   9.801  11.152 -0.1432 -0.2477 -0.0405
24397W        W42601   1.854   1.376  12.965  0.0787  0.2017  0.1862
24398W        W42602  17.374   3.720   2.587 -0.1790 -0.1497 -0.2220
24399W        W42603  11.709   6.751  14.731  0.2482 -0.0701 -0.2449
24400W        W42604   2.242   1.023   2.136 -0.0387  0.0322 -0.4105
24401W        W42605   2.630  15.166   4.527  0.0122 -0.2110 -0.1449
24402W        W42606  13.700   7.452   3.828 -0.1952 -0.0016  0.0118
24403W        W42607   3.278  10.406   0.086  0.0466  0.3238 -0.0691
24404W        W42608   0.408   5.696  13.291  0.2657  0.0732 -0.0003
24405W        W42609   6.864  16.942   2.096 -0.1096 -0.0865  0.0663
24406W        W42610   1.186   6.097   0.998 -0.1479 -0.1822  0.2713
24407W        W42611  10.540  16.703   2.078 -0.1800  0.2794 -0.0170
24408W        W42612   8.985  17.111   1.538  0.1155  0.0399 -0.2176
24409W        W42613  18.522   2.958   3.029  0.1082  0.1736  0.4322
24410W        W42614   8.100   5.773  11.797  0.2766  0.2706  0.2023
24411W        W42615   1.085   3.225   0.543 -0.0283  0.1862  0.0850
24412W        W42616  14.552   0.549  12.633 -0.0044  0.2734  0.1875
24413W        W42617  15.784  13.192  12.201  0.1525 -0.1149  0.2763
24414W        W42618   8.240   5.075   3.893  0.2690 -0.0826 -0.0739
24415W        W42619   4.028  15.807   2.399 -0.3190  0.0916  0.1874
24416W        W42620   8.476  13.093  12.560  0.1093 -0.4734 -0.3048
24417W        W42621   3.294  11.284   0.248  0.1402  0.0799 -0.0588
24418W        W42622  10.270  16.793  10.997 -0.0502  0.0113 -0.0248
24419W        W42623  10.806  14.031   3.051 -0.0807 -0.0890  0.3414
24420W        W42624  17.658   7.980  11.728  0.1960 -0.0553 -0.1379
24421W        W42625   0.791   8.222  15.361 -0.2441  0.4037  0.2812
24422W        W42626  13.979   0.861  11.508  0.1919 -0.2554 -0.0745
24423W        W42627  14.681  14.515  13.350 -0.0348 -0.1453  0.1758
24424W        W42628   0.832   8.782   3.857  0.3864  0.2145  0.1396
24425W        W42629  12.227  12.319  11.686 -0.1548  0.0326  0.1631
24426W        W42630   9.351   8.904   9.866  0.0679 -0.1836  0.0862
24427W        W42631  15.737   2.375  11.864  0.0262 -0.0685  0.1409
24428W        W42632  12.268  18.140  11.785  0.2319 -0.0097  0.3088
24429W        W42633  16.370  11.133   5.986  0.0419  0.1891 -0.0690
24430W        W42634   6.286  10.712   4.892  0.0507  0.1994 -0.1267
24431W        W42635  11.810   8.768   2.951  0.0346  0.0235 -0.2570
24432W        W42636  14.600  10.708   4.153 -0.0050 -0.2458 -0.1313
24433W        W42637   4.103  15.891  13.191  0.3773  0.2805  0.0423
24434W        W42638  15.528  13.755   4.112 -0.0424  0.0730 -0.1279
24435W        W42639  16.693   7.051   3.298 -0.2053 -0.2464  0.0322
24436W        W42640   9.541   7.408  14.182 -0.0438  0.1750  0.0252
24437W        W42641   4.820  14.129   0.419  0.0210 -0.1184 -0.2151
24438W        W42642   8.231   3.824  12.909 -0.0101 -0.1660  0.2808
24439W        W42643   2.603   3.111   2.745 -0.1750  0.1203 -0.0734
24440W        W42644  14.729   4.892   4.713 -0.0171  0.0937 -0.1620
24441W        W42645   9.223  18.378   3.446  0.1285 -0.0689 -0.3020
24442W        W42646  15.074  15.992   3.310 -0.2397  0.2233  0.1277
24443W        W42647  16.148  14.350  15.021  0.2866  0.4826  0.3016
24444W        W42648   1.683   7.476   0.321 -0.1041  0.2077  0.3179
24445W        W42649   3.020  16.434  10.809 -0.0036  0.3430  0.2367
24446W        W42650   2.576   9.031   2.055  0.0532  0.0101 -0.1626
24447W        W42651  11.090  17.255  11.121 -0.2052  0.1331  0.0894
24448W        W42652  18.581  17.316  14.392 -0.2205 -0.2765  0.3783
24449W        W42653  17.108   2.827   1.888 -0.2250  0.2847 -0.0654
24450W        W42654   3.208   3.468  12.658 -0.2658  0.3128 -0.1438
24451W        W42655  15.034   2.613  15.138  0.0115 -0.3059  0.1351
24452W        W42656   7.451   0.856   1.609 -0.1165 -0.1150 -0.1400
24453W        W42657   1.810   2.665  12.385  0.2294 -0.1468  0.1167
24454W        W42658  10.168  16.398  12.424 -0.0497  0.4332  0.2750
24455W        W42659  15.014  17.044  13.913 -0.1329  0.0424 -0.0170
24456W        W42660   5.813  10.369   3.621 -0.0849  0.2045  0.0089
24457W        W42661   8.032  16.142   0.081 -0.0174 -0.0075 -0.1178
24458W        W42662   2.630   0.470  11.992 -0.1893 -0.0191  0.2135
24459W        W42663  17.409  13.065   4.368  0.0956  0.1581 -0.1488
24460W        W42664   9.008   7.229   1.852  0.1048  0.1658 -0.1491
24461W        W42665   8.758  15.148  12.814 -0.1246  0.1443 -0.0539
24462W        W42666   9.902  16.235  13.781  0.0253 -0.4000 -0.0163
24463W        W42667  18.182   1.732  13.104  0.2267 -0.0975 -0.0837
24464W        W42668  10.459  11.574   1.142  0.3606 -0.2010 -0.5798
24465W        W42669  11.444   6.160   2.221  0.0826 -0.1386 -0.0993
24466W        W42670   2.968  15.826   3.079 -0.1244 -0.1367 -0.0570
24467W        W42671   7.757  11.832  11.134  0.1665 -0.3345  0.2227
24468W        W42672   5.667  18.225  13.398 -0.0067 -0.0909 -0.1212
24469W        W42673  17.255  16.578   1.198  0.1192 -0.0260  0.0021
24470W        W42674   1.036   5.184  15.340  0.1148  0.1060 -0.1854
24471W        W42675   5.973  10.683  14.972 -0.1521 -0.1649  0.0903
24472W        W42676  16.870   8.921   3.609  0.1855 -0.0184  0.1120
24473W        W42677   3.136  11.778  14.995 -0.1683 -0.1834 -0.2261
24474W        W42678  16.031   6.775   6.416 -0.1828 -0.0523  0.1734
24475W        W42679   5.445   6.008  14.033 -0.2053 -0.1753 -0.1600
24476W        W42680   5.978   8.334   2.520  0.0574 -0.2253  0.0695
24477W        W42681   7.290   8.407   1.334 -0.1318  0.1800 -0.1956
24478W        W42682  18.374  13.848  13.128  0.0252 -0.1533  0.0116
24479W        W42683  14.082  13.751  14.430  0.1015  0.2006  0.1841
24480W        W42684  14.127   4.787  11.435  0.1198 -0.1480 -0.1654
24481W        W42685  16.814  11.456   3.323  0.6239 -0.0548  0.3645
24482W        W42686  14.262  18.418  12.320  0.0195 -0.3094  0.2504
24483W        W42687   2.589  13.785   2.471 -0.1932 -0.1668 -0.0001
24484W        W42688   6.172   2.000   4.159  0.1457  0.1529  0.2100
24485W        W42689   0.567   6.309   1.509 -0.1280  0.0197 -0.0008
24486W        W42690  15.748  16.692   2.608  0.0059 -0.4424 -0.0112
24487W        W42691   0.877  18.161  13.479 -0.0362 -0.3523  0.2712
24488W        W42692   1.314   9.400   2.951  0.3084  0.0940 -0.0380
24489W        W42693  16.437  14.230   4.505 -0.0767 -0.1041 -0.0355
24490W        W42694   4.606   3.049  14.970 -0.2316 -0.2088 -0.1869
24491W        W42695   6.383  18.528   2.590 -0.1955  0.3179  0.1093
24492W        W42696   3.860   1.095   3.793  0.2025 -0.4087 -0.0684
24493W        W42697  17.548   2.897  11.582 -0.3041 -0.1921  0.1245
24494W        W42698  13.512   6.847   4.364  0.3278  0.1542 -0.2208
24495W        W42699  13.720  17.561   4.130 -0.1700  0.2946 -0.2103
24496W        W42700  16.641  11.276   4.032 -0.1589 -0.0085  0.0073
24497W        W42701   0.966   4.378  11.281  0.4313 -0.5032  0.0604
24498W        W42702   1.859  17.998  11.326  0.0057 -0.1975 -0.0740
24499W        W42703   2.234   4.089   2.058 -0.0265 -0.3027  0.1407
24500W        W42704  17.590  13.636   3.124 -0.2222  0.2090 -0.2171
24501W        W42705   6.291   2.635   3.133 -0.3043 -0.1832 -0.0116
24502W        W42706   7.588  17.166  10.320  0.1810 -0.0926 -0.1417
24503W        W42707   3.683   0.701  11.051 -0.0973  0.0691 -0.1655
24504W        W42708   2.983  15.488   2.436 -0.0196 -0.1107 -0.2057
24505W        W42709  16.312   8.435   3.381 -0.0382  0.1535  0.3556
24506W        W42710   9.651   0.372  13.023 -0.0238  0.1506 -0.1791
24507W        W42711  12.813   1.610   3.068  0.0876  0.1880 -0.0991
24508W        W42712  12.706   7.744  14.464  0.1033  0.4295 -0.0718
24509W        W42713   9.850  12.934   1.167 -0.0959  0.3610 -0.0610
24510W        W42714  16.409  10.881   3.634  0.1882 -0.4570  0.0413
24511W        W42715  16.993  12.849   0.153 -0.1454 -0.1388  0.2557
24512W        W42716  14.544   1.428   2.114  0.0051 -0.2126 -0.0221
24513W        W42717   9.202  11.507   4.064 -0.3358  0.4272 -0.0498
24514W        W42718  13.238   7.618   3.450  0.0429  0.0824  0.0415
24515W        W42719  16.129   3.663   2.506  0.0787 -0.2140  0.4110
24516W        W42720   7.153   0.096  11.323 -0.0512 -0.1203 -0.2097
24517W        W42721  17.183  15.798  13.022 -0.0262 -0.0077 -0.0640
24518W        W42722   3.967  18.182   2.796  0.1821 -0.2907  0.1933
24519W        W42723  11.807   7.841   1.796 -0.0934  0.1363 -0.1618
24520W        W42724   8.647  12.667   3.458 -0.2939 -0.0123 -0.0983
24521W        W42725   0.160   1.794  15.347 -0.4337 -0.1744 -0.0271
24522W        W42726   5.662  14.664  14.803 -0.0658  0.2986 -0.1240
24523W        W42727   9.058   0.818  11.035 -0.1278 -0.1643 -0.2293
24524W        W42728  13.549  14.050   0.688 -0.1678  0.1690 -0.1142
24525W        W42729   6.653   4.006  14.415 -0.1378 -0.2002 -0.1410
24526W        W42730  12.527   9.687  12.665  0.0495 -0.1619 -0.0242
24527W        W42731   8.739   9.235  13.921  0.0914  0.0551 -0.0774
24528W        W42732  13.562   5.732  13.534 -0.0126  0.0041  0.2413
24529W        W42733   6.435   1.599  15.081 -0.2476  0.1275  0.2109
24530W        W42734   2.669  14.145   2.784 -0.0763  0.4459  0.0651
24531W        W42735   9.125  11.306  12.177 -0.0022  0.1681 -0.0425
24532W        W42736  16.568   5.995  12.457  0.2205  0.1581 -0.1324
24533W        W42737   2.609  14.962  13.294  0.0863 -0.1472  0.1871
24534W        W42738   1.686  16.583  15.018  0.2096 -0.1235 -0.1640
24535W        W42739  11.605   4.860   3.134  0.1936  0.1042 -0.3709
24536W        W42740  13.513  17.424   1.707 -0.1869  0.0450  0.4028
24537W        W42741  14.177   8.951   2.059  0.2615  0.1609 -0.0010
24538W        W42742   5.190   2.306   4.442  0.0187  0.2356 -0.0243
24539W        W42743   3.469   7.781   0.565 -0.6475  0.2736  0.1342
24540W        W42744   9.920  11.800  14.038  0.1844 -0.0014  0.1112
24541W        W42745  12.380   1.072   1.065 -0.1913 -0.2049 -0.2258
24542W        W42746  16.553   0.437  12.175 -0.2469  0.0138  0.0394
24543W        W42747  14.078  14.883  13.061 -0.1289  0.1664 -0.0328
24544W        W42748  18.128  18.046   1.772 -0.3060 -0.4545  0.0073
24545W        W42749  11.205   0.277   1.165  0.2146 -0.2576  0.0439
24546W        W42750   9.954  12.723  11.090 -0.0950  0.2674 -0.0643
24547W        W42751   9.859  18.003   1.368  0.0914 -0.1315 -0.0102
24548W        W42752   1.729   2.402  14.928  0.0446  0.1388  0.1418
24549W        W42753  12.362  18.250  14.792 -0.0283  0.0757  0.2497
24550W        W42754  11.371   9.544  13.151  0.0188  0.4244 -0.0376
24551W        W42755   9.087  10.311   3.499 -0.1089 -0.0728  0.0772
24552W        W42756   3.343   7.454  11.066  0.0552  0.0987  0.0639
24553W        W42757   3.069  15.273   3.918 -0.0192  0.1499 -0.0811
24554W        W42758  15.283   6.877  12.783 -0.0745 -0.1793 -0.0709
24555W        W42759  15.778  12.541  11.138  0.0972  0.0230 -0.1226
24556W        W42760  12.863  13.290   2.499  0.1472  0.0008 -0.0143
24557W        W42761   2.071   6.855   1.950  0.1139 -0.0706  0.0935
24558W        W42762  10.315   6.847   2.145 -0.1036 -0.0848  0.0612
24559W        W42763   9.548  15.682  13.118 -0.0579  0.1308  0.0837
24560W        W42764   8.511   2.439   2.750  0.2150  0.0708  0.0214
24561W        W42765   2.896   7.282   4.047 -0.0691  0.1259  0.0064
24562W        W42766  16.468   3.330   0.117 -0.4632 -0.2354  0.0486
24563W        W42767  13.768  14.394   1.249 -0.1763 -0.1062  0.0297
24564W        W42768  14.634   8.392  11.313  0.2476  0.0677 -0.3867
24565W        W42769   5.797   3.769  10.770  0.3347 -0.0028 -0.0191
24566W        W42770  14.992   4.493   0.047 -0.1427 -0.0871  0.0341
24567W        W42771   0.484  10.362  12.968  0.2636  0.2264 -0.1020
24568W        W42772   6.751   6.374  14.644  0.1020 -0.0201 -0.2685
24569W        W42773   4.105   9.733  15.237  0.0503 -0.2587  0.0199
24570W        W42774   4.207   4.866  12.339 -0.3547  0.0465  0.0818
24571W        W42775  12.467   9.772   1.063 -0.0723 -0.1931  0.1365
24572W        W42776   2.316  17.075   1.881  0.1478  0.3841 -0.1557
24573W        W42777   8.479   2.597  12.963 -0.0484 -0.3790 -0.3718
24574W        W42778  15.187  13.858   0.581  0.1048 -0.1533 -0.1987
24575W        W42779   8.096   3.229  10.847 -0.0068 -0.0544 -0.3737
24576W        W42780  10.801  17.999   3.007 -0.2480  0.0634  0.0954
24577W        W42781  12.020   0.939   1.989  0.0913  0.1506  0.0891
24578W        W42782  10.504   4.557  12.049  0.1049  0.2190  0.0776
24579W        W42783   9.653   8.604   4.999  0.2209  0.0058 -0.0567
24580W        W42784   3.836  15.660   1.131 -0.1347 -0.2228 -0.1094
24581W        W42785  12.088  18.026   2.598  0.0224  0.2138  0.1344
24582W        W42786  10.779  17.741  14.111 -0.1029 -0.1941 -0.2515
24583W        W42787   1.448   7.878   0.187 -0.0872 -0.0637  0.0998
24584W        W42788  11.386  16.690  13.478  0.1693 -0.0141 -0.1691
24585W        W42789   1.826   9.915  13.916  0.0013 -0.1282 -0.0600
24586W        W42790   8.442   4.025   0.459 -0.0190 -0.1475 -0.0313
24587W        W42791   8.125   9.419   0.494 -0.0504  0.0029 -0.0539
24588W        W42792   7.912   3.574   1.923  0.1508  0.2984  0.2464
24589W        W42793  17.472   0.214   2.568  0.0376  0.1943  0.1859
24590W        W42794   1.919  16.405   0.479 -0.0059  0.3669  0.2591
24591W        W42795   6.179   6.962  11.809  0.2133 -0.1720 -0.0313
24592W        W42796   8.222   9.492  11.458 -0.0589  0.1712  0.0773
24593W        W42797  12.368  16.153  14.516  0.0870  0.1448  0.0941
24594W        W42798  12.552  11.912   2.382  0.0953  0.0515 -0.0154
24595W        W42799  16.251   5.737   2.746 -0.4759  0.1500 -0.0205
24596W        W42800  17.107  13.773  11.999 -0.0501  0.1431  0.3590
24597W        W42801   9.481  16.042   0.695 -0.2051 -0.0137  0.1188
24598W        W42802  14.101   0.051  15.181  0.1096  0.1656  0.2271
24599W        W42803   5.125  16.271  13.706 -0.0662  0.0247 -0.1329
24600W        W42804  10.312  10.803  13.926 -0.1360 -0.1109  0.3496
24601W        W42805  13.671  15.188   1.842  0.3372 -0.0448  0.0101
24602W        W42806  13.223   2.426   2.124  0.0962 -0.3997 -0.1473
24603W        W42807   7.612  15.089   4.384 -0.1823 -0.1732 -0.1130
24604W        W42808  13.641   5.434  14.535 -0.0830 -0.0153  0.1737
24605W        W42809   5.461   7.024  15.368 -0.0712 -0.1521  0.1033
24606W        W42810   9.951   1.565   1.903 -0.0457  0.1054 -0.1404
24607W        W42811   7.019  17.132   2.858  0.0341 -0.0069 -0.1225
24608W        W42812  15.401  11.651  13.061 -0.1008  0.2134 -0.0955
24609W        W42813   9.370  14.853   2.515  0.0152  0.2552  0.0426
24610W        W42814   9.833  13.255  12.496 -0.0646 -0.2226 -0.1608
24611W        W42815   7.226   4.459  11.976 -0.1163  0.0306  0.1278
24612W        W42816  15.346   1.893   0.914  0.0396 -0.2484 -0.1859
24613W        W42817   0.297   7.137  12.361 -0.1126 -0.0250  0.2302
24614W        W42818   5.616   5.131   0.102  0.3180  0.1003 -0.1626
24615W        W42819   8.193   1.722   0.535 -0.0400  0.0948  0.1338
24616W        W42820   9.100   2.321  11.399 -0.1544 -0.2107 -0.0303
24617W        W42821   9.225  15.297  11.412  0.4483 -0.1443 -0.2028
24618W        W42822  11.730   4.698  14.365  0.0124 -0.1002  0.1528
24619W        W42823  15.922   8.697   3.591 -0.5183 -0.0242  0.1335
24620W        W42824  10.341   5.348   3.874 -0.1008  0.2111  0.2055
24621W        W42825   4.301  12.993   2.032  0.2052  0.1564 -0.1025
24622W        W42826   0.691   5.682   1.595  0.0343  0.2673  0.0646
24623W        W42827  15.823  13.258   3.943 -0.0427  0.0478 -0.0314
24624W        W42828  15.013   5.507  13.146  0.1370 -0.2338 -0.0850
24625W        W42829  13.655   0.163   4.168 -0.2547  0.0087  0.2452
24626W        W42830   1.685   7.300  11.737  0.2197  0.0376  0.0172
24627W        W42831  16.335   1.049  13.224 -0.2732  0.1172 -0.3262
24628W        W42832   0.219  14.676   0.878  0.0593 -0.1722  0.0618
24629W        W42833   4.937  13.465  13.853 -0.3239  0.0609  0.0320
24630W        W42834   0.299  16.273  12.989  0.1368  0.1356 -0.0175
24631W        W42835   4.835   7.595   2.809 -0.0304 -0.1602 -0.1109
24632W        W42836  14.970  15.609   0.051 -0.0460  0.0420 -0.4694
24633W        W42837   8.696   0.806  10.502 -0.3572  0.0010 -0.0378
24634W        W42838   7.887   4.833  14.506  0.2287 -0.0470  0.4448
24635W        W42839   3.589   0.819   2.461 -0.0608 -0.0596  0.2261
24636W        W42840   7.502  15.731  11.290 -0.2510 -0.1589  0.0044
24637W        W42841   8.541   5.550   2.604 -0.0586  0.2180 -0.1229
24638W        W42842  15.667   7.644   5.056 -0.1125 -0.2458 -0.2324
24639W        W42843   2.608   1.062   2.505 -0.1246 -0.1310 -0.1272
24640W        W42844  17.145   4.027  10.837 -0.0190  0.1886  0.1514
24641W        W42845   2.197   5.999   3.705  0.0445  0.0762 -0.2886
24642W        W42846  10.213  17.110  12.012 -0.3223 -0.1755  0.0809
24643W        W42847  16.216  13.070  13.456 -0.1135  0.0260  0.2525
24644W        W42848  15.625   1.767  13.869  0.2535 -0.0760 -0.0360
24645W        W42849  15.681  15.316  12.534  0.2649 -0.0937 -0.0735
24646W        W42850  13.929   1.330   2.111  0.0508  0.0300  0.1398
24647W        W42851  14.463   5.926   0.269  0.1814 -0.0913 -0.0634
24648W        W42852   9.352  13.310  11.278  0.0030  0.0315  0.2055
24649W        W42853  11.851   8.165   3.235 -0.1228 -0.1136 -0.0972
24650W        W42854  16.075   4.894  12.382  0.1121 -0.1768 -0.1649
24651W        W42855  15.754  16.380  14.936  0.2558  0.1846  0.1619
24652W        W42856  18.205  18.651   0.488 -0.0809  0.1463 -0.1828
24653W        W42857   0.615  15.637  10.888  0.3026  0.3709 -0.2933
24654W        W42858   9.155   1.859  13.424 -0.0779 -0.1374  0.0710
24655W        W42859  13.041   0.563  12.167 -0.1433 -0.0040  0.0853
24656W        W42860  14.719   3.778   2.880 -0.0915  0.2443 -0.2770
24657W        W42861   8.410   5.563   3.150 -0.0440 -0.1021  0.1825
24658W        W42862  16.979   4.267  12.373  0.1366 -0.0838 -0.0667
24659W        W42863   9.196   9.871  14.035  0.0135 -0.1425  0.3907
24660W        W42864   0.502  14.933   1.209  0.1660  0.0533  0.1520
24661W        W42865   5.972   8.703   4.426 -0.4759  0.1650  0.2654
24662W        W42866  10.698   9.132  14.199  0.2131 -0.1168  0.2258
24663W        W42867   8.116  15.176  14.654 -0.0539  0.0280 -0.1192
24664W        W42868   0.976   0.173  13.441 -0.0977 -0.0125 -0.1410
24665W        W42869  16.089  14.059  12.169 -0.1114  0.0075  0.2440
24666W        W42870   8.786  12.629  14.087  0.3144  0.1252 -0.0469
24667W        W42871   6.601  10.373  11.950  0.1347 -0.1419  0.0101
24668W        W42872   6.443   6.657  15.058  0.0264 -0.0834  0.2217
24669W        W42873   9.707  18.047  14.637  0.0870  0.3056 -0.0263
24670W        W42874  16.072  15.098   5.398  0.0595  0.3074  0.0683
24671W        W42875   4.841   3.959   0.181 -0.2782 -0.0361  0.1587
24672W        W42876   0.280   6.834  13.265 -0.2885  0.1059 -0.0593
24673W        W42877   1.717  17.101  11.689 -0.0617  0.0438  0.1539
24674W        W42878   6.314   1.878   3.618  0.0491  0.0738 -0.0102
24675W        W42879  17.958   3.833  13.209  0.0744  0.0329  0.2851
24676W        W42880   5.631   1.806   5.446 -0.1579  0.1812  0.0331
24677W        W42881   5.371   0.780   1.352  0.2120 -0.0323  0.3533
24678W        W42882  14.941  14.878  11.937  0.0906  0.0718 -0.0141
24679W        W42883   2.107  10.768   3.025  0.1705 -0.0027 -0.0835
24680W        W42884   9.392   8.308   1.980 -0.2243  0.1149  0.0356
24681W        W42885  15.394   6.155  12.157  0.0009 -0.1789 -0.0508
24682W        W42886  14.742  10.091   1.562  0.3472  0.0354 -0.0719
24683W        W42887  14.877  14.987   3.034 -0.2889  0.2247 -0.1383
24684W        W42888  10.718   3.224   1.017  0.0243 -0.2030  0.0420
24685W        W42889  12.656  18.006  15.238  0.0654 -0.1694 -0.2366
24686W        W42890  12.928  18.555   3.696 -0.2404 -0.2409  0.1411
24687W        W42891   1.155   3.019  15.351 -0.0046  0.0882 -0.2146
24688W        W42892   8.604   5.348   5.652 -0.1103 -0.1443 -0.2785
24689W        W42893  10.779   7.880   0.717 -0.0851  0.0919 -0.1250
24690W        W42894  16.864  12.700   2.185  0.0443  0.1296 -0.3736
24691W        W42895   6.294   9.860   1.516 -0.2768  0.0030  0.1729
24692W        W42896  16.207  11.847  12.924 -0.1805  0.0391 -0.0417
24693W        W42897  14.742  11.326   1.621  0.0717  0.3569 -0.0793
24694W        W42898   6.137   1.856  12.919  0.1681  0.0053 -0.3153
24695W        W42899  15.631  14.606  13.415  0.0826 -0.0569 -0.1514
24696W        W42900  16.855  11.535  12.772 -0.0429 -0.1258  0.1646
24697W        W42901  14.554  14.832   1.263 -0.1177 -0.1368 -0.1258
24698W        W42902  16.634   2.044   3.501 -0.0363  0.2016  0.0238
24699W        W42903  17.778   9.434  10.358  0.1194  0.1850 -0.2269
24700W        W42904   8.156   1.430  10.984  0.0285 -0.2673 -0.1406
24701W        W42905   0.162   6.620  13.704 -0.0887 -0.1519 -0.2236
24702W        W42906   6.548  18.039  11.321 -0.2304 -0.2148  0.3277
24703W        W42907   5.946  16.121  11.431 -0.0811 -0.0492 -0.0000
24704W        W42908   9.950   7.494   4.811 -0.0043  0.0030 -0.0355
24705W        W42909   8.404   3.288  14.034 -0.2647  0.2880 -0.0512
24706W        W42910  14.147  11.724  11.624 -0.2722 -0.0724 -0.0180
24707W        W42911   9.873   0.398  15.453  0.0925 -0.3176  0.1559
24708W        W42912   0.460  11.402  14.608 -0.1693  0.2750 -0.0531
24709W        W42913  14.335   7.425   2.247  0.0383 -0.1205 -0.0109
24710W        W42914  15.517   6.783   2.077 -0.0006 -0.2209 -0.3134
24711W        W42915  13.735   1.110  11.900 -0.1979 -0.0802  0.1127
24712W        W42916   9.267   5.094  11.049 -0.2169 -0.1644  0.0172
24713W        W42917   2.174   2.930  13.782  0.0950  0.0213 -0.2086
24714W        W42918   6.670   7.983   9.736 -0.3624 -0.0390 -0.0776
24715W        W42919   2.766   5.740   3.834  0.0134  0.0360  0.1341
24716W        W42920   6.262   7.678  13.191  0.1252 -0.3523  0.1621
24717W        W42921  15.569   6.995  15.145  0.0697 -0.0226 -0.3044
24718W        W42922  11.936  15.488  13.762 -0.0165 -0.4262  0.0295
24719W        W42923  11.713   8.193  11.860 -0.1680 -0.0613 -0.0250
24720W        W42924  14.472   6.511   0.628  0.0872 -0.1540 -0.0735
24721W        W42925   3.172   9.866   2.801  0.1900  0.6080 -0.0443
24722W        W42926   8.070   7.552  14.034  0.1420  0.0580 -0.0175
24723W        W42927  12.251   4.515  13.660  0.1640 -0.1035  0.3065
24724W        W42928  16.197  14.209   1.028  0.0501 -0.0171  0.5091
24725W        W42929   3.459   0.194   3.789  0.1295  0.4258 -0.0514
24726W        W42930  14.121   3.600   0.645  0.0484  0.0353 -0.1733
24727W        W42931  10.286   2.302   0.153 -0.2480  0.3654  0.0073
24728W        W42932   3.860   0.389   0.142 -0.0377 -0.2454  0.2542
24729W        W42933  10.925   2.297   4.236  0.2144  0.0807  0.1731
24730W        W42934   5.423  10.553   2.006 -0.2474 -0.1748  0.1191
24731W        W42935  12.995  16.952  12.032  0.1675 -0.0261 -0.2767
24732W        W42936   2.761   9.109  11.375  0.2855 -0.0922 -0.0415
24733W        W42937  12.338   9.260  14.712 -0.1043  0.0449 -0.0178
24734W        W42938  17.484  16.993   2.672 -0.1015  0.1669  0.0302
24735W        W42939   2.882   3.230   1.795 -0.3176 -0.1213 -0.2420
24736W        W42940   5.353   2.186   3.664  0.1268 -0.2745 -0.1089
24737W        W42941   7.411  18.588  12.283 -0.0186  0.1950 -0.2044
24738W        W42942   2.653  12.407  14.589  0.4201  0.0982 -0.3103
24739W        W42943   6.209   3.994  13.372  0.2905  0.3018  0.2709
24740W        W42944   8.129  12.578   4.139 -0.4244 -0.2138 -0.0386
24741W        W42945  12.232   3.620  14.185 -0.1317 -0.1828 -0.0446
24742W        W42946  14.659  13.514   3.140  0.3385 -0.1384  0.0416
24743W        W42947  18.385   5.814   3.257 -0.0932 -0.0642  0.2093
24744W        W42948   1.915   9.079   0.807  0.0872 -0.0075 -0.0338
24745W        W42949   7.870   3.862  10.929 -0.3751 -0.0266 -0.0209
24746W        W42950  11.941   5.619   1.654 -0.2551  0.4164 -0.3539
24747W        W42951  10.548  17.402  11.607  0.2067  0.1764  0.0626
24748W        W42952  13.813  17.874   3.043 -0.1169 -0.0563  0.0811
24749W        W42953   3.905   2.127   0.032 -0.0001  0.1763  0.2812
24750W        W42954   1.581  12.134  11.058  0.0026 -0.1433 -0.0528
24751W        W42955  11.964   7.234   3.941  0.1471 -0.0462 -0.1860
24752W        W42956  13.161  10.404   1.529 -0.0656 -0.3230 -0.1763
24753W        W42957  12.624  12.947  12.888  0.0119  0.0402 -0.0921
24754W        W42958   0.166  14.549  13.388 -0.1068  0.0282 -0.3160
24755W        W42959  10.532   2.177  14.251 -0.1596 -0.5524 -0.1038
24756W        W42960  17.176   1.993  13.024  0.0864  0.2452 -0.1302
24757W        W42961   1.789   7.701  15.325 -0.1162 -0.0833  0.0775
24758W        W42962  18.505   1.308  12.702 -0.1717  0.0407  0.3010
24759W        W42963  10.001   5.261   4.318  0.1760 -0.1854  0.2775
24760W        W42964   0.813   4.789   3.536 -0.3207  0.1052 -0.0091
24761W        W42965  12.026   2.325  14.259  0.1054 -0.4236 -0.4014
24762W        W42966  12.183   8.024  11.786  0.1195  0.0691 -0.4000
24763W        W42967   7.976  17.522   0.135  0.0692 -0.2313 -0.1604
24764W        W42968  13.367  11.148  11.228  0.0169 -0.1094  0.0989
24765W        W42969   6.496   4.431  10.808  0.2232  0.0799 -0.1913
24766W        W42970   4.512  13.239   5.559  0.0323  0.3226 -0.1462
24767W        W42971   0.341   4.981   3.773  0.0183 -0.2097  0.3277
24768W        W42972   6.845   5.736  14.840 -0.0148  0.1578 -0.4310
24769W        W42973   7.488   6.364   3.171  0.0587  0.1334  0.0672
24770W        W42974   6.825   8.042  11.906 -0.1284 -0.0104 -0.0675
24771W        W42975   5.712  11.681  11.039 -0.0110 -0.1231  0.1420
24772W        W42976  15.411   1.945   1.747 -0.2790  0.2042  0.1385
24773W        W42977   7.328   7.654   3.603 -0.1015  0.0656  0.1976
24774W        W42978  15.154   2.714  14.640 -0.0278 -0.1083 -0.1035
24775W        W42979  13.802   7.248  12.414  0.0572 -0.0959  0.0304
24776W        W42980  10.888   7.660   1.612 -0.2135 -0.2598 -0.1854
24777W        W42981  13.817   8.284   1.250 -0.0540  0.1809 -0.2629
24778W        W42982  12.053   2.107  13.381  0.2645 -0.0659  0.2399
24779W        W42983   6.914   1.944   1.903  0.2520 -0.0768  0.1550
24780W        W42984   6.670   9.413   1.163  0.1666 -0.0021  0.0076
24781W        W42985  17.521  13.174   3.359 -0.0168 -0.0564  0.0036
24782W        W42986   7.891   8.952  12.003  0.2931  0.0297 -0.0504
24783W        W42987  16.275   9.224  11.986  0.3141 -0.1022 -0.0490
24784W        W42988  15.166  10.273  11.283 -0.0050 -0.2255 -0.2680
24785W        W42989   7.435  18.097  13.606 -0.2308 -0.1142  0.0636
24786W        W42990  10.092   6.003   0.645 -0.0009 -0.0847 -0.0746
24787W        W42991  12.671  15.862   0.923 -0.0268 -0.1154 -0.0240
24788W        W42992   7.179  17.601   2.987  0.1579  0.0423  0.0725
24789W        W42993  10.455   1.907   3.205  0.0290  0.1543  0.1356
24790W        W42994   7.758   5.864  13.160 -0.2442 -0.2851 -0.3108
24791W        W42995   9.734  17.138   0.971 -0.0657 -0.2031 -0.0075
24792W        W42996   1.699  14.486  11.530 -0.0800  0.0962 -0.0492
24793W        W42997  16.186   4.639  10.848  0.0176  0.0751  0.1216
24794W        W42998   4.800   9.468   1.127 -0.0683  0.2187 -0.1168
24795W        W42999  16.337  18.525   1.297  0.1523  0.0281  0.0914
24796W        W43000  15.135  15.827  12.504  0.2938  0.0341 -0.1350
24797W        W43001   9.195   2.052   0.147 -0.1413 -0.0298 -0.1016
24798W        W43002  18.086   9.206   3.762 -0.0451  0.0436  0.2195
24799W        W43003  16.912  13.572  12.470 -0.1290 -0.0198 -0.0087
24800W        W43004   3.619  13.910   1.260  0.1730  0.6394  0.0294
24801W        W43005  13.139   5.624   3.163  0.4857 -0.1704  0.0223
24802W        W43006   8.476  16.313  10.496 -0.2287 -0.3402  0.1486
24803W        W43007  10.466   8.738   3.596  0.2272  0.1017 -0.2102
24804W        W43008  14.847   9.601   1.856  0.1305  0.1085  0.1796
24805W        W43009  11.261   9.193   0.618 -0.0628 -0.2488 -0.2341
24806W        W43010  18.525   9.708  14.363 -0.0978  0.1381  0.2334
24807W        W43011   7.633  15.868   3.911  0.1525  0.0681 -0.1101
24808W        W43012   1.698   8.373  11.760  0.1672 -0.1218 -0.1371
24809W        W43013   5.647   0.699   3.818 -0.0833  0.2100 -0.3025
24810W        W43014   9.043  14.032   0.926 -0.0894 -0.1293 -0.2268
24811W        W43015  16.902   1.214  12.388  0.0558 -0.0425  0.2434
24812W        W43016  12.038  15.383  14.258 -0.0926 -0.2478  0.1080
24813W        W43017   8.006  15.032  13.409  0.2603 -0.0234 -0.1329
24814W        W43018   4.928   6.618   1.274  0.0209  0.0588 -0.0432
24815W        W43019   0.593  11.120   3.198  0.0086 -0.2113 -0.0021
24816W        W43020   3.823   8.793   3.539 -0.0360  0.0645  0.0734
24817W        W43021   0.066   1.896   4.722 -0.0929 -0.0099 -0.1483
24818W        W43022   4.960   6.103  13.977 -0.1858 -0.0967 -0.3725
24819W        W43023   6.296   0.148   3.560  0.0240  0.1713  0.1419
24820W        W43024   8.582   4.043  11.803 -0.1617  0.0092 -0.2670
24821W        W43025  17.034  15.497  15.087 -0.2194  0.0629 -0.2403
24822W        W43026   0.205  10.672  13.246  0.2105  0.0848 -0.1710
24823W        W43027   2.890   6.073   0.244 -0.2189 -0.0297 -0.2982
24824W        W43028   8.072   0.511  11.354 -0.1100 -0.3137 -0.1148
24825W        W43029   0.770  13.589  12.414  0.2272  0.0557 -0.3970
24826W        W43030   4.284   4.005  14.045  0.1494 -0.0729  0.1660
24827W        W43031  12.940   9.685   0.330  0.2097  0.0046  0.2000
24828W        W43032   4.897   2.875  12.744 -0.0548 -0.0239 -0.3907
24829W        W43033  11.699   0.465  12.435  0.1528  0.1951 -0.2014
24830W        W43034   0.640  16.793   2.889  0.0431 -0.0587 -0.1188
24831W        W43035  16.452   7.677   5.209  0.2039 -0.0791 -0.0916
24832W        W43036   4.932  18.569  14.905  0.0220  0.1207  0.1679
24833W        W43037  12.817   0.485  11.349  0.0609  0.3040 -0.0444
24834W        W43038  12.646  16.711  13.840 -0.2494  0.2152 -0.1049
24835W        W43039   2.927   4.330   3.386  0.1561  0.0112 -0.2394
24836W        W43040  12.941  14.310  11.500  0.0057  0.0071 -0.0515
24837W        W43041  18.055   9.210  10.668  0.0802  0.0119 -0.1591
24838W        W43042   2.113   0.255  14.494 -0.1013  0.0989  0.0618
24839W        W43043   8.247   1.252  13.797 -0.1484  0.1201 -0.1927
24840W        W43044   8.005  13.329  12.561  0.0543  0.0639  0.2289
24841W        W43045   8.329   2.629  15.279 -0.0925  0.2438 -0.3055
24842W        W43046   3.757   4.383  11.730 -0.3652  0.1343  0.1982
24843W        W43047   8.008   7.593  11.590  0.3693  0.0887  0.1625
24844W        W43048  12.847  12.909  13.457 -0.1883  0.1862 -0.3197
24845W        W43049   9.134  14.709   2.971 -0.0680 -0.1643  0.0292
24846W        W43050   9.493   1.602  13.045 -0.1425 -0.2047  0.4470
24847W        W43051  12.096   8.780   0.585  0.2035  0.5962 -0.2179
24848W        W43052   2.935  15.905   1.161 -0.2346 -0.0383  0.4790
24849W        W43053   0.876   2.871  13.358  0.1041  0.1598  0.0279
24850W        W43054  10.163   1.825  13.276  0.2688 -0.0728 -0.1852
24851W        W43055   0.069  11.164  11.455 -0.0628 -0.0884  0.0736
24852W        W43056   5.870   1.597  14.222  0.0403  0.0837 -0.2930
24853W        W43057  18.232   8.788   2.702  0.0514  0.4163  0.2881
24854W        W43058   9.274   7.122  12.046 -0.0022  0.0425  0.0163
24855W        W43059  16.325   4.605   0.784 -0.0682 -0.0111 -0.1931
24856W        W43060   2.123  18.691   1.409  0.0728  0.1863 -0.2591
24857W        W43061  17.443  18.400  11.201 -0.1064  0.0112  0.0571
24858W        W43062  10.754   6.495   0.142 -0.0207  0.0608 -0.1137
24859W        W43063   1.975  15.984   4.437 -0.2488  0.2730  0.1422
24860W        W43064   5.295  16.723  12.482 -0.2325  0.0522  0.1335
24861W        W43065   8.505   4.524  13.320 -0.0291 -0.2901 -0.1477
24862W        W43066   5.876   8.370   1.771 -0.0869 -0.2214  0.1487
24863W        W43067   5.042   7.286   1.842  0.1630  0.2790  0.1143
24864W        W43068  10.885   1.946   0.927 -0.1313 -0.0835  0.0397
24865W        W43069  13.534   5.988  15.323 -0.2222 -0.1564 -0.0874
24866W        W43070   6.314  12.147   4.310  0.0093  0.0003  0.1021
24867W        W43071   8.132  12.640  11.408 -0.1809  0.2021  0.3526
24868W        W43072   7.763  14.243  12.721 -0.1606 -0.3091 -0.1428
24869W        W43073   5.464  18.225  11.358  0.1244 -0.0660  0.3276
24870W        W43074  15.190   2.433  11.881  0.2434  0.0640  0.3364
24871W        W43075  14.690   3.848  12.246 -0.1487  0.2388 -0.2334
24872W        W43076   6.295  16.373  13.836 -0.2230  0.2444 -0.1904
24873W        W43077  14.109  10.530  11.354 -0.1462 -0.1502  0.1181
24874W        W43078   6.531  12.209   3.412 -0.0732  0.3024  0.4825
24875W        W43079   8.665   2.364   4.627 -0.2591 -0.1557 -0.1449
24876W        W43080  10.133  15.194   1.813  0.0208 -0.1928  0.1171
24877W        W43081   5.772  18.525  11.671 -0.0244  0.0013  0.0831
24878W        W43082  14.045  17.121   3.305  0.0614  0.0583 -0.0146
24879W        W43083  11.206   9.398   0.178 -0.3494 -0.1717  0.3354
24880W        W43084   0.263   2.951   3.709 -0.2114 -0.0502 -0.3162
24881W        W43085   1.499   1.829   1.234 -0.0686  0.1396 -0.0915
24882W        W43086   1.232   0.976   4.534 -0.0572 -0.2524  0.1872
24883W        W43087   5.283  17.153  10.457  0.3234  0.2105  0.0608
24884W        W43088  14.356   9.790  14.972 -0.3266 -0.2221  0.1866
24885W        W43089   4.429  16.550  15.218 -0.1730 -0.2231  0.2992
24886W        W43090   8.207  17.406  12.800 -0.1988  0.0911 -0.0823
24887W        W43091  18.591  11.996  11.964 -0.0069 -0.1169  0.2551
24888W        W43092  11.490  18.241  15.200  0.0631 -0.0984 -0.3309
24889W        W43093  10.922  15.569  12.845  0.0365  0.1105 -0.1125
24890W        W43094  15.543  12.554   4.783 -0.0645 -0.1986 -0.1484
24891W        W43095  15.205   8.640   2.779  0.1267 -0.2467  0.0222
24892W        W43096  13.022   4.022  12.643  0.0072 -0.0649  0.3229
24893W        W43097   6.287  16.434  12.325  0.0314 -0.3938  0.3294
24894W        W43098   2.929   8.334   0.837  0.1027 -0.1748  0.0724
24895W        W43099   9.850   4.779  15.057 -0.0506 -0.2136  0.1199
24896W        W43100  12.382   3.915   2.147 -0.6581  0.0687 -0.1659
24897W        W43101  10.403   4.069   1.022  0.0758 -0.0698 -0.0580
24898W        W43102  10.747   8.134   0.274  0.0997 -0.2495  0.1545
24899W        W43103  11.867   2.329  12.488 -0.0375 -0.2383 -0.0869
24900W        W43104   4.670   3.793   3.277 -0.0887 -0.1012  0.1742
24901W        W43105   8.547   9.560  15.201  0.2956 -0.0653  0.1859
24902W        W43106  11.051   5.823  12.927  0.1332 -0.0831 -0.3709
24903W        W43107  11.792  10.946   4.308 -0.0923  0.0618 -0.3602
24904W        W43108   3.120  15.961   2.579 -0.1233 -0.1313 -0.0382
24905W        W43109   3.133  18.672   4.194 -0.1217 -0.1323 -0.1879
24906W        W43110   5.297   4.101  11.828 -0.1726 -0.1433 -0.2563
24907W        W43111  11.745  12.204  12.449  0.1591  0.0821  0.2209
24908W        W43112   1.818   1.393  12.302 -0.2164  0.0339 -0.2581
24909W        W43113  16.630   4.740   3.866 -0.0888 -0.1236 -0.3475
24910W        W43114  12.999   0.807  15.298  0.0799  0.2208  0.2840
24911W        W43115  10.401  13.995  12.210  0.1377 -0.2621  0.0338
24912W        W43116  13.698  11.818   3.744 -0.1225  0.0359  0.2145
24913W        W43117   5.705  15.708   1.799 -0.3586  0.0037 -0.1514
24914W        W43118   8.239  16.091  14.338  0.2687 -0.0604  0.0625
24915W        W43119   9.061   9.189   1.993 -0.0794 -0.1847  0.0426
24916W        W43120   6.412   5.599  12.613 -0.0124 -0.3068 -0.1014
24917W        W43121  16.261  14.551   3.885  0.1996  0.1338 -0.0115
24918W        W43122   1.274   2.346   4.961 -0.0522  0.0776  0.1984
24919W        W43123   6.161   5.056   0.276 -0.3088  0.4140 -0.3170
24920W        W43124  17.437   3.635  14.613 -0.0305 -0.2477 -0.0036
24921W        W43125  16.644  15.579  13.757  0.2603  0.0202 -0.0897
24922W        W43126   1.151   0.091  11.054 -0.2497 -0.0435  0.0761
24923W        W43127  13.934  14.933   4.350 -0.1738  0.0915 -0.2325
24924W        W43128   1.620   4.302   3.103 -0.1308  0.0498 -0.0993
24925W        W43129  17.242   5.026   2.009  0.2690  0.1130  0.0573
24926W        W43130   0.629  17.738   0.597 -0.0355 -0.1289 -0.0182
24927W        W43131  13.563   8.773  14.641  0.0791  0.0938  0.2013
24928W        W43132   8.284  10.792   0.060  0.0822  0.4263  0.0901
24929W        W43133   4.615  10.301  14.440  0.0710 -0.4181  0.2202
24930W        W43134   0.422  17.351   2.949 -0.0878  0.0718  0.1278
24931W        W43135   1.694  15.013   1.980  0.2884  0.0291 -0.1205
24932W        W43136   3.656  15.521  15.045  0.1438 -0.2419 -0.0159
24933W        W43137  11.647   7.633   3.898 -0.0234 -0.0581 -0.1221
24934W        W43138   9.391   7.695  11.861  0.1239 -0.0402  0.1039
24935W        W43139  13.757   0.865   4.082  0.2050 -0.3130 -0.0458
24936W        W43140   6.445   8.877   0.093 -0.0418 -0.0873 -0.0390
24937W        W43141   6.659   7.598  13.596 -0.4714  0.2138  0.4432
24938W        W43142   0.935   7.869   1.550  0.1100  0.2863  0.0443
24939W        W43143  18.522  14.567   1.935 -0.1099 -0.1429 -0.0051
24940W        W43144  11.618   9.424   5.148 -0.1472 -0.1122 -0.1348
24941W        W43145   0.436  10.691  11.716 -0.1762  0.0023  0.1402
24942W        W43146  12.148   0.874  14.376 -0.0280 -0.0954  0.3174
24943W        W43147   5.622  12.521   1.970 -0.2035  0.0076  0.1662
24944W        W43148   4.982  17.197  14.242  0.0016  0.1527 -0.1583
24945W        W43149   6.309  16.506   2.155 -0.2538 -0.0871  0.0676
24946W        W43150  14.834  12.483  15.423  0.0855 -0.0325  0.0755
24947W        W43151  10.310  10.695  11.419 -0.1205 -0.4615  0.1364
24948W        W43152   3.263  16.947   2.973  0.0407 -0.1570 -0.0861
24949W        W43153   2.006  11.228   0.905  0.2958  0.0162  0.0845
24950W        W43154  13.028   7.625   0.538 -0.0630 -0.0220  0.3121
24951W        W43155  18.493   9.501   3.431 -0.0372  0.1584 -0.0687
24952W        W43156   0.574   8.823  11.285  0.1725 -0.2879  0.1010
24953W        W43157  18.418   1.802   1.501 -0.0642  0.1908  0.1592
24954W        W43158  10.403   2.706  11.618 -0.1897 -0.1405  0.1581
24955W        W43159   2.090   1.900   2.215 -0.3540 -0.2042 -0.2037
24956W        W43160   4.963   8.864  13.619 -0.1720 -0.1713 -0.1288
24957W        W43161  12.848   0.524   3.869  0.3649 -0.1238  0.0520
24958W        W43162   7.564  17.866  11.328 -0.0373  0.0632  0.0235
24959W        W43163   0.894   5.976   2.514  0.0991 -0.1554  0.2281
24960W        W43164  16.681   5.799   0.050  0.3706 -0.1116 -0.4062
24961W        W43165   1.161   0.643  10.905  0.1258  0.0974 -0.0806
24962W        W43166  13.030  10.659   4.718  0.1160 -0.0229 -0.2884
24963W        W43167  15.070   0.055   1.857  0.3315 -0.1084  0.0349
24964W        W43168  18.603   6.285   2.517 -0.2061 -0.0244 -0.2597
24965W        W43169   4.829  10.625  13.491  0.2544  0.1270 -0.0263
24966W        W43170   6.589   5.357   2.861  0.0835  0.0523  0.0497
24967W        W43171   9.496   9.301   4.621  0.0139  0.0938  0.3843
24968W        W43172   7.957   3.650  15.440  0.0367  0.3807  0.1722
24969W        W43173  14.660   6.755   2.601  0.2152 -0.0971  0.0337
24970W        W43174   9.363  13.207  15.204 -0.1657 -0.0251 -0.0837
24971W        W43175  15.986   0.507   0.572 -0.2326 -0.0869 -0.0822
24972W        W43176  14.551  13.403  14.398 -0.0017 -0.1896 -0.1020
24973W        W43177   3.942  17.330   1.603 -0.1400  0.2304  0.3054
24974W        W43178   3.280   5.436   1.703  0.3645 -0.1089 -0.2151
24975W        W43179   7.912  16.137   1.894 -0.2075 -0.1290 -0.2240
24976W        W43180  12.852   7.296   3.550  0.1124  0.0497 -0.0897
24977W        W43181  13.594  16.499   4.266  0.1110 -0.0556  0.2410
24978W        W43182   2.126  17.836  12.461  0.0174 -0.1248  0.1372
24979W        W43183  13.821   8.905   3.846  0.3065  0.0890  0.2233
24980W        W43184   5.397   9.406   0.248  0.1489  0.2503 -0.3610
24981W        W43185  16.395  11.177   3.156  0.2949  0.0477  0.3134
24982W        W43186   8.479   5.564  11.353 -0.1301  0.1566 -0.3625
24983W        W43187   2.080   2.788  11.959  0.0728 -0.1345 -0.0810
24984W        W43188   0.450  14.159  13.702 -0.1999  0.2781 -0.1160
24985W        W43189  17.143   0.123   4.166  0.2351 -0.1326 -0.0473
24986W        W43190   4.089   3.525   1.456  0.0105 -0.3870  0.0889
24987W        W43191  17.681   0.483  11.747 -0.1811  0.1595 -0.1906
24988W        W43192  11.356   8.928   3.820  0.1479 -0.0078 -0.0177
24989W        W43193   7.327   7.674   2.962  0.0042 -0.1903 -0.0606
24990W        W43194  15.353   8.033   3.499 -0.0800  0.3071 -0.3326
24991W        W43195  12.670  15.633  12.687 -0.0617 -0.1436 -0.0869
24992W        W43196  16.597  14.487  12.746  0.0878 -0.2140  0.3205
24993W        W43197   5.442  17.912  14.351  0.0999  0.1536 -0.1304
24994W        W43198   2.461  14.388  11.092 -0.0501 -0.2299 -0.3303
24995W        W43199  12.389   1.572  11.293 -0.1319  0.0224  0.0880
24996W        W43200   2.199   5.048  12.579  0.3636 -0.2251  0.1433
24997W        W43201   0.469   4.986  12.434 -0.1573 -0.0049 -0.0381
24998W        W43202   5.149   1.189  10.734 -0.2084 -0.3069  0.1843
24999W        W43203  14.778   8.030  13.456 -0.4038 -0.1662 -0.2600
25000W        W43204  15.975   2.294  13.187 -0.0435  0.0909 -0.0229
25001W        W43205  15.165  12.673  13.273  0.0907 -0.1020 -0.0749
25002W        W43206   4.151  10.637   2.738 -0.0377 -0.0873  0.1431
25003W        W43207  18.142  14.860   5.448 -0.3796 -0.2664  0.0832
25004W        W43208   1.277   5.401  13.256  0.6235 -0.1241 -0.0068
25005W        W43209  14.142   2.925   0.215 -0.2526 -0.1840  0.1209
25006W        W43210   8.332  17.055   3.334 -0.0008  0.1052  0.0063
25007W        W43211  11.170   4.474  13.523 -0.0640  0.0080 -0.2240
25008W        W43212   9.519   7.135  13.266 -0.1054  0.2567  0.5905
25009W        W43213   0.379   5.478  13.763  0.0951  0.0988 -0.0203
25010W        W43214   9.446  13.776   0.629  0.0534 -0.0196 -0.4217
25011W        W43215   6.773  11.387  12.116  0.0004  0.1123  0.0969
25012W        W43216   8.507  11.018   0.434  0.1453 -0.1967 -0.2906
25013W        W43217   0.010   6.064  14.785 -0.3952 -0.3793 -0.0682
25014W        W43218  14.232   9.977   2.296 -0.3458  0.2276  0.1272
25015W        W43219  18.256   8.252  13.090  0.1364 -0.1125 -0.0126
25016W        W43220   7.544   5.046   3.096 -0.0612  0.0687  0.1802
25017W        W43221  17.120  14.555  13.706 -0.2113  0.1188  0.0367
25018W        W43222   6.497   5.831   2.371 -0.2022 -0.3677  0.0467
25019W        W43223   4.731   1.781   9.827  0.1033  0.0221  0.0071
25020W        W43224   5.116  16.969  13.131  0.0379  0.5678 -0.0729
25021W        W43225  18.041  18.534  15.413 -0.1841  0.0747  0.1663
25022W        W43226  11.324   6.847   2.990 -0.0254  0.1867  0.0346
25023W        W43227  17.007  12.471  14.647 -0.1576  0.0946  0.0505
25024W        W43228  17.637  12.177  11.885  0.3433 -0.0591  0.0099
25025W        W43229   8.316  14.691  11.120  0.1094 -0.2618 -0.2397
25026W        W43230   4.406   8.468   0.684  0.2305 -0.0686  0.2626
25027W        W43231  15.007   5.344   3.724  0.2627  0.0493 -0.1267
25028W        W43232  16.636  11.290   1.551  0.4012 -0.2731 -0.0410
25029W        W43233   8.440  17.846   3.774 -0.0865  0.0501 -0.0184
25030W        W43234  13.047   7.394  14.566 -0.2082 -0.1324 -0.2087
25031W        W43235   1.624  12.214   0.744 -0.0128 -0.2299  0.1206
25032W        W43236   7.336  18.228  14.483  0.5604 -0.0372 -0.2599
25033W        W43237  18.421  12.940   2.264  0.3031  0.3291  0.0833
25034W        W43238   3.957  13.232   4.206  0.0172 -0.1127  0.1752
25035W        W43239   6.694   2.195   0.628  0.3184 -0.3168 -0.0989
25036W        W43240  15.366  14.791   3.140 -0.3513 -0.0450  0.3206
25037W        W43241  15.287  12.904   2.384 -0.0525 -0.1147 -0.1036
25038W        W43242   2.777  10.957  11.124  0.0737 -0.0434 -0.1805
25039W        W43243  14.545   2.667  15.440  0.1463  0.0574 -0.0737
25040W        W43244   4.342  11.090   4.049  0.0696  0.0163  0.0293
25041W        W43245   1.851   5.751   4.640  0.0112 -0.0115  0.2616
25042W        W43246   4.972  15.252  10.817 -0.3114  0.0791 -0.0272
25043W        W43247  13.921  10.269   3.002  0.0115  0.3760 -0.0168
25044W        W43248  12.925   6.114   4.645 -0.0426  0.0851  0.2531
25045W        W43249   8.994  14.478   5.711  0.1781  0.1576 -0.0217
25046W        W43250  14.440   9.051   1.240  0.0936 -0.0546 -0.2615
25047W        W43251   2.194  11.590   4.718 -0.0568 -0.0688  0.2925
25048W        W43252   2.253   1.129  10.653 -0.2826 -0.1864 -0.2897
25049W        W43253  13.251   8.141   0.693 -0.2011  0.0178  0.1698
25050W        W43254   2.756   6.745   1.506 -0.2618 -0.1326 -0.0239
25051W        W43255  14.217  14.338  12.293 -0.3188  0.2869 -0.0992
25052W        W43256  15.492   6.565   3.490  0.0401 -0.3626  0.3413
25053W        W43257   0.694   5.083   2.241  0.0587  0.2454  0.0655
25054W        W43258   6.554  10.991  14.193 -0.1097 -0.2391 -0.1668
25055W        W43259   7.610   7.112   3.961 -0.0217  0.3879  0.2649
25056W        W43260   7.511   8.464  12.249 -0.1181 -0.1854  0.0057
25057W        W43261  15.495   7.318  14.383  0.1315 -0.4509 -0.0694
25058W        W43262  16.623  15.875  14.183  0.1132 -0.0611  0.1257
25059W        W43263   3.174   0.916  13.581 -0.2641 -0.0610 -0.0806
25060W        W43264  14.314   9.078  12.760 -0.0281 -0.1625 -0.0648
25061W        W43265  13.016   9.925   3.322 -0.1275  0.1959 -0.1265
25062W        W43266  12.875  15.868   2.750  0.1914  0.1902 -0.1718
25063W        W43267  12.175   6.174   2.434  0.0512 -0.2171  0.1456
25064W        W43268   6.463   0.690  13.804  0.0298 -0.0866  0.0440
25065W        W43269  18.676   2.783  11.479  0.0698  0.0639 -0.1006
25066W        W43270   0.427   3.525   2.562 -0.4231  0.3106  0.0013
25067W        W43271  10.374  11.177   1.661  0.3134 -0.1472  0.1201
25068W        W43272   8.271  16.665   2.194  0.0413 -0.1459 -0.1742
25069W        W43273   3.184   8.503   4.710  0.1936 -0.0863  0.3084
25070W        W43274   1.875   8.408  13.125 -0.0777 -0.0198  0.1503
25071W        W43275   3.522  13.516   9.686 -0.0603  0.0568  0.1452
25072W        W43276   2.974   2.634   4.277 -0.3477  0.1957 -0.0833
25073W        W43277  11.544   6.977   4.793 -0.4561 -0.1560 -0.4039
25074W        W43278   2.651  18.613   4.199 -0.1087  0.1452 -0.0891
25075W        W43279  14.000   8.278   4.500 -0.1770  0.3996  0.0299
25076W        W43280   3.851   6.149  11.562 -0.0254  0.0552 -0.0440
25077W        W43281   0.743   5.447   4.878  0.0200 -0.1585 -0.0030
25078W        W43282   0.350  11.970   4.976 -0.0334 -0.2553 -0.0262
25079W        W43283  15.439   2.848   0.746  0.1604 -0.1726  0.1529
25080W        W43284   6.251   4.901  14.988  0.1638 -0.0038  0.1816
25081W        W43285   6.497   3.124   3.052 -0.2694  0.1244 -0.3035
25082W        W43286  10.790  12.622  13.366  0.0742  0.3128  0.1307
25083W        W43287  17.604   2.924   4.795  0.2516 -0.0115  0.4986
25084W        W43288   0.541   1.282   4.027 -0.0294  0.0410 -0.0129
25085W        W43289  15.549   4.807  13.460 -0.3224 -0.1616 -0.2650
25086W        W43290  13.116  13.725   0.459  0.0264 -0.1321  0.1938
25087W        W43291  15.042  13.115  13.074 -0.0206  0.0319  0.1025
25088W        W43292  16.058   3.728  14.227 -0.0706 -0.1845 -0.0855
25089W        W43293  18.418   6.560   4.648 -0.2350 -0.4031  0.0259
25090W        W43294   6.293   1.171  11.179  0.0107  0.0960  0.2539
25091W        W43295   8.781   0.208   0.368 -0.1463 -0.0479  0.1644
25092W        W43296  17.027  14.778   4.462  0.1900 -0.3209 -0.2399
25093W        W43297  17.590   2.603  13.038 -0.2000  0.1640  0.1330
25094W        W43298   2.250   1.730   3.042 -0.1842  0.2397  0.1070
25095W        W43299   8.351  18.206  13.377 -0.1046 -0.2641  0.5228
25096W        W43300  13.110  10.094   4.176  0.1396  0.4012  0.1212
25097W        W43301   3.629  13.336  14.434 -0.2190 -0.2233  0.3803
25098W        W43302   0.242   4.701   1.035 -0.1574 -0.2265 -0.1768
25099W        W43303   6.162   8.938  14.792  0.5044  0.2958 -0.0225
25100W        W43304   5.967   9.312   0.695  0.2204 -0.1807 -0.0065
25101W        W43305  18.557   1.733   4.212  0.1424  0.0034  0.0451
25102W        W43306  14.704  11.405  14.678  0.1506  0.4111 -0.1055
25103W        W43307   1.110   8.532   2.751  0.1509  0.3081  0.2760
25104W        W43308  18.601  15.979   3.395 -0.1006  0.1966 -0.1456
25105W        W43309   5.198   7.062   1.381  0.2244  0.0634 -0.1351
25106W        W43310  12.503   4.825  15.115  0.1565  0.2615 -0.1674
25107W        W43311   5.925  10.192   0.220  0.0426  0.2054  0.2544
25108W        W43312   4.549  16.067  13.729 -0.1079 -0.2544  0.2485
25109W        W43313  14.585  15.015   0.836  0.0049  0.2570  0.0386
25110W        W43314  13.024   1.718  12.087  0.0881  0.7230 -0.0934
25111W        W43315  10.945   9.918  11.099  0.0209  0.2749 -0.0025
25112W        W43316   2.611  15.839  12.648  0.1640 -0.0410  0.2661
25113W        W43317   7.151  10.858  12.700 -0.1731 -0.0352  0.3480
25114W        W43318  16.253   2.742  15.212 -0.3186 -0.2366  0.2865
25115W        W43319  11.549   7.267  10.084 -0.2427 -0.2051  0.0151
25116W        W43320  14.631  17.606  15.017 -0.2988  0.1280 -0.0254
25117W        W43321  15.839   4.536   2.940 -0.1847 -0.3782  0.0158
25118W        W43322   9.753   7.328  14.622 -0.1904 -0.0193  0.1187
25119W        W43323  11.306  13.069   0.810  0.1269  0.2175 -0.3474
25120W        W43324  17.882  13.849   3.911 -0.1331  0.1631 -0.2306
25121W        W43325   3.814  15.681  13.731 -0.1605  0.1820 -0.1309
25122W        W43326  16.625   5.855  14.196 -0.3000 -0.0253 -0.0115
25123W        W43327   3.537   0.911   0.930  0.0038 -0.1654  0.1289
25124W        W43328   9.247   1.704  14.615 -0.2583  0.1059  0.0102
25125W        W43329   9.769  12.579   0.752 -0.2232 -0.0720  0.1515
25126W        W43330   2.799   4.080  12.149  0.0766  0.0800 -0.0258
25127W        W43331  15.033   5.585   1.463 -0.1903  0.0834 -0.0817
25128W        W43332   2.443  13.928  13.388  0.1322 -0.0962  0.0154
25129W        W43333  12.307  14.397   0.242  0.0156 -0.2168 -0.0027
25130W        W43334  17.128  15.677  14.053 -0.0905 -0.0344  0.2281
25131W        W43335  12.030  17.503  14.963 -0.1157 -0.0056  0.2848
25132W        W43336   7.173   7.403  13.639  0.3046  0.5194 -0.3436
25133W        W43337   3.634  15.733   3.966 -0.2386  0.1665 -0.0105
25134W        W43338  10.449  15.359  14.321 -0.2853  0.2324 -0.0704
25135W        W43339   8.525   3.287  11.354 -0.0297  0.1105 -0.2546
25136W        W43340  13.707  15.043  13.348  0.1963 -0.0492  0.0262
25137W        W43341   9.645   8.059  14.251  0.1034 -0.1778  0.2831
25138W        W43342   3.502   3.585   0.174 -0.0795  0.1652 -0.1402
25139W        W43343  13.348   7.207   0.311 -0.1555  0.1968  0.0624
25140W        W43344   4.263   8.646  15.419 -0.0040  0.0979  0.1905
25141W        W43345  13.840  10.951  15.126 -0.1559 -0.0849 -0.0042
25142W        W43346   8.635   8.608   3.070 -0.0003 -0.1164 -0.0969
25143W        W43347   2.068  16.400  10.802  0.0518  0.4013 -0.0486
25144W        W43348   6.206   9.954  12.835 -0.0947 -0.4199 -0.0604
25145W        W43349  15.987  10.595  11.186  0.2451 -0.0434 -0.2315
25146W        W43350   1.426   9.864  12.902  0.1685 -0.2206  0.3044
25147W        W43351  11.789   9.699  11.548 -0.1056 -0.0472 -0.1462
25148W        W43352   7.640  13.877  12.333 -0.1180  0.0437  0.0682
25149W        W43353   8.043   6.653   0.965  0.1291 -0.1531 -0.0166
25150W        W43354  13.463  11.693   0.204 -0.0290  0.5966 -0.2507
25151W        W43355   5.922  14.150   0.262 -0.3531 -0.0040 -0.1652
25152W        W43356  14.760  14.584   2.117 -0.0325  0.1525 -0.0584
25153W        W43357  11.831   1.369   4.122  0.0121 -0.0069 -0.2532
25154W        W43358   4.014   7.016   1.387  0.2470  0.0951 -0.2529
25155W        W43359   5.983   5.530   3.867  0.1065  0.2507 -0.0383
25156W        W43360  18.309   2.227  14.264  0.5628  0.2307  0.0641
25157W        W43361   0.713   2.726  12.029 -0.0529  0.1799  0.1095
25158W        W43362  12.867  13.454  10.066 -0.1552 -0.2235 -0.2127
25159W        W43363   6.753   4.430  12.138  0.0212  0.2518 -0.0415
25160W        W43364   6.380   8.985   2.897 -0.0012  0.0089  0.1115
25161W        W43365  11.995  14.981  14.553 -0.0969  0.0067 -0.0122
25162W        W43366   9.895   6.178   4.701  0.1111 -0.0609 -0.1078
25163W        W43367  16.247  10.965   4.702  0.0369  0.5254 -0.2632
25164W        W43368   3.820   2.514   3.578 -0.2425 -0.0093 -0.4040
25165W        W43369   9.150  12.758  14.453 -0.0373  0.0807  0.1913
25166W        W43370   2.613  12.956   9.766 -0.1765 -0.1438 -0.0839
25167W        W43371   2.558   1.970   2.590 -0.2347 -0.2959  0.0487
25168W        W43372   0.996  13.682   3.193 -0.0759 -0.2233 -0.1341
25169W        W43373   3.824  17.108  13.009 -0.1381  0.1582 -0.1886
25170W        W43374  14.309   8.628   2.981  0.0440  0.0065 -0.0056
25171W        W43375   6.124   6.643  13.377  0.2564  0.1585  0.0821
25172W        W43376  18.512  10.214  14.501 -0.1612 -0.0233 -0.2008
25173W        W43377   1.584   8.359   0.062  0.0076  0.0980 -0.0330
25174W        W43378   2.847   0.726   3.908  0.1728  0.3494 -0.0526
25175W        W43379   4.674   7.086   2.486  0.1015  0.2579 -0.0089
25176W        W43380   6.912  14.748   0.030 -0.0370 -0.0696 -0.3166
25177W        W43381  15.210  11.249   4.673  0.0618 -0.0820  0.1926
25178W        W43382  11.611  17.578  14.723 -0.2432  0.0430  0.0634
25179W        W43383   7.749  15.908   3.319 -0.1995  0.2157  0.1616
25180W        W43384  10.914  11.884   4.457  0.0036 -0.3982 -0.0733
25181W        W43385   9.487  17.610  14.409 -0.0581  0.0105  0.3305
25182W        W43386   2.180   6.030  12.526  0.1013 -0.2389  0.1494
25183W        W43387   8.084   1.606   3.544  0.4008 -0.1617 -0.1655
25184W        W43388   1.142   6.883   4.514 -0.1038 -0.0090  0.0908
25185W        W43389  16.274   7.573  15.105  0.2662 -0.2160 -0.0967
25186W        W43390   7.796   0.355  10.851 -0.0715  0.0739 -0.0608
25187W        W43391   7.075  16.208  14.772 -0.2328 -0.0570 -0.0569
25188W        W43392  18.468  18.562  12.627  0.0915 -0.1035 -0.0006
25189W        W43393  18.246  16.640  11.791  0.3469 -0.1529  0.1289
25190W        W43394  16.672   2.472   1.121  0.1846  0.1458  0.1285
25191W        W43395   0.854   1.771   4.138  0.0447  0.3163 -0.3165
25192W        W43396  10.235   3.359  11.446  0.2116  0.1135  0.3796
25193W        W43397  16.019   8.728   4.525 -0.1146  0.1555 -0.2383
25194W        W43398  10.479   5.440   2.919 -0.0068  0.2266  0.3181
25195W        W43399   7.432   1.864  12.167  0.1233  0.1670  0.1022
25196W        W43400  13.796  15.262  12.799  0.0201 -0.1339 -0.1233
25197W        W43401   9.021   8.311   3.329  0.2776  0.2245 -0.4089
25198W        W43402   8.304  15.567  11.570 -0.0492 -0.0665  0.0777
25199W        W43403   9.999  14.440   3.028 -0.1780  0.2865  0.2210
25200W        W43404  11.780  10.095   4.484 -0.1208 -0.0343  0.0543
25201W        W43405  18.035   7.602  11.797 -0.0162 -0.2276 -0.1354
25202W        W43406   0.182  12.560   2.915 -0.0012 -0.0607 -0.0930
25203W        W43407   0.280  10.226   4.051 -0.0620 -0.0775  0.1568
25204W        W43408  13.627   4.830   1.709  0.2037 -0.0574  0.1809
25205W        W43409  15.178   6.737   5.058 -0.1265  0.1217  0.0818
25206W        W43410  14.073  16.694  11.522 -0.1317  0.0059 -0.2114
25207W        W43411   9.696  13.062   3.533  0.2276 -0.1114 -0.1960
25208W        W43412  10.210  12.284   3.179  0.1564 -0.1147  0.0644
25209W        W43413   7.113  18.096   5.293  0.1976 -0.2147  0.2727
25210W        W43414   2.015   6.595  12.271  0.1035  0.0584  0.1365
25211W        W43415   0.893  16.071   1.663  0.1781 -0.3284  0.2081
25212W        W43416   3.685   4.003   2.788 -0.2139  0.0653 -0.1688
25213W        W43417   8.376   5.997   2.859 -0.1293 -0.0117  0.1787
25214W        W43418  16.293  11.452   0.788 -0.0672  0.3047  0.0149
25215W        W43419   8.074   0.978  12.845 -0.2912 -0.2602  0.0182
25216W        W43420  14.095   0.077  13.145  0.0485 -0.0566  0.1729
25217W        W43421  13.563  14.241  14.368 -0.1049  0.2352 -0.2107
25218W        W43422  12.951   6.876   2.762  0.1952 -0.2691 -0.0850
25219W        W43423   3.556  10.476   3.883  0.1844 -0.1000 -0.0276
25220W        W43424   5.545   5.810  12.971  0.1267 -0.1736 -0.0869
25221W        W43425   2.860  17.650  12.953 -0.0870 -0.0486  0.2161
25222W        W43426   5.108  13.115  15.007  0.0760 -0.0535  0.1699
25223W        W43427   7.220  12.937   0.156  0.1625 -0.0157  0.0244
25224W        W43428   8.757   3.761  12.745 -0.0435 -0.0321  0.1340
25225W        W43429   3.551  16.608   5.802 -0.0733 -0.4248  0.0866
25226W        W43430  11.123   8.392  12.394 -0.0151 -0.3264  0.0532
25227W        W43431   0.518   0.763   1.968 -0.1710  0.2810 -0.3203
25228W        W43432   5.499  17.398   2.530  0.0623 -0.0104 -0.1968
25229W        W43433  10.456   0.452  14.458 -0.0147  0.3127 -0.2438
25230W        W43434   5.570  10.810   3.806 -0.1018 -0.0769  0.0837
25231W        W43435  12.084   2.585   1.252 -0.2428  0.1851  0.2419
25232W        W43436  15.377   5.784   1.933 -0.0876  0.0604 -0.0231
25233W        W43437   4.033  17.357   3.048 -0.0477 -0.0681 -0.0437
25234W        W43438   8.681  10.808   2.224 -0.0679  0.1762  0.0157
25235W        W43439   5.950   7.771  12.193  0.0547  0.0237  0.0265
25236W        W43440   1.358   2.461   2.499 -0.2632  0.0200  0.4633
25237W        W43441   7.641   5.771   5.158 -0.1329 -0.5591  0.0608
25238W        W43442   9.499  17.593   4.107  0.0638 -0.4133  0.0972
25239W        W43443  14.415   5.266  12.164 -0.3691 -0.1942  0.0526
25240W        W43444   0.247   2.757   1.935 -0.0774 -0.1004  0.0134
25241W        W43445   7.506   1.320  12.232  0.0928  0.0604 -0.3146
25242W        W43446  14.785  14.399   3.881 -0.0744  0.0975  0.3032
25243W        W43447   4.796   9.685   0.367  0.0001 -0.2820  0.0904
25244W        W43448   2.417  10.929   2.156 -0.0384 -0.0144  0.0550
25245W        W43449  17.990   4.848  13.815  0.0801 -0.1515  0.2310
25246W        W43450  11.768  16.302   3.324  0.0417  0.3315 -0.2531
25247W        W43451   9.505  16.310   5.594  0.3022 -0.4028 -0.0126
25248W        W43452   7.257   9.503   0.422 -0.2072  0.0429  0.0860
25249W        W43453   7.521  14.956  13.597  0.0087  0.0514 -0.0211
25250W        W43454  15.433  10.956   4.311 -0.1938 -0.0464  0.0923
25251W        W43455   6.561  12.622   4.376  0.1044  0.1510  0.0184
25252W        W43456   6.098   6.535  13.868  0.1711 -0.2310 -0.5117
25253W        W43457   1.048  14.202   5.055 -0.1704  0.0773 -0.0028
25254W        W43458  17.991  18.186   3.133 -0.1813 -0.0197 -0.2724
25255W        W43459   1.338  12.677   1.639 -0.0008 -0.1880 -0.1362
25256W        W43460  14.129   4.275   0.700 -0.3230  0.2031 -0.2786
25257W        W43461  10.149   8.194  14.116 -0.2754 -0.1047 -0.0433
25258W        W43462   0.191   9.204   3.274  0.0616  0.0454  0.0235
25259W        W43463  14.626  12.430   1.457  0.0344 -0.3043  0.0856
25260W        W43464   7.982   0.144   1.955  0.2060  0.3358  0.1338
25261W        W43465   1.444  18.126  11.772 -0.1623 -0.1401  0.2131
25262W        W43466   4.734   0.865   0.718 -0.2411  0.1346 -0.2255
25263W        W43467   7.356   3.072   1.644 -0.1857 -0.2035  0.0366
25264W        W43468   8.491  10.867   4.499 -0.0887  0.1667  0.1531
25265W        W43469  15.351  14.319   0.853  0.1775  0.1123 -0.0385
25266W        W43470  17.589  13.819   4.349  0.1631  0.3363 -0.0102
25267W        W43471   7.574  17.121  14.372  0.0538  0.1562  0.1227
25268W        W43472  10.124   1.478   0.728  0.0246  0.2296 -0.1689
25269W        W43473   9.594   3.321   0.098  0.3802  0.3763 -0.2652
25270W        W43474   6.005  17.277  13.734  0.1855  0.0271 -0.1992
25271W        W43475  12.791   0.018  13.816 -0.1316  0.0028 -0.0126
25272W        W43476  10.075   3.809  13.651  0.1948 -0.3417 -0.0025
25273W        W43477   0.111  16.478  13.977 -0.0419 -0.0992 -0.0875
25274W        W43478   9.867   2.879   5.298  0.1653  0.0505 -0.0762
25275W        W43479   9.615  18.065   0.689  0.4020 -0.0533 -0.2117
25276W        W43480  17.541  10.827  11.330  0.0640 -0.0656 -0.1805
25277W        W43481   5.901   5.879  15.266  0.1272 -0.1774  0.0705
25278W        W43482  18.133   4.748   0.387  0.2474 -0.0421 -0.2057
25279W        W43483   1.666   3.529  11.918 -0.0675  0.0565  0.1403
25280W        W43484   1.036  10.219  15.041 -0.0459 -0.0745 -0.0965
25281W        W43485   6.157  10.011   3.737  0.1028  0.1390  0.0688
25282W        W43486  10.281  16.111  11.935 -0.0237 -0.2629  0.2566
25283W        W43487   5.744   8.931   2.429  0.1365 -0.0192 -0.1626
25284W        W43488   6.601  16.373   0.301  0.1802 -0.1286  0.0394
25285W        W43489  15.532  16.649  10.201  0.1890 -0.0243  0.0426
25286W        W43490  16.463   4.370  13.020 -0.2356 -0.3460  0.2439
25287W        W43491  13.791   6.791   3.755  0.4291 -0.3354  0.1523
25288W        W43492   5.445   2.699   4.386 -0.1120 -0.2945  0.0603
25289W        W43493   9.202  18.470  12.683  0.0679 -0.0704  0.2080
25290W        W43494   8.941  17.192   3.756  0.0782 -0.2173 -0.1249
25291W        W43495  17.654   5.552  15.372 -0.0883  0.2274  0.0984
25292W        W43496   5.938   7.590   1.939 -0.2406 -0.1220 -0.0240
25293W        W43497   5.331   9.818  14.958  0.0175 -0.0281 -0.1344
25294W        W43498  15.462  17.628  14.958  0.0464 -0.2123 -0.0897
25295W        W43499  10.556   9.416   4.144 -0.3434 -0.1497 -0.1163
25296W        W43500   5.115   6.285   2.968 -0.2287  0.1635  0.0780
25297W        W43501  12.425  11.274  11.677 -0.0956  0.0413  0.3113
25298W        W43502   9.891  11.504  12.061 -0.1945  0.1169  0.1420
25299W        W43503  14.379   2.758   2.030 -0.2053  0.1234 -0.0553
25300W        W43504  12.741   4.521  12.607 -0.1436  0.3534  0.0009
25301W        W43505  13.887  13.051   4.570  0.2020  0.0082  0.2644
25302W        W43506  13.995  16.489  13.021 -0.1397  0.1403 -0.1523
25303W        W43507  13.688   8.667   4.723  0.2195 -0.3200  0.3764
25304W        W43508   3.293  12.498  11.914  0.0757 -0.1214  0.2394
25305W        W43509   1.089   2.003  13.256  0.2294 -0.0180 -0.1897
25306W        W43510   3.094   5.266   0.775 -0.3179  0.1728 -0.0202
25307W        W43511  11.064  15.930   1.161  0.1136  0.1901  0.0290
25308W        W43512   4.939   3.154  11.530  0.0143 -0.1790  0.0408
25309W        W43513  15.017   4.412  12.944  0.1339  0.0427 -0.1615
25310W        W43514  11.609  14.493   1.828  0.5922 -0.1572  0.0143
25311W        W43515  14.964   1.788   1.875 -0.0200  0.1382  0.0338
25312W        W43516   6.779  18.623  12.963 -0.1346 -0.1160  0.2263
25313W        W43517   2.121   5.262  13.852 -0.0070 -0.2084  0.0852
25314W        W43518  17.806  14.306  12.947  0.1975  0.1670 -0.0381
25315W        W43519   0.963   7.889  12.243 -0.1995 -0.0024  0.3320
25316W        W43520   3.894   5.705   3.062  0.4275 -0.0985  0.1118
25317W        W43521  11.583  10.126  11.993  0.0404  0.0971 -0.0963
25318W        W43522   1.903   5.575  11.757  0.1435  0.0307  0.0046
25319W        W43523   9.040   5.946  10.765 -0.0976 -0.2075 -0.3684
25320W        W43524  16.061   1.526   3.910 -0.1081  0.0912 -0.0954
25321W        W43525  10.627   0.514   0.903 -0.0673 -0.1029  0.0608
25322W        W43526  11.930   8.862   1.086 -0.0676 -0.0891  0.1481
25323W        W43527  14.010   0.696   0.853  0.2920  0.2854  0.2496
25324W        W43528  17.856  17.524   4.169  0.2872  0.0600 -0.0283
25325W        W43529   7.418  13.134  11.718 -0.1928  0.2491  0.2402
25326W        W43530  17.236  18.047   2.479  0.0582 -0.0680 -0.2239
25327W        W43531   8.577   8.826   4.615  0.1029 -0.0890  0.3784
25328W        W43532   0.977   8.954   2.998 -0.2878  0.0616  0.0592
25329W        W43533   6.220  15.019  12.112  0.3965  0.0956  0.2149
25330W        W43534   7.233  13.368  13.514 -0.0989  0.0267 -0.3953
25331W        W43535   7.047  10.565  14.821  0.0294  0.2154 -0.1123
25332W        W43536  18.415  13.582  14.184 -0.0868 -0.1099 -0.2588
25333W        W43537   4.542   3.470  13.193  0.0809 -0.2266 -0.3476
25334W        W43538  10.466   3.873   4.331  0.2278 -0.0136  0.1478
25335W        W43539  12.458   9.205  11.720 -0.2104 -0.3642  0.2697
25336W        W43540   7.007   6.350   1.285 -0.0206  0.1970  0.1630
25337W        W43541   3.999   7.720  14.877  0.0776 -0.3487 -0.0518
25338W        W43542   9.934   5.467   2.867  0.1497  0.0932  0.0332
25339W        W43543   4.099  17.010   0.825  0.1226  0.2277  0.2270
25340W        W43544   4.363   8.617  12.337 -0.0416  0.0844 -0.1677
25341W        W43545   0.063  14.061   2.144 -0.1001 -0.1876  0.0785
25342W        W43546   4.319  17.988   2.488  0.2621 -0.0644 -0.0954
25343W        W43547  16.956  11.540  14.452 -0.2679  0.0630  0.0009
25344W        W43548   8.624   0.976   2.887  0.0950  0.1336 -0.1960
25345W        W43549   0.267  18.300   1.338  0.0157  0.1738 -0.1382
25346W        W43550   3.699   9.058   2.861 -0.3381 -0.2797 -0.0429
25347W        W43551   2.832   3.217   4.814  0.0312 -0.2532  0.2597
25348W        W43552  15.554  16.836  15.181 -0.0680  0.1952  0.0866
25349W        W43553   6.992  13.969   3.289  0.1909  0.1266  0.2028
25350W        W43554  17.387   6.030  12.554  0.2838  0.2487 -0.1634
25351W        W43555  17.753   0.392   2.889  0.2853  0.0965  0.0288
25352W        W43556   8.998  17.567   0.158 -0.2461  0.1084 -0.0254
25353W        W43557  17.595   2.840  13.626 -0.0332 -0.1900  0.0248
25354W        W43558   6.562   9.262  12.199 -0.1306 -0.0487 -0.1184
25355W        W43559   0.116  17.433  11.798 -0.1866 -0.0372 -0.0353
25356W        W43560  15.016   3.809   3.869 -0.0140  0.4350 -0.1192
25357W        W43561   6.448   8.489  11.944  0.1359 -0.1874 -0.0540
25358W        W43562   9.498  15.669  12.533  0.3435  0.0984 -0.2432
25359W        W43563  18.676   2.747   4.525 -0.0607 -0.0801  0.2719
25360W        W43564  13.639  10.341  13.893  0.0834  0.0191 -0.0610
25361W        W43565  14.867   3.138  14.519 -0.1886 -0.1587  0.3651
25362W        W43566  16.557  11.860   0.348  0.1332  0.1995 -0.2158
25363W        W43567  10.415  11.826  14.491 -0.1908 -0.2893 -0.0181
25364W        W43568   4.531   7.247  12.397 -0.4216  0.2112  0.1253
25365W        W43569   4.023   0.421  11.944  0.1983 -0.0295  0.1733
25366W        W43570  11.571   3.058  11.831  0.0361 -0.1817 -0.2135
25367W        W43571   1.564  12.589   4.979 -0.3504  0.2165 -0.2982
25368W        W43572   3.591   6.494  13.034  0.1908 -0.0878 -0.1949
25369W        W43573   0.290  10.726  12.672 -0.1311  0.0504 -0.1882
25370W        W43574  16.520  11.709   2.296  0.1318  0.1300  0.3628
25371W        W43575   2.607  12.888   2.536 -0.3224 -0.1547 -0.5331
25372W        W43576   3.356  18.405  12.883  0.4026 -0.1381 -0.0795
25373W        W43577  16.638   4.788   2.754 -0.0148  0.0240 -0.1112
25374W        W43578   0.622  10.530   3.859  0.3431  0.1880 -0.1936
25375W        W43579   3.862   9.367  14.120  0.2142  0.0623 -0.2649
25376W        W43580   7.694   2.566   3.184  0.0604 -0.1361 -0.1909
25377W        W43581   7.285  14.036  12.924 -0.0526 -0.1828  0.2160
25378W        W43582  15.290  15.223  12.303  0.1252 -0.4001  0.5761
25379W        W43583   3.562   1.241  11.017 -0.0308  0.2218 -0.2245
25380W        W43584  15.811   9.206   1.543 -0.3423  0.0788 -0.1290
25381W        W43585   6.188   5.143   2.210  0.0077 -0.3262  0.0540
25382W        W43586   0.410   6.019   1.919  0.0768  0.2557 -0.1617
25383W        W43587   4.902  13.445   3.107 -0.0551 -0.3350 -0.0107
25384W        W43588   2.255   5.477  13.293 -0.0824 -0.2473 -0.0885
25385W        W43589   1.565  12.357  14.394  0.0362 -0.2824 -0.4375
25386W        W43590   3.301   3.359   3.822  0.0621 -0.4238 -0.2282
25387W        W43591  13.514  18.048   4.366  0.1353  0.0773  0.1103
25388W        W43592  17.541  17.113   0.489 -0.3134  0.1442 -0.1828
25389W        W43593  15.139  18.493   1.033 -0.0245 -0.0542 -0.0222
25390W        W43594  11.089  10.680  15.444  0.1532  0.1581  0.3494
25391W        W43595   9.643   7.120   3.260 -0.0541  0.0686 -0.1276
25392W        W43596   1.109   5.495  11.916  0.1185 -0.3144 -0.3761
25393W        W43597   6.194  14.044  13.764  0.0473 -0.0031  0.1888
25394W        W43598   8.354   1.275   1.359  0.0941 -0.0922  0.1364
25395W        W43599   5.919   3.443   2.931  0.0828 -0.1746 -0.1242
25396W        W43600   6.997  13.422  14.792 -0.2901  0.2752 -0.1409
25397W        W43601   2.655   0.895  12.711 -0.2904 -0.0808 -0.1925
25398W        W43602   8.207  17.328  10.985 -0.0030 -0.2998  0.0913
25399W        W43603  13.345   1.657   0.047 -0.1391  0.0577 -0.0936
25400W        W43604   7.619   9.788  12.610  0.0122 -0.2242 -0.0649
25401W        W43605  16.362   7.499  11.627  0.1543 -0.2156 -0.0858
25402W        W43606   0.719  10.466  14.689  0.1417 -0.3084 -0.3320
25403W        W43607  14.285  13.351   0.796  0.4978 -0.1501  0.0456
25404W        W43608  11.106  14.280   4.225 -0.1513  0.0256 -0.1975
25405W        W43609   5.024   3.655  12.419 -0.1806  0.4682  0.0849
25406W        W43610  13.086   9.871   1.785 -0.1303  0.1540  0.0099
25407W        W43611  15.918   5.567   0.450 -0.0721  0.0407 -0.3733
25408W        W43612  10.210   5.646  10.277  0.0378 -0.0668  0.2379
25409W        W43613  12.774   8.174   2.554  0.0912 -0.1741  0.0265
25410W        W43614  17.818  11.210  11.213  0.0676  0.1498  0.1874
25411W        W43615  16.850   9.551  15.103  0.0323  0.0070  0.0252
25412W        W43616   6.696  16.561  11.530  0.0736 -0.0669 -0.1560
25413W        W43617  12.296   1.187   1.575 -0.1764 -0.3265  0.0240
25414W        W43618   4.006  13.465  11.102  0.0520  0.2973  0.0013
25415W        W43619   3.306  16.574   1.334  0.0922 -0.1898 -0.0452
25416W        W43620  15.955  14.940  11.188  0.2489  0.2235 -0.1955
25417W        W43621  16.368   6.020   4.303  0.0702  0.0282  0.0693
25418W        W43622  12.086   6.871   1.833 -0.1755  0.0626  0.0947
25419W        W43623  11.230  15.723   0.522  0.1289 -0.0023  0.0454
25420W        W43624   3.113  14.403   2.816  0.2713 -0.0987 -0.1988
25421W        W43625   3.595  18.379   3.075 -0.0830  0.2388  0.0286
25422W        W43626  17.764   4.423  13.977 -0.1440  0.1537 -0.0550
25423W        W43627   5.264  13.670  14.191 -0.1470  0.2327 -0.2020
25424W        W43628   6.677  13.811   0.140  0.0469 -0.0316 -0.1332
25425W        W43629   6.916   4.161  14.016  0.1873  0.0749  0.2929
25426W        W43630   2.000  10.303  13.547  0.2914  0.0957 -0.0415
25427W        W43631   9.861  18.637  15.183 -0.0993  0.1155 -0.0271
25428W        W43632  11.372   0.999   0.560 -0.0258  0.1686 -0.2255
25429W        W43633  15.039  13.608   4.078  0.0030 -0.0155 -0.2245
25430W        W43634  10.590   8.467   0.699  0.0109 -0.3100 -0.2499
25431W        W43635   5.125   1.384  12.693 -0.0321  0.2697 -0.1492
25432W        W43636   9.171  18.566  14.407 -0.1129  0.1423 -0.0838
25433W        W43637  10.541   7.281  15.395 -0.1304  0.0571  0.0542
25434W        W43638   1.251  10.184  12.547  0.0465 -0.3602 -0.1292
25435W        W43639  15.619  15.728   4.109 -0.0682  0.0100  0.3942
25436W        W43640   6.203   0.469  14.685  0.3645  0.0454 -0.0666
25437W        W43641  13.420  12.527  13.107 -0.3626 -0.0136  0.0899
25438W        W43642   3.744  15.382   3.135  0.2693 -0.1489  0.0712
25439W        W43643   1.421   2.981  12.497  0.0099  0.0823  0.2344
25440W        W43644   0.066  13.558  12.897  0.0685 -0.0941  0.0152
25441W        W43645  18.569  17.248   1.154 -0.1081  0.3602 -0.2530
25442W        W43646   7.904  17.649   0.992 -0.1495  0.2398  0.2078
25443W        W43647   7.494   8.407  11.189 -0.1361 -0.1445  0.2895
25444W        W43648   6.054   9.275   3.103  0.2753 -0.2022 -0.3613
25445W        W43649  17.317  14.812   0.257 -0.0651 -0.1014  0.0400
25446W        W43650   0.621  13.165   0.632  0.1992  0.0156 -0.2849
25447W        W43651   9.598  14.795  11.742 -0.0503  0.0983 -0.2505
25448W        W43652  15.656   5.118  14.943  0.2319  0.2090  0.1583
25449W        W43653   2.901  14.601  13.072  0.0912 -0.0973  0.1016
25450W        W43654  12.435  13.556   3.743 -0.1148  0.0033 -0.1457
25451W        W43655   6.416   8.539   4.278 -0.0412  0.1152 -0.0022
25452W        W43656   5.672  15.877  15.370  0.0837 -0.0759  0.3073
25453W        W43657  15.960   5.668   0.916 -0.0497  0.1080  0.0845
25454W        W43658   7.023   2.143  15.233 -0.3091 -0.2461  0.3076
25455W        W43659  12.812   8.299  11.092  0.1135 -0.3000  0.1800
25456W        W43660   5.367  14.173  10.675 -0.2551  0.2127 -0.3228
25457W        W43661   3.050   3.632  10.580  0.0016 -0.2448 -0.0096
25458W        W43662  16.590   1.871   4.458 -0.1308  0.2596 -0.2061
25459W        W43663  11.354  17.661   1.744 -0.6054  0.0354 -0.2584
25460W        W43664  14.006   5.790   2.616 -0.1752  0.0265  0.4063
25461W        W43665   3.014  16.078  14.406 -0.0397 -0.0553 -0.0082
25462W        W43666   3.935  16.153   1.056  0.1240 -0.2763  0.0652
25463W        W43667  15.299   8.546   3.448 -0.0486  0.0232 -0.1687
25464W        W43668   0.700  16.826  14.589 -0.1155  0.0537  0.1499
25465W        W43669  16.783  11.560   0.762 -0.0420 -0.0080 -0.1748
25466W        W43670   5.011   1.460  11.126  0.1759  0.0776  0.0932
25467W        W43671  11.663   5.009   2.243 -0.0839 -0.0193  0.1858
25468W        W43672   1.483  15.843   3.500  0.3294 -0.0421  0.0788
25469W        W43673   2.048  14.096  11.620  0.1375  0.1803 -0.4041
25470W        W43674  14.831   7.632   2.896  0.3072  0.1605  0.0860
25471W        W43675   5.203  16.561   0.464 -0.2221  0.0109  0.0648
25472W        W43676  10.209  10.303   2.663  0.4341 -0.1209 -0.0291
25473W        W43677   7.515  15.946   0.419 -0.1513 -0.0180 -0.0839
25474W        W43678   1.434  11.946   4.453  0.1354 -0.0363 -0.0405
25475W        W43679  17.670   8.330   0.781 -0.2970 -0.1966  0.0565
25476W        W43680   9.611  18.395  12.405 -0.1782 -0.2704 -0.1891
25477W        W43681   1.470   9.203   3.917  0.0723  0.0318 -0.1874
25478W        W43682   3.554   5.434  13.085 -0.1212  0.2488  0.1404
25479W        W43683   2.748   6.845   2.672 -0.0854  0.2262  0.0493
25480W        W43684   6.341   7.421   4.124  0.1942 -0.1271  0.2087
25481W        W43685   7.913  18.608   1.481  0.0406 -0.0100 -0.0131
25482W        W43686  17.809   6.079  14.831  0.2386 -0.0495  0.0294
25483W        W43687  16.668  15.899  15.155 -0.0051  0.3427 -0.1844
25484W        W43688   7.819  11.013   4.636  0.0179  0.1853  0.3417
25485W        W43689   2.438   1.274   3.339  0.1333  0.1712  0.0603
25486W        W43690   3.148  15.248  14.724  0.4038 -0.1734 -0.1236
25487W        W43691   3.757   1.550  14.693 -0.1700  0.1233  0.1043
25488W        W43692   2.786   9.380   4.488  0.2517  0.1736 -0.0191
25489W        W43693  14.039   0.002   0.198  0.2610  0.1779  0.0740
25490W        W43694   1.574   6.935  12.978  0.1100 -0.2044  0.4697
25491W        W43695  11.281   5.884  10.869 -0.0428  0.0369 -0.0040
25492W        W43696  12.387  18.567   3.715 -0.0484 -0.3171 -0.0937
25493W        W43697   9.220  17.178  11.085  0.3702  0.2704 -0.0710
25494W        W43698   0.035   5.775   3.931 -0.2186  0.2730 -0.1699
25495W        W43699  17.058  14.179  13.336  0.1609  0.0940 -0.0402
25496W        W43700   8.007   2.067  11.989  0.1515 -0.0082 -0.0837
25497W        W43701  10.858   8.064   3.533 -0.0101  0.0065 -0.0563
25498W        W43702   0.785   0.305   1.247  0.1172 -0.1373  0.2327
25499W        W43703   5.503   5.416  14.231  0.3671  0.3847 -0.0413
25500W        W43704   1.875  10.061   2.514 -0.1353 -0.0261  0.0911
25501W        W43705   6.286  11.999  11.591  0.0398  0.0578 -0.0871
25502W        W43706  11.804   9.637  13.323 -0.0732  0.0314  0.1577
25503W        W43707  14.658   1.533  12.562 -0.1212  0.0033 -0.1002
25504W        W43708   1.625   5.713  12.279 -0.1397  0.2202 -0.1125
25505W        W43709  15.807   2.838   2.182 -0.2719  0.0282  0.0759
25506W        W43710   5.545   0.378   3.098  0.3163 -0.2657 -0.1818
25507W        W43711  11.483  11.794  12.129 -0.1243 -0.0649 -0.0370
25508W        W43712  17.743  10.331   1.601  0.1106  0.1656  0.4875
25509W        W43713  16.431  15.623   1.961  0.1180 -0.4425 -0.1352
25510W        W43714   1.827   0.885   1.106  0.0649 -0.1083 -0.1280
25511W        W43715  15.175   7.973   2.184 -0.1407 -0.2182  0.0067
25512W        W43716   6.935  12.992   3.372 -0.0853 -0.0499 -0.0883
25513W        W43717   3.007  16.329   1.830  0.0078 -0.0918  0.0810
25514W        W43718   2.544   4.012   0.133 -0.0404 -0.1083  0.0103
25515W        W43719  16.698   4.462   2.360 -0.1247 -0.0260 -0.3096
25516W        W43720   3.180  13.812   2.690 -0.1189  0.2139 -0.0514
25517W        W43721   9.090   2.710   3.695  0.0418 -0.0469 -0.0431
25518W        W43722   7.971   8.960  14.266  0.0109 -0.1286  0.0102
25519W        W43723   0.846  10.151   1.754 -0.1214  0.2300 -0.0800
25520W        W43724  17.491  12.247  12.877 -0.1446  0.0691 -0.0269
25521W        W43725   6.308   6.055  11.701 -0.0613  0.1998 -0.1315
25522W        W43726   6.534   3.738   2.644  0.1552 -0.1836 -0.2458
25523W        W43727   2.110  14.979   4.459  0.0472  0.1473 -0.1087
25524W        W43728   5.327  17.155   0.264  0.2169 -0.0976 -0.0708
25525W        W43729  14.740   1.762  13.379  0.0903 -0.1269  0.0003
25526W        W43730   5.647   9.373  15.292 -0.3008 -0.0467  0.0998
25527W        W43731  13.724   5.233   3.781  0.2439  0.1460 -0.0974
25528W        W43732  11.988  11.457  11.464  0.3459  0.1456 -0.0341
25529W        W43733  13.559  12.428  11.644  0.0402  0.0834  0.2091
25530W        W43734  17.826  12.872   3.640  0.0340  0.0240  0.0668
25531W        W43735   9.253  17.528   0.611 -0.1072 -0.1964  0.0641
25532W        W43736  12.487   6.622  14.958 -0.2489 -0.1524 -0.2558
25533W        W43737   6.663  16.960   9.400 -0.0870 -0.0061 -0.0404
25534W        W43738   8.597   0.498  14.234  0.0136  0.2076  0.3193
25535W        W43739  15.276  17.344   3.067  0.0148  0.0050  0.2141
25536W        W43740  18.033  13.976   0.198 -0.1287 -0.0483 -0.1858
25537W        W43741  15.592   3.477  12.882  0.2404 -0.3150  0.0417
25538W        W43742  15.520   0.320  12.753 -0.3369  0.0574 -0.0334
25539W        W43743   6.841  11.051  15.009  0.1077  0.0450  0.2034
25540W        W43744  17.836  10.528   4.001 -0.2561  0.1463  0.0892
25541W        W43745   6.246   4.252   1.375  0.0742 -0.2916 -0.3841
25542W        W43746   4.330   2.335  15.392 -0.2463  0.0766  0.0046
25543W        W43747  18.640   9.970   1.310  0.0777  0.0480  0.2826
25544W        W43748  13.170  13.887   3.402  0.1232 -0.1637  0.0962
25545W        W43749   8.481  15.685   3.946 -0.1746  0.1908 -0.0170
25546W        W43750   2.640   2.986  13.457  0.0717 -0.0955  0.1600
25547W        W43751   6.462   6.418  13.011  0.2079  0.1288  0.1205
25548W        W43752  10.031   8.066   2.554 -0.1191 -0.1594  0.2055
25549W        W43753  13.047  12.798  13.886 -0.0549  0.1333  0.3697
25550W        W43754  15.866  17.771  15.352  0.2621  0.2918 -0.2567
25551W        W43755   6.328  18.387  11.631 -0.1891 -0.2381 -0.1033
25552W        W43756   0.732  11.707  10.987  0.0245  0.2295  0.2703
25553W        W43757  15.167  18.327  14.703 -0.3974  0.0224 -0.3104
25554W        W43758   4.782  16.404   0.229  0.0054  0.1737  0.0862
25555W        W43759  13.527  12.879   1.263  0.1148 -0.0621 -0.1142
25556W        W43760  18.533   7.391   4.013 -0.1628  0.2502 -0.1090
25557W        W43761  14.634  17.154   4.935 -0.1979 -0.2913 -0.0798
25558W        W43762   8.964  17.999  13.681 -0.1855 -0.1019  0.0645
25559W        W43763   8.461  16.647  14.352 -0.2085  0.0706 -0.2041
25560W        W43764   4.705   1.717  14.723 -0.0575  0.1442 -0.0046
25561W        W43765   4.374  13.780   0.479  0.2151 -0.3035  0.0060
25562W        W43766   3.787  16.513  12.395 -0.0113 -0.0996 -0.0607
25563W        W43767   5.630  14.843   1.365 -0.0001 -0.1847  0.1539
25564W        W43768   9.936   3.716   4.179 -0.0369 -0.2670 -0.2491
25565W        W43769  12.314   1.619   3.476  0.0039 -0.0789  0.0440
25566W        W43770   5.715   6.708   3.989  0.3917 -0.0853  0.0740
25567W        W43771   9.352  11.885  15.059 -0.2745  0.0034 -0.4885
25568W        W43772   8.684   7.684   0.362 -0.1557  0.3932  0.0384
25569W        W43773   0.313  17.798  12.132  0.0358  0.2752  0.1129
25570W        W43774   1.752   7.026  14.279  0.0288 -0.1509 -0.4431
25571W        W43775   6.121  14.973   3.359  0.0112  0.0686  0.0592
25572W        W43776  15.225   5.806   0.035 -0.0490  0.0137 -0.0044
25573W        W43777   3.218  17.716   3.015  0.1556  0.1152  0.2663
25574W        W43778   8.667   1.319   1.735 -0.0541  0.0049 -0.0223
25575W        W43779  11.337   6.647   2.405  0.3151 -0.1807  0.0108
25576W        W43780   8.039  18.343  12.957  0.1261  0.1868 -0.1266
25577W        W43781   7.923   3.190   3.106 -0.1784 -0.3287 -0.0656
25578W        W43782   9.986  11.045   2.819 -0.0234  0.0797 -0.1923
25579W        W43783   5.914  14.503  13.772 -0.0652 -0.3834 -0.2397
25580W        W43784   2.190   2.053  15.028  0.0402  0.0551 -0.0070
25581W        W43785  12.520   5.952   4.354  0.1071 -0.3908 -0.0594
25582W        W43786   9.076   1.331   3.809  0.2125  0.2047  0.1219
25583W        W43787  12.330   6.255   1.247  0.0906  0.0275 -0.1616
25584W        W43788  16.215   0.094  15.289 -0.0774  0.0637 -0.0732
25585W        W43789   6.957   6.764  14.275 -0.0747  0.0037  0.0308
25586W        W43790  16.587  18.214  14.190 -0.3064  0.0516  0.4229
25587W        W43791   6.853  13.150   3.875  0.4100 -0.1793  0.3096
25588W        W43792   0.385  17.816  11.604  0.0228  0.1938 -0.1737
25589W        W43793   5.322   0.706   3.439 -0.1581 -0.3953  0.1298
25590W        W43794   8.176   4.013  11.512  0.1859 -0.0511 -0.2421
25591W        W43795   1.926   5.381  10.861  0.3194 -0.0151 -0.1410
25592W        W43796   1.839  15.023  12.239  0.0977  0.1089  0.0910
25593W        W43797   3.700   5.316   3.898 -0.3445 -0.3526 -0.2593
25594W        W43798   1.837  13.271   4.275  0.1724 -0.3964  0.0483
25595W        W43799  13.738   6.465   0.011 -0.1719  0.2027 -0.0183
25596W        W43800   7.614   2.449   2.382  0.0621 -0.0675  0.1181
25597W        W43801   9.902   8.482   2.294 -0.3275  0.1567  0.2985
25598W        W43802  16.267  12.159   1.335 -0.0450 -0.0602 -0.2998
25599W        W43803   4.586  15.908   3.945 -0.1472 -0.0633  0.0630
25600W        W43804   4.304   9.423  13.612 -0.2453  0.1747 -0.0241
25601W        W43805  17.286  12.514   3.246  0.0226 -0.3865 -0.1000
25602W        W43806   3.487  12.853  12.384  0.0433  0.0619 -0.0940
25603W        W43807   4.976  12.613  12.807  0.0743  0.0812  0.2354
25604W        W43808   3.633   7.814  13.715  0.0491 -0.3897 -0.0312
25605W        W43809   1.904  12.217  12.028  0.0181 -0.0565  0.0379
25606W        W43810  12.265   7.388   5.217  0.2179  0.2329  0.1571
25607W        W43811   7.016  15.496  15.369  0.0479 -0.0162  0.3651
25608W        W43812  15.536   9.872   5.185  0.1482  0.1709  0.2928
25609W        W43813  12.202  16.033   1.872  0.0681 -0.0199  0.1388
25610W        W43814   5.347   9.895  13.374 -0.3007  0.1113  0.1940
25611W        W43815   7.022  10.221   2.453  0.0305  0.4163 -0.0136
25612W        W43816   1.132  15.925   3.995 -0.0002 -0.3526 -0.0167
25613W        W43817  12.798   3.990  14.841 -0.2725  0.3797 -0.2790
25614W        W43818   0.124   2.028  13.495  0.1280  0.1528  0.2896
25615W        W43819   1.874  12.662  10.918  0.1890  0.1965  0.0990
25616W        W43820   4.589  10.507  15.180 -0.0865 -0.3602 -0.0287
25617W        W43821   3.005  14.522  14.118  0.1104  0.3618 -0.1292
25618W        W43822   1.546   7.296  12.670 -0.1852 -0.1780  0.1422
25619W        W43823   1.754   3.351  15.397  0.1371 -0.0689 -0.0289
25620W        W43824   7.675   9.607   2.340  0.0003  0.1204  0.0334
25621W        W43825   9.060  12.835  13.148 -0.1959  0.0167 -0.2404
25622W        W43826  12.622   0.374  11.848 -0.4811 -0.3418  0.2407
25623W        W43827  16.805   6.224   0.460  0.0592  0.1507  0.3983
25624W        W43828  15.107  16.812  14.952  0.0132  0.1698  0.2085
25625W        W43829   9.982   1.076  11.917  0.1947  0.1333 -0.0198
25626W        W43830   0.363   1.498   0.210 -0.4267  0.1459 -0.4015
25627W        W43831   7.217  17.983  15.228  0.2442  0.0573  0.1708
25628W        W43832  14.608   9.084   1.745  0.1382 -0.1481  0.1741
25629W        W43833  15.933  14.139  12.631  0.0170 -0.1779 -0.3633
25630W        W43834   8.838   4.492   4.941 -0.1374  0.0496  0.1172
25631W        W43835   6.247  13.840  14.499 -0.1350  0.3160  0.0155
25632W        W43836  15.925  10.402  11.815  0.2534 -0.3031  0.2094
25633W        W43837  18.350   6.075  10.525  0.0499  0.2028 -0.1606
25634W        W43838   0.871  17.728  14.661 -0.0523  0.2361  0.1098
25635W        W43839  15.562   0.569   3.003 -0.2730  0.3982  0.0502
25636W        W43840   4.968  14.351   4.297  0.3785  0.2397 -0.0939
25637W        W43841  14.102   4.655   2.616  0.4610  0.1135 -0.0185
25638W        W43842   4.763   4.320   4.013 -0.0067  0.2898  0.2045
25639W        W43843   2.712   1.864   2.138  0.0657  0.1023 -0.3877
25640W        W43844  12.335   4.250   3.024 -0.4937 -0.3785 -0.1486
25641W        W43845   9.873  18.211  13.230 -0.0358 -0.3020  0.1619
25642W        W43846  10.656  14.175  13.290 -0.0647 -0.0874  0.0077
25643W        W43847  13.591  10.715  11.280 -0.1967 -0.1843 -0.0656
25644W        W43848  13.973   7.546  14.748  0.2624  0.0380  0.0095
25645W        W43849   1.073  17.159  11.991 -0.0729 -0.0283 -0.1355
25646W        W43850   2.536  16.122  14.282  0.0308 -0.1397  0.0845
25647W        W43851   5.353   1.451  13.225  0.0809  0.2608 -0.3267
25648W        W43852  12.618   7.888  11.285  0.0738 -0.0748 -0.0067
25649W        W43853  12.756   0.227   3.385 -0.0469 -0.1174 -0.0932
25650W        W43854  12.718  12.768   2.629  0.1630 -0.0896  0.3410
25651W        W43855  14.288  13.332  13.964  0.1794 -0.2165  0.0046
25652W        W43856   9.411  10.035   2.432 -0.3263 -0.0493  0.0197
25653W        W43857   6.264   5.009  14.509 -0.1286  0.4238  0.0488
25654W        W43858  14.930  18.643  13.939  0.1295 -0.2799  0.1815
25655W        W43859  16.109   7.889  13.090  0.2729 -0.1370  0.0514
25656W        W43860  16.031   5.480  12.260  0.4342 -0.1012 -0.3288
25657W        W43861  12.597  14.327   0.826 -0.0780  0.2338 -0.1573
25658W        W43862  17.651   2.801   0.730  0.1155  0.2396 -0.4023
25659W        W43863   7.788   1.276   3.279 -0.4221  0.2843  0.0534
25660W        W43864   8.949   3.755   4.330  0.0884  0.0779  0.0289
25661W        W43865  15.547  14.717  11.270 -0.0887  0.2199 -0.0782
25662W        W43866   8.467   9.729  12.394 -0.2170 -0.1646  0.0407
25663W        W43867  17.458   0.572  14.123 -0.2241 -0.1673  0.0636
25664W        W43868   9.797  16.876   1.454 -0.1244  0.0150 -0.0075
25665W        W43869   8.978  14.258   2.180 -0.3994 -0.0613  0.0894
25666W        W43870  17.962   2.140  13.401 -0.1433  0.3402  0.1010
25667W        W43871  11.335  18.309   2.132 -0.0983  0.0239  0.1876
25668W        W43872  11.118   4.234  14.468 -0.1058  0.0707  0.1129
25669W        W43873   5.432   6.790  14.423 -0.1570  0.3272 -0.0125
25670W        W43874   4.112  17.653  13.803  0.0196 -0.0722  0.0575
25671W        W43875  15.963  13.571   5.373  0.0579  0.0463  0.1390
25672W        W43876  11.482   4.020  14.190  0.0298  0.0387  0.0492
25673W        W43877  13.046  17.442   1.548  0.0170 -0.1755 -0.0593
25674W        W43878   0.268   7.928   0.875 -0.0498 -0.1038  0.3959
25675W        W43879   8.994  18.503   2.797  0.0266  0.0551  0.0641
25676W        W43880  18.318   2.211  11.546  0.0603  0.2365 -0.2022
25677W        W43881   5.929   9.425   5.263  0.2132  0.2609 -0.1583
25678W        W43882  13.094  18.683  10.697 -0.1056 -0.0953 -0.2576
25679W        W43883   7.018  10.145   1.141 -0.0388  0.1714  0.0883
25680W        W43884   9.755  10.329   1.147  0.0730 -0.1123  0.2069
25681W        W43885  16.934   7.951   4.549 -0.2550 -0.2623  0.0686
25682W        W43886  10.478   7.677   3.191  0.1616  0.1687 -0.1171
25683W        W43887  12.430  15.850   1.331  0.1609 -0.1269 -0.0558
25684W        W43888  10.261  11.343  14.560 -0.1125 -0.0064 -0.2548
25685W        W43889   9.843  17.547   0.717 -0.3295  0.0284  0.0397
25686W        W43890   2.068  15.819  15.106 -0.4738  0.1584  0.0007
25687W        W43891  16.588   6.904   2.802  0.1933  0.0675 -0.3425
25688W        W43892  13.161   2.412   0.707  0.2082 -0.5040 -0.1361
25689W        W43893   6.479  18.046  14.146  0.2086  0.2325 -0.0172
25690W        W43894   3.593  15.122   0.303 -0.0472  0.2737 -0.0285
25691W        W43895   8.440   0.473  14.726  0.0218 -0.0210  0.0604
25692W        W43896   5.529   4.560  13.051  0.0970 -0.1985  0.0519
25693W        W43897   0.367  11.684  12.824  0.4375  0.0785  0.0457
25694W        W43898   5.049  16.509   2.784 -0.0105  0.1237 -0.1065
25695W        W43899   1.672   2.833   2.246 -0.3255 -0.1272 -0.0165
25696W        W43900   6.232  10.032  11.866  0.0183  0.2275  0.1675
25697W        W43901  16.805   2.596   0.573  0.3569 -0.0341  0.3400
25698W        W43902  17.015   6.169  15.443 -0.1074  0.0391 -0.5370
25699W        W43903   9.214   6.683   3.084  0.0125 -0.3157 -0.2312
25700W        W43904  17.765   0.065  11.995 -0.1314 -0.1674  0.1200
25701W        W43905  12.426   2.974  10.701 -0.0396  0.1219  0.0087
25702W        W43906   3.723  17.792   2.967  0.0003 -0.0837 -0.0927
25703W        W43907   2.143  18.357   1.879  0.0974 -0.0995 -0.4368
25704W        W43908  17.609  11.305  13.859 -0.3465  0.1199  0.3812
25705W        W43909  14.047   3.983  14.717  0.1801 -0.0010  0.4956
25706W        W43910   0.248   9.679  11.071 -0.0677 -0.0268  0.1683
25707W        W43911   8.144   4.293   4.180 -0.0354 -0.1723  0.1540
25708W        W43912   4.620   1.666  14.237 -0.3750 -0.3342 -0.0189
25709W        W43913   5.710  15.019  13.827  0.1291  0.0813 -0.1405
25710W        W43914  10.348  16.898  14.081 -0.1135  0.1844  0.3084
25711W        W43915  10.209   4.908  11.289 -0.3429 -0.0161  0.1493
25712W        W43916  16.437   8.175   2.835 -0.3329 -0.0281  0.1663
25713W        W43917   0.205   4.920  15.450  0.2509 -0.0864  0.1556
25714W        W43918   7.668  14.918  14.745  0.0803  0.2278  0.0274
25715W        W43919  18.497  11.487  12.275  0.1439 -0.2954 -0.1365
25716W        W43920  13.715   8.887   2.415  0.0154 -0.0005 -0.5943
25717W        W43921   4.451  15.234   3.560 -0.1029  0.1884 -0.4078
25718W        W43922  12.436   4.725   0.149 -0.3446 -0.3074  0.1908
25719W        W43923   2.716   7.305   1.281 -0.1153  0.0213  0.4384
25720W        W43924   9.334   3.108   1.981 -0.0598 -0.1288  0.2193
25721W        W43925   5.415   4.022   0.856 -0.0110  0.0165 -0.2098
25722W        W43926   5.702  12.016  12.790 -0.1288  0.0591  0.3115
25723W        W43927  17.662  12.668  15.405 -0.4312 -0.0409  0.2014
25724W        W43928  10.416   5.635   0.452  0.1869  0.1013  0.4940
25725W        W43929   3.870  11.603  15.429 -0.0933  0.2736  0.2225
25726W        W43930  11.600  10.960   4.803  0.2330  0.0493  0.3543
25727W        W43931  10.391  17.451   3.003 -0.3797 -0.0733 -0.1254
25728W        W43932   4.104  18.339   1.114 -0.2394 -0.5207  0.3058
25729W        W43933  13.953   4.060   3.405  0.2469 -0.3653 -0.1103
25730W        W43934  13.759   7.230   0.970 -0.0214  0.2153 -0.1703
25731W        W43935  11.426  16.020  10.473 -0.1817  0.1002  0.0798
25732W        W43936   9.211  15.747   2.573  0.2339 -0.2858  0.2513
25733W        W43937   1.973  18.078   0.635  0.2227 -0.0701 -0.3096
25734W        W43938  13.688  12.472   2.756 -0.2836 -0.1105 -0.1805
25735W        W43939   9.438  14.283   0.636 -0.1697 -0.2750 -0.0711
25736W        W43940  16.490  17.687  13.819  0.0232  0.0335 -0.1871
25737W        W43941  14.690   6.914   1.590 -0.1530  0.0106 -0.2090
25738W        W43942  16.521  14.910   0.105  0.1142 -0.1108 -0.0521
25739W        W43943   3.519  10.035  12.269  0.2584  0.0232  0.3534
25740W        W43944   2.169   1.616  15.264  0.0802  0.0088 -0.1114
25741W        W43945  15.985   0.784  13.426  0.0756  0.0755  0.1688
25742W        W43946  10.544   8.826   1.097  0.3673 -0.2507 -0.1074
25743W        W43947   5.101  15.872  10.918  0.0230 -0.3069  0.2065
25744W        W43948  17.218  17.061   0.982 -0.0720 -0.0258 -0.1885
25745W        W43949  15.357   1.811  13.422  0.1553  0.0621 -0.1960
25746W        W43950  13.027   0.230   2.725  0.2387  0.3996  0.0406
25747W        W43951   3.535   5.661   4.375  0.2600  0.0107  0.0648
25748W        W43952  10.346   1.093  12.837 -0.0508 -0.0315 -0.4286
25749W        W43953   8.326  10.361  14.177  0.2883 -0.1148 -0.1441
25750W        W43954  14.154   5.274  14.924  0.2491 -0.0709 -0.0571
25751W        W43955  17.389   2.108   4.790 -0.0860 -0.1164  0.3924
25752W        W43956   8.855  16.881   5.300 -0.2333 -0.2247  0.2685
25753W        W43957  13.486   1.134   2.845  0.4531  0.0030 -0.0496
25754W        W43958   6.674  16.571  13.468 -0.0087  0.0122 -0.0128
25755W        W43959  13.010  14.667   0.929  0.2260  0.0480 -0.3214
25756W        W43960  12.436  15.112  14.683  0.2990 -0.0979  0.2092
25757W        W43961   3.076   1.186   2.707 -0.0665 -0.3795 -0.0637
25758W        W43962  16.826   2.229   4.696  0.2632 -0.1801 -0.4015
25759W        W43963   0.688   8.130  14.520  0.1811 -0.2810  0.2258
25760W        W43964  14.420  10.253  11.005 -0.1319 -0.0435 -0.1017
25761W        W43965   5.632  14.501   0.751  0.1928 -0.2861 -0.1704
25762W        W43966   4.073   6.157  14.080 -0.2242 -0.2213  0.1829
25763W        W43967  10.889   0.378  12.876 -0.0218 -0.0487  0.1655
25764W        W43968   9.171   4.231   4.119  0.0769  0.3370 -0.3973
25765W        W43969   4.595   8.735   2.954  0.0865  0.2980  0.2337
25766W        W43970  16.701  10.495   3.490 -0.1739 -0.0590  0.2010
25767W        W43971  14.832  13.913  13.232  0.1766  0.1809 -0.0066
25768W        W43972   5.193   7.644   1.514  0.2681 -0.0542 -0.0107
25769W        W43973  12.479   3.615   0.222 -0.0043 -0.0359 -0.0078
25770W        W43974  11.692   0.938  11.888  0.0535 -0.1108  0.1913
25771W        W43975   8.006   0.477  12.773 -0.4142 -0.2522 -0.0707
25772W        W43976  11.458  11.114  12.220 -0.0552 -0.2898 -0.1452
25773W        W43977   4.276  12.004   3.518 -0.1647  0.0748  0.0598
25774W        W43978  17.089   7.028   1.564 -0.0006  0.1975 -0.3009
25775W        W43979   5.843   4.931   1.892 -0.1446 -0.1067  0.0503
25776W        W43980   2.372  16.724  14.179  0.2023 -0.1015 -0.1509
25777W        W43981   2.547  10.957  15.446  0.1623  0.0865  0.0323
25778W        W43982   9.644  13.994   1.043  0.1882  0.2108 -0.2841
25779W        W43983  16.013   3.356   5.017  0.0215  0.0620  0.3593
25780W        W43984  10.217   2.792  13.445 -0.2859  0.1790  0.1696
25781W        W43985   7.153   6.216   1.714 -0.0514 -0.0310  0.0621
25782W        W43986   7.086   5.117   5.270 -0.0308 -0.1431 -0.0532
25783W        W43987  16.372  12.917   3.247 -0.0870  0.0428  0.2376
25784W        W43988   6.587  16.460   3.765  0.0287 -0.0690 -0.1093
25785W        W43989  10.984  16.740  12.299 -0.0354 -0.0305  0.0789
25786W        W43990  12.983  11.724   1.630  0.1298  0.2813  0.0241
25787W        W43991   0.551  12.897   1.134  0.0055 -0.1129  0.0717
25788W        W43992   0.789   7.790   2.725  0.2732 -0.1290  0.3116
25789W        W43993   1.603   4.698   0.653 -0.1752 -0.1755 -0.2089
25790W        W43994  17.400   3.030   2.862 -0.0086 -0.1876  0.1760
25791W        W43995  16.803  13.359  14.413 -0.2786  0.1266  0.0953
25792W        W43996   3.649  12.177   3.460 -0.1477  0.0049  0.2099
25793W        W43997  13.556   3.878  11.411  0.0945  0.1461  0.3563
25794W        W43998  17.835   0.369   0.725  0.1401 -0.0044  0.2730
25795W        W43999  11.081  15.250  12.401  0.0030  0.1728  0.1859
25796W        W44000   5.442   3.424  13.623 -0.1385 -0.1011 -0.2588
25797W        W44001   8.626  14.760  11.587  0.4377  0.1291  0.2002
25798W        W44002   8.945  17.990  12.831 -0.0278 -0.3932 -0.1167
25799W        W44003  18.012  14.045  13.417  0.1184 -0.1480  0.0221
25800W        W44004  15.176   4.312  13.450 -0.2525 -0.4061 -0.1430
25801W        W44005  17.436  10.797   4.369 -0.2810  0.0939  0.3262
25802W        W44006   9.526   2.234  12.245 -0.2865 -0.0025 -0.1403
25803W        W44007  12.050  18.224  12.196 -0.0478  0.0858 -0.2190
25804W        W44008  16.886   1.141   1.476  0.1937  0.2034 -0.3348
25805W        W44009   8.600  12.211   3.669 -0.1215  0.0818  0.2681
25806W        W44010  15.482  14.635   1.307  0.0185 -0.2465  0.2038
25807W        W44011   3.478   0.025  10.416  0.0968  0.0207  0.1102
25808W        W44012   6.374   3.637  12.868  0.2972  0.3252  0.2301
25809W        W44013  16.841   2.038  15.080 -0.0089  0.1688  0.1720
25810W        W44014   7.984  15.886  11.174 -0.1928 -0.2823 -0.0131
25811W        W44015  10.281   2.182  13.837  0.1635  0.0538  0.2416
25812W        W44016  15.609   7.228   1.891 -0.0751  0.1218  0.1546
25813W        W44017   4.548   8.460   2.401  0.1222 -0.1344  0.1775
25814W        W44018  10.418  12.995  10.852  0.0892  0.2913 -0.0460
25815W        W44019   7.739  10.236  11.297 -0.1201 -0.0820  0.1739
25816W        W44020  13.929   0.832   2.576 -0.3202 -0.0890  0.0211
25817W        W44021  10.599  16.547  12.538  0.0349 -0.1798 -0.2224
25818W        W44022   5.848   1.656  12.095 -0.1011  0.0146  0.1093
25819W        W44023  11.628  14.158  12.866 -0.0650 -0.2158  0.3143
25820W        W44024   7.909  10.522  14.568 -0.1536 -0.1889 -0.1292
25821W        W44025  18.319   3.373   0.709 -0.0187 -0.0905 -0.2009
25822W        W44026  11.480  15.370   0.248  0.2242  0.2714  0.0903
25823W        W44027  11.497   4.354   0.477  0.1385  0.0442  0.0590
25824W        W44028   5.088   0.169   2.677 -0.2498  0.4074  0.3858
25825W        W44029   6.481   2.679  14.081  0.1913  0.2592 -0.2271
25826W        W44030  12.138  14.559   2.422 -0.2164  0.2437 -0.0140
25827W        W44031  17.820   1.875   0.536 -0.0428 -0.1288  0.1783
25828W        W44032  10.210   1.529  13.658  0.3704 -0.4367  0.0606
25829W        W44033  15.696   2.681   4.039  0.0228  0.0615 -0.0512
25830W        W44034  16.311   9.108  14.062  0.0976 -0.2088  0.2484
25831W        W44035  14.338  14.833  15.272 -0.0570 -0.2180  0.1309
25832W        W44036   3.283  17.063  15.375  0.2814 -0.2601 -0.1743
25833W        W44037   3.353   6.058  11.347 -0.1495 -0.0635  0.0273
25834W        W44038   1.058  10.598   1.534 -0.2249  0.0788  0.3184
25835W        W44039  16.662  16.769   3.138  0.0368 -0.6111  0.0418
25836W        W44040  13.193  16.579   3.748 -0.2412  0.3406  0.1097
25837W        W44041  11.019   3.805  12.394 -0.2736 -0.3363  0.2698
25838W        W44042  16.379  12.660   2.071  0.1131 -0.1372  0.1373
25839W        W44043   5.954  14.564   3.619  0.1747 -0.0496  0.1826
25840W        W44044  17.179  16.117   0.823  0.0848 -0.3332 -0.0777
25841W        W44045   0.417  14.366  12.684  0.1727  0.0204  0.0622
25842W        W44046   1.839  17.170   1.152 -0.0068 -0.0890 -0.1314
25843W        W44047  17.209  15.291   0.509  0.0111 -0.3569  0.2006
25844W        W44048   8.520  10.440   3.564  0.1060 -0.0064  0.2995
25845W        W44049   4.321   0.007  14.700 -0.2158  0.0148  0.2898
25846W        W44050  18.100  17.465   2.442  0.1918 -0.3272  0.2636
25847W        W44051  13.361   5.190  14.199 -0.0551 -0.4607  0.0254
25848W        W44052  13.309  13.413  11.417 -0.0674  0.0881  0.0381
25849W        W44053  14.331   6.382   0.091  0.0852  0.1869  0.1873
25850W        W44054  10.910   8.887   0.713  0.1339  0.2804 -0.1248
25851W        W44055   5.485   8.432   2.654  0.2476  0.0078  0.0174
25852W        W44056   6.490  14.318  11.711 -0.2408  0.0586  0.1524
25853W        W44057   2.002   5.416   4.279  0.1856 -0.0292 -0.1059
25854W        W44058  17.234   5.446  11.845 -0.2160  0.2306  0.2028
25855W        W44059  14.339   3.888   4.631  0.0089  0.0906 -0.1729
25856W        W44060  15.466  17.083   4.982 -0.1058  0.0235  0.0237
25857W        W44061  13.439   5.866  11.424 -0.2662 -0.3158  0.0019
25858W        W44062   4.571   2.083  13.728  0.0835  0.2321  0.1430
25859W        W44063  18.117   1.132  15.086 -0.0268  0.0602  0.0088
25860W        W44064  13.959  18.088  12.146  0.0706  0.0779  0.3128
25861W        W44065  12.913   7.962   4.160  0.4179 -0.1563  0.2542
25862W        W44066  11.528  14.110   0.118 -0.2871 -0.0609 -0.1205
25863W        W44067  10.139   2.199  12.838  0.1266 -0.2562  0.0509
25864W        W44068  13.158  10.156  13.837 -0.2981 -0.3930 -0.1534
25865W        W44069   2.691   1.975   3.906  0.2791  0.0451 -0.3666
25866W        W44070   4.225   3.641  12.178 -0.0719 -0.0426 -0.3945
25867W        W44071   4.861   1.279   2.876 -0.1043  0.1856  0.2021
25868W        W44072  17.713  14.964   3.534  0.2742  0.1710  0.1987
25869W        W44073   1.247  17.987  14.955  0.3138  0.2523 -0.1884
25870W        W44074   6.681   6.243   2.600 -0.3092 -0.1624 -0.1484
25871W        W44075  16.696  10.585  12.771  0.0073  0.0971  0.0968
25872W        W44076   1.539   9.271   0.326 -0.0419 -0.2456  0.0290
25873W        W44077  18.294   8.959  11.170  0.0731 -0.1888  0.0748
25874W        W44078   0.914   1.883  12.269  0.0654  0.3074  0.0233
25875W        W44079  15.733   0.769   2.042  0.1931 -0.0090 -0.1182
25876W        W44080  13.891   9.632   5.748 -0.1654 -0.1478 -0.0589
25877W        W44081  10.500   0.924   2.343  0.1710 -0.1164  0.0616
25878W        W44082   9.337   2.442   2.048 -0.2503 -0.2392  0.5584
25879W        W44083   5.193  17.306  14.962 -0.0964 -0.0590  0.1155
25880W        W44084   8.299  10.211  12.214  0.0645  0.0983  0.0874
25881W        W44085   6.962   4.454  14.429  0.1722 -0.2200 -0.1090
25882W        W44086  17.983   1.632   0.977  0.0810 -0.1445  0.2865
25883W        W44087  17.282  17.720  12.661  0.0261 -0.2200 -0.0288
25884W        W44088  13.402   7.295   2.302 -0.0539  0.0531  0.0467
25885W        W44089  15.072  14.299   0.417 -0.0063 -0.1430 -0.0833
25886W        W44090   5.704  12.823   3.830 -0.0545  0.0101  0.1327
25887W        W44091   2.083  17.285  12.688 -0.1155 -0.0410  0.2712
25888W        W44092   8.640   4.129  12.289  0.1042  0.1952  0.2149
25889W        W44093  13.286   5.434  11.193  0.1443  0.0453  0.1444
25890W        W44094   3.393  17.168  14.374  0.1214 -0.1585 -0.1217
25891W        W44095  14.518  17.983  13.303 -0.0820  0.5510 -0.2843
25892W        W44096  17.700  10.167  14.304  0.0597  0.1163  0.0050
25893W        W44097   5.861   2.087  14.916  0.3660 -0.3122  0.3494
25894W        W44098   4.023   8.903  14.999 -0.3221 -0.0808 -0.0681
25895W        W44099  15.931   5.428   4.088  0.0495  0.0565 -0.1691
25896W        W44100   7.440   6.509  10.772  0.0024  0.5551 -0.1613
25897W        W44101   0.892  10.288   2.629 -0.1428  0.1188 -0.0455
25898W        W44102  10.534  10.440  14.247  0.0175 -0.2259 -0.2238
25899W        W44103  15.715   4.405  11.108  0.1282 -0.0862  0.3184
25900W        W44104  15.982   1.967  11.967 -0.0300 -0.2757 -0.1352
25901W        W44105   1.588  15.981  14.425 -0.0862  0.2628 -0.2240
25902W        W44106   0.770   6.110  11.191 -0.2292 -0.0133 -0.3735
25903W        W44107   1.124  17.441   0.067 -0.1677 -0.1683  0.0068
25904W        W44108  17.125  14.895   1.392 -0.2428  0.1550  0.0621
25905W        W44109   5.887   5.758  13.363 -0.0009 -0.0495  0.1502
25906W        W44110  16.276  16.833  11.593  0.1495 -0.0097 -0.2021
25907W        W44111  14.358   6.282  14.311  0.4797  0.1954  0.0187
25908W        W44112   4.009   2.865   1.858  0.1058 -0.0108 -0.1240
25909W        W44113  12.846  11.052  12.431  0.2971  0.0513  0.2009
25910W        W44114  14.700  17.555   1.736  0.2719 -0.1718  0.1969
25911W        W44115   1.552   7.127  14.790  0.2882 -0.3526  0.1173
25912W        W44116   0.552   1.748   2.027  0.0857  0.1180  0.3610
25913W        W44117  17.299  17.501   3.019 -0.0497  0.1720 -0.2098
25914W        W44118  14.586  11.678   3.672  0.0381 -0.1104  0.1848
25915W        W44119   5.457   4.177   2.895 -0.0870 -0.3891 -0.2542
25916W        W44120   6.722  16.718  12.501 -0.1009  0.4084  0.3610
25917W        W44121   4.657  12.973   4.100  0.0230 -0.0201 -0.0115
25918W        W44122  14.264  15.763  11.248  0.0854 -0.1668  0.3517
25919W        W44123   1.498   6.136   4.255  0.0660  0.0260  0.1122
25920W        W44124  10.919  12.520  14.326 -0.1325  0.1217 -0.1600
25921W        W44125  17.505  11.772  13.602  0.2997  0.1831  0.1097
25922W        W44126   5.629  11.636   0.522  0.0141 -0.1606  0.0512
25923W        W44127  12.391   8.975  12.253  0.2519 -0.0453  0.0928
25924W        W44128   6.941   7.831   4.232  0.0553 -0.0117  0.1476
25925W        W44129  14.377   4.083   1.242 -0.1463  0.2917 -0.0218
25926W        W44130  12.841   1.483  14.597  0.0396  0.0563  0.0486
25927W        W44131  14.873   8.278  12.856  0.0250 -0.1470  0.5035
25928W        W44132   3.842  15.259  11.598  0.2677 -0.1418  0.0325
25929W        W44133   5.010  16.559   4.563 -0.2207 -0.1286  0.2175
25930W        W44134   0.901   8.338   0.742  0.1033  0.1476  0.1188
25931W        W44135  16.857  17.483   3.327 -0.3470  0.3067  0.0352
25932W        W44136   7.689   9.106   2.573 -0.1481 -0.0894  0.1118
25933W        W44137  10.445   5.400   4.665  0.0776 -0.2235 -0.0805
25934W        W44138  12.074  12.729  14.716  0.3147  0.1211  0.1350
25935W        W44139  13.450  11.585   4.677 -0.3164  0.0458 -0.1208
25936W        W44140   0.972   4.784  10.889  0.0548  0.0836 -0.0560
25937W        W44141  11.014   4.486   0.203  0.2221 -0.0855 -0.0862
25938W        W44142  15.998   8.606  14.553  0.1249  0.1024  0.1964
25939W        W44143  10.685  13.888   4.106 -0.1645 -0.2331  0.3488
25940W        W44144   9.426   7.224   1.034 -0.0502 -0.0784  0.0749
25941W        W44145  13.554   0.999   4.974  0.1611 -0.6154  0.0366
25942W        W44146   3.741   5.199  14.353 -0.2284 -0.2111 -0.3542
25943W        W44147  11.473  14.491   4.700  0.1057 -0.1386  0.0047
25944W        W44148  14.853   0.680  13.211 -0.4430 -0.2271  0.0232
25945W        W44149  12.920   8.782   2.552 -0.0886  0.1492  0.2126
25946W        W44150   1.395   1.688   5.404 -0.4407  0.0220  0.2696
25947W        W44151   6.450  17.041   3.959  0.0006  0.1696 -0.1331
25948W        W44152   1.424   2.234   4.399  0.2643 -0.0301 -0.1758
25949W        W44153  14.386   0.171   3.541  0.3653 -0.2277 -0.1562
25950W        W44154  16.228  10.543  10.699 -0.1284 -0.3076 -0.2370
25951W        W44155  11.487  17.566   0.471  0.0873  0.1967 -0.0435
25952W        W44156   5.359  16.265   2.407 -0.2204 -0.0864  0.0935
25953W        W44157  11.324   6.434   1.328  0.0739  0.1430 -0.3077
25954W        W44158   1.886   9.222  15.228 -0.0193  0.0997  0.2105
25955W        W44159  17.208  15.732  14.578  0.0429  0.1295  0.1177
25956W        W44160  17.244   4.840  12.557  0.0756  0.1526  0.0344
25957W        W44161   4.085  17.729  14.352  0.0520  0.0146 -0.3091
25958W        W44162   9.331   8.517  14.034  0.1437 -0.0031 -0.0608
25959W        W44163  14.907  13.920   0.035  0.1504  0.1072 -0.1309
25960W        W44164   4.865  13.549  15.119 -0.0011  0.0138  0.0082
25961W        W44165  10.887  12.280  11.479  0.2296 -0.0483 -0.1053
25962W        W44166  13.544   9.495  12.400 -0.1028  0.1299  0.2307
25963W        W44167  16.437   3.082  12.339 -0.4792  0.3366 -0.1190
25964W        W44168   2.605   6.714   3.140  0.2742  0.0251  0.0070
25965W        W44169  16.100  11.299   1.566  0.2316 -0.1528  0.1199
25966W        W44170   4.182  13.753  13.125 -0.0849  0.0673 -0.0080
25967W        W44171   8.713  13.482  13.904  0.1538  0.0284  0.0458
25968W        W44172   4.703  10.830   1.997 -0.0067  0.0569  0.1043
25969W        W44173  15.399  11.218   2.296 -0.1475 -0.2171  0.0642
25970W        W44174  14.602   2.639  11.959 -0.1877 -0.1492 -0.3016
25971W        W44175   3.439  15.392  12.467 -0.2342  0.1564  0.0045
25972W        W44176   1.323   0.045  12.483  0.2058  0.3852 -0.0352
25973W        W44177  10.669  10.506   0.192  0.0844 -0.1820  0.1000
25974W        W44178   9.792  12.216  14.861  0.0267  0.1816 -0.0730
25975W        W44179  14.957   3.138   2.418 -0.1441  0.4388 -0.0721
25976W        W44180   5.137  13.370  12.451  0.2418 -0.0921  0.0781
25977W        W44181   1.999   9.732  15.371 -0.2165  0.2323 -0.3619
25978W        W44182   0.820   6.461   1.031  0.2372 -0.1846 -0.2225
25979W        W44183  12.923  15.693   3.216  0.0676 -0.0393 -0.5011
25980W        W44184   5.565   4.687  13.882 -0.2831  0.2687  0.0881
25981W        W44185   6.790   5.807   4.764  0.2180 -0.1487 -0.0216
25982W        W44186  11.420   4.422   2.052  0.2226 -0.3447 -0.0811
25983W        W44187   0.482   8.028   3.042 -0.1407  0.0203  0.0640
25984W        W44188   7.115  10.022   0.485 -0.0137 -0.0401  0.2569
25985W        W44189  18.591  17.574  13.340  0.0539  0.0213  0.5469
25986W        W44190   2.630   4.240  12.554  0.0859 -0.2915  0.1939
25987W        W44191   1.721  13.498   3.887 -0.2050  0.1147 -0.1285
25988W        W44192   1.402   3.474  14.153  0.3020  0.0308 -0.0910
25989W        W44193  10.534  17.309  11.096 -0.1927  0.0216 -0.0106
25990W        W44194   1.918  15.223  10.825 -0.0976  0.1295 -0.2167
25991W        W44195   4.264   0.829  13.629  0.2070 -0.1638 -0.0734
25992W        W44196   3.220  17.292  10.885  0.0188  0.0087  0.0132
25993W        W44197   2.627   1.340   0.841  0.2787 -0.0815 -0.0917
25994W        W44198   9.328   2.797   2.422 -0.3351 -0.1585  0.1099
25995W        W44199   2.255   3.693  11.253 -0.0159  0.0527 -0.0653
25996W        W44200  10.592  15.752   1.222  0.2977 -0.0028 -0.0567
25997W        W44201   7.863   2.835   0.664  0.2332  0.1312  0.0590
25998W        W44202   8.655   1.006   4.029 -0.1012 -0.0262  0.1350
25999W        W44203   6.013   5.775  14.829 -0.0476  0.1614 -0.0088
26000W        W44204  12.715   0.721   2.532 -0.1215  0.0933  0.0249
26001W        W44205  10.279  12.475  12.377  0.1351  0.1891  0.0983
26002W        W44206  11.852   1.497  12.707  0.2484 -0.0855 -0.0521
26003W        W44207   5.027  10.200  11.695 -0.2131 -0.0282 -0.0161
26004W        W44208   6.268  13.462  11.411 -0.1784 -0.3174 -0.0472
26005W        W44209   8.153  14.050  13.689 -0.3224 -0.0210 -0.1558
26006W        W44210   8.841   2.799   2.619 -0.2337 -0.0957  0.0294
26007W        W44211   3.360  14.266   3.660  0.3571 -0.1180 -0.1858
26008W        W44212   9.658   3.522  11.110  0.2146 -0.1082  0.1313
26009W        W44213   9.071  10.362  11.152 -0.0897 -0.2191  0.2498
26010W        W44214  14.263  15.803   1.543  0.1148  0.3063 -0.1296
26011W        W44215  16.241   1.938  11.067 -0.0816 -0.1984 -0.4532
26012W        W44216  12.808   5.411   1.670 -0.1127 -0.2419  0.0337
26013W        W44217   4.353  10.619   3.232  0.0461  0.0069 -0.2365
26014W        W44218   6.638  12.565   3.784  0.1310 -0.0147  0.3152
26015W        W44219  11.154  13.921  14.231 -0.1170 -0.0232  0.0334
26016W        W44220  14.194  16.952  13.585 -0.5371  0.1692 -0.1724
26017W        W44221   3.789   6.264  13.553 -0.0709 -0.1827 -0.1070
26018W        W44222   6.831   2.049  10.713  0.0819 -0.0982  0.0066
26019W        W44223  11.177   9.844  14.364 -0.2579 -0.3072  0.1061
26020W        W44224  11.628  18.362  14.408  0.0179 -0.0448 -0.0096
26021W        W44225   4.466  11.007  12.189 -0.0605 -0.3573  0.1387
26022W        W44226   3.765  13.805   4.154  0.1727 -0.1331  0.0197
26023W        W44227  16.465   0.606   0.659 -0.5604 -0.2113 -0.0957
26024W        W44228  12.056   0.724  12.179  0.1046  0.0945  0.1536
26025W        W44229  17.828   7.811  15.022 -0.1793  0.2280  0.0212
26026W        W44230  11.746  17.070   1.302  0.2179 -0.2480  0.1694
26027W        W44231   6.833  17.100   4.481 -0.0520 -0.2470  0.0391
26028W        W44232   7.817   1.343  11.857 -0.0157  0.0708 -0.1913
26029W        W44233  13.692   7.621  13.671 -0.0192 -0.2481 -0.1864
26030W        W44234  18.360  10.085   0.450  0.0174 -0.0695  0.2622
26031W        W44235  15.641  11.856   3.676  0.0123 -0.0120 -0.3372
26032W        W44236  18.530   7.662   1.112 -0.1105  0.1722 -0.2617
26033W        W44237  17.412  15.944   1.912  0.0564  0.2593  0.1415
26034W        W44238   6.180  13.968   2.817  0.0980 -0.0373 -0.1222
26035W        W44239   0.842  12.434   2.763 -0.0299 -0.2404 -0.1061
26036W        W44240  15.761  15.547   0.458  0.2313 -0.0482 -0.0148
26037W        W44241   1.082  17.868   4.833  0.0237  0.1628  0.2886
26038W        W44242   1.896  11.182  10.831 -0.1798 -0.3217  0.1405
26039W        W44243   9.699  11.708   2.585  0.3940  0.0826  0.0310
26040W        W44244   7.338   5.125  14.305  0.0418  0.2274 -0.1899
26041W        W44245  14.838   1.019   3.441 -0.2138 -0.2053 -0.0731
26042W        W44246  14.892   6.409  12.754  0.2207 -0.0508 -0.1302
26043W        W44247  11.289   0.395   0.461  0.0054  0.1126  0.1986
26044W        W44248  14.073  17.292   2.356 -0.2129 -0.1451  0.2274
26045W        W44249  16.407  10.279  13.513 -0.1381 -0.0195  0.1009
26046W        W44250  14.012  17.124  12.117  0.5497  0.0209 -0.0489
26047W        W44251  13.868  14.461  11.963  0.2455 -0.1448 -0.0396
26048W        W44252   3.263   3.945  12.934 -0.4735  0.1890 -0.2653
26049W        W44253   5.281   7.040   0.393  0.1773  0.0772 -0.3176
26050W        W44254   9.393  12.271  12.471  0.1914 -0.3091 -0.0585
26051W        W44255  12.911   5.504   2.530 -0.3509  0.0454 -0.1478
26052W        W44256  15.263   9.347   4.463  0.1686  0.1426  0.3403
26053W        W44257  14.801  10.526  12.789  0.1920  0.1459  0.3438
26054W        W44258  15.275   4.463  14.389 -0.0747  0.1019  0.1843
26055W        W44259  18.027   4.580   2.280  0.3040  0.0601 -0.3663
26056W        W44260  13.682   2.035  12.145 -0.0551  0.0348  0.2302
26057W        W44261  14.571  14.885  11.513 -0.0390  0.0697  0.0250
26058W        W44262  16.062  15.867   0.076 -0.2188  0.0947  0.1539
26059W        W44263   9.625   8.174   4.080  0.0610 -0.0740  0.0645
26060W        W44264   4.882   2.994   2.605  0.1180 -0.3515  0.0598
26061W        W44265  10.264   1.558  11.432 -0.0738  0.0403 -0.0127
26062W        W44266   1.939   6.447   3.449  0.1494 -0.0125  0.1497
26063W        W44267   4.494  12.198  15.429 -0.0278  0.1301  0.1661
26064W        W44268   9.508   7.639  11.309  0.0075  0.3066 -0.0524
26065W        W44269   3.974  11.302   3.354 -0.0259 -0.2362 -0.2651
26066W        W44270  10.484  16.291   0.988 -0.1851 -0.1569 -0.0980
26067W        W44271  13.527  17.946  12.314 -0.1614 -0.2481 -0.3586
26068W        W44272   2.766   9.920  13.398 -0.2188 -0.2057  0.2367
26069W        W44273   9.931   3.965  11.044  0.0056  0.2604 -0.0201
26070W        W44274   3.934   6.948   4.544  0.1493  0.0431  0.0136
26071W        W44275  12.844   2.364  13.307  0.1378 -0.1468 -0.3009
26072W        W44276   9.558   4.204   1.217 -0.2361  0.0916 -0.0379
26073W        W44277   0.491   3.490  12.120 -0.0253 -0.0890 -0.1070
26074W        W44278  12.652  15.398   0.037  0.1865 -0.1433 -0.3106
26075W        W44279   1.625   2.864  13.399 -0.1910  0.0359  0.2134
26076W        W44280   2.643  17.741   2.977  0.0019 -0.0513 -0.1467
26077W        W44281   8.883   7.048   1.443 -0.0907  0.0602 -0.0878
26078W        W44282  15.445   9.373   1.178  0.0301  0.0277  0.2050
26079W        W44283  11.468   2.535  15.170  0.1388 -0.1283 -0.2164
26080W        W44284   7.175  17.152   1.219  0.2088  0.3113 -0.1947
26081W        W44285  10.424  11.034   3.972 -0.1610  0.1253 -0.2008
26082W        W44286  12.543   9.118   4.431 -0.0979 -0.4166  0.0048
26083W        W44287   2.286   3.608  14.737  0.2043 -0.1161 -0.0518
26084W        W44288  13.833  17.003  13.913  0.2289  0.0701  0.0278
26085W        W44289   8.292  10.896   3.698 -0.1977  0.0679 -0.1016
26086W        W44290  11.874   6.509   1.423  0.2272 -0.1049 -0.2859
26087W        W44291   3.437   3.836  13.890  0.0430  0.2504 -0.2277
26088W        W44292   5.928   3.298  12.488  0.0888  0.2742 -0.1241
26089W        W44293  14.796   8.426  11.787  0.2470 -0.1538  0.1213
26090W        W44294  14.461   4.006   3.794 -0.1211 -0.2078 -0.0378
26091W        W44295   8.065  12.045   1.311 -0.2658 -0.0317  0.1251
26092W        W44296  18.369   1.254  14.687 -0.2594 -0.1304 -0.1230
26093W        W44297   8.874   8.286  12.420  0.0178 -0.1646 -0.1387
26094W        W44298   3.832  16.480   1.416 -0.1184 -0.1606 -0.2255
26095W        W44299   8.652  11.165   1.774  0.3629  0.0299  0.0128
26096W        W44300  13.490   9.393   2.368 -0.0065  0.0162 -0.1160
26097W        W44301  10.750  14.783  12.327 -0.0676 -0.1007  0.2593
26098W        W44302   0.762   9.999   3.943  0.0854 -0.3240  0.0985
26099W        W44303   5.364  13.991   3.840 -0.0504  0.2246  0.3169
26100W        W44304   9.305   8.873   0.747 -0.1607  0.2872  0.0403
26101W        W44305   4.957   5.711  15.035 -0.0974 -0.2115  0.0975
26102W        W44306   0.241  15.292  11.566 -0.1351 -0.0818  0.0697
26103W        W44307  16.303   1.160  15.268 -0.1105 -0.0703  0.1718
26104W        W44308   5.036   5.064   3.041  0.0688 -0.5322  0.0907
26105W        W44309   4.667   1.861  10.353 -0.2097  0.0937  0.0736
26106W        W44310   1.194   2.273  14.066 -0.2336  0.2181  0.0284
26107W        W44311  15.630  13.247   2.221  0.1609 -0.0225  0.0400
26108W        W44312  12.733   1.793  13.112 -0.2525  0.3359 -0.1652
26109W        W44313  14.199   9.771   5.334  0.3169 -0.1130  0.1114
26110W        W44314   4.263   2.322   2.826 -0.0655 -0.0387  0.2309
26111W        W44315  10.745  16.478   1.649  0.0650 -0.5644  0.0853
26112W        W44316  16.048   8.458   1.943  0.2403  0.0138 -0.0903
26113W        W44317  14.936  12.357  14.968 -0.0428 -0.0606 -0.0590
26114W        W44318  11.829  10.887  14.871 -0.1789 -0.3514  0.1027
26115W        W44319  11.083  10.602   3.710  0.3254  0.1518  0.4854
26116W        W44320  14.244  18.468  13.495  0.2530 -0.1330 -0.2404
26117W        W44321  14.463   3.709  13.000 -0.0863  0.1062 -0.0324
26118W        W44322   3.230   5.219  11.702  0.0782  0.0478  0.2408
26119W        W44323  10.772   1.415  12.569 -0.2588 -0.1733 -0.2287
26120W        W44324   9.593  10.931   1.477  0.2776 -0.2834 -0.1772
26121W        W44325  14.347  15.315   3.158 -0.1497  0.1750  0.1572
26122W        W44326  14.163  15.354   0.032 -0.1533  0.1019 -0.3267
26123W        W44327   1.852   0.584  14.912  0.6121  0.2524 -0.3525
26124W        W44328  14.941  10.978   1.974 -0.0451 -0.0733 -0.1546
26125W        W44329   1.450  12.889   0.152 -0.1475  0.1657 -0.0593
26126W        W44330   1.804  13.694   0.985  0.0464 -0.2475  0.1589
26127W        W44331  11.098   8.356   1.550 -0.1713  0.0046 -0.1321
26128W        W44332   4.424  14.726   2.748  0.0915  0.0675 -0.2858
26129W        W44333   7.246  14.142  10.733  0.0779 -0.0811 -0.2420
26130W        W44334   8.147   0.433  11.864  0.2394  0.0270 -0.2125
26131W        W44335   2.230   1.627   0.582  0.1152 -0.1302  0.2466
26132W        W44336   4.904  10.287   3.308  0.1134 -0.1427 -0.2793
26133W        W44337   0.380  11.806   2.362  0.0539  0.4511 -0.0166
26134W        W44338   6.506   6.651   4.136  0.2050  0.0620  0.3262
26135W        W44339   2.681  11.699  13.914  0.0733  0.0434  0.2156
26136W        W44340   5.153  15.648  14.981  0.0025 -0.2482 -0.3703
26137W        W44341  15.586  18.014   3.586 -0.2996 -0.1225  0.0421
26138W        W44342  11.335   5.717   5.579  0.0888  0.1281  0.0008
26139W        W44343  12.486   2.322  14.907  0.4196 -0.0133  0.0003
26140W        W44344   5.647   2.690   2.365 -0.4807 -0.1855  0.1867
26141W        W44345   2.648   6.871  14.463 -0.0275  0.1765 -0.1247
26142W        W44346   7.864   1.807  14.397 -0.0518 -0.0877  0.3444
26143W        W44347  11.044   4.086  13.883 -0.1151 -0.2528 -0.2729
26144W        W44348   1.788  18.443  13.487 -0.3843  0.1080 -0.3767
26145W        W44349  17.395   0.368   1.637  0.1773 -0.2331 -0.0498
26146W        W44350   8.005   0.585   0.718  0.4003  0.0466  0.1006
26147W        W44351  18.192  16.354  12.298 -0.0431 -0.0899 -0.2041
26148W        W44352  10.728   2.995   2.285 -0.2771 -0.0485 -0.1127
26149W        W44353  14.121   6.288  13.439 -0.0463 -0.1543  0.0778
26150W        W44354  18.112   5.863   4.242  0.1815 -0.2052  0.2079
26151W        W44355  14.764  18.636  14.859  0.0722  0.1543  0.3181
26152W        W44356   1.846  16.671   3.156  0.1046 -0.3455  0.0252
26153W        W44357   2.385   9.991  13.770  0.0367 -0.2022  0.4168
26154W        W44358   9.492  11.630   3.491 -0.1166 -0.1367 -0.2735
26155W        W44359  15.997   1.191   3.112  0.1787 -0.0773  0.0354
26156W        W44360   8.888   2.846  15.307 -0.1839 -0.2819 -0.1129
26157W        W44361  15.035  13.330   2.278  0.1153  0.1797  0.1117
26158W        W44362  16.187   1.148   5.073  0.1432  0.1662 -0.2486
26159W        W44363  13.941   0.405   1.794  0.3320 -0.1865 -0.1505
26160W        W44364  16.527   1.562   3.666  0.1296  0.0699 -0.1223
26161W        W44365   4.375  11.566  14.752  0.1525  0.1204  0.3085
26162W        W44366  15.536  12.176   1.178  0.2021 -0.0543  0.1275
26163W        W44367   7.094  16.223   0.328  0.0590  0.0864 -0.1618
26164W        W44368   5.619   8.610  12.651 -0.1104 -0.0431 -0.4999
26165W        W44369  10.719  13.941   1.982  0.3075  0.0606 -0.1130
26166W        W44370   1.912  13.549  13.167  0.2914 -0.1125  0.1547
26167W        W44371   7.191  17.242  14.702  0.0811 -0.3453  0.1207
26168W        W44372  13.940  16.648   3.073 -0.1474 -0.1214  0.1820
26169W        W44373   0.796   4.587  13.770  0.3168 -0.0249  0.2394
26170W        W44374  13.487  15.655   1.212 -0.0879 -0.2988  0.2525
26171W        W44375   2.698   4.310   1.437  0.0124  0.1425  0.0205
26172W        W44376  10.465   2.213   2.352  0.1571 -0.4118 -0.3560
26173W        W44377   9.468   6.744  11.600 -0.0243 -0.1584  0.0775
26174W        W44378   5.755   2.048  11.778  0.0970  0.0226  0.0175
26175W        W44379   6.254   6.342   3.365  0.0983 -0.3259  0.1879
26176W        W44380   3.829  16.137  13.579  0.1912 -0.1798  0.0919
26177W        W44381   4.694   3.953   2.069 -0.0836 -0.2835 -0.1940
26178W        W44382  10.343  18.030  13.906 -0.3928  0.0010  0.0605
26179W        W44383   4.949  17.595  14.566  0.1705 -0.0047 -0.2541
26180W        W44384  11.462  13.829   3.874 -0.0789 -0.0173  0.1208
26181W        W44385   3.413  12.746  13.471  0.0585  0.1304  0.4179
26182W        W44386  17.342   4.982  11.623 -0.1233 -0.2819  0.1901
26183W        W44387   3.351   2.310  11.739 -0.2532 -0.0329 -0.2432
26184W        W44388  10.659   4.648  11.086 -0.1240  0.0470 -0.5125
26185W        W44389   7.824  12.432   1.633  0.2029 -0.2852  0.1395
26186W        W44390   9.501  12.084   0.623  0.0204 -0.1151  0.1689
26187W        W44391   9.643   8.937  13.137 -0.0543 -0.1871  0.0855
26188W        W44392   8.431  16.294   9.981 -0.2854  0.0972  0.1184
26189W        W44393  15.180  14.350  13.451 -0.0307  0.0093  0.1823
26190W        W44394   4.826  10.622   0.753 -0.3617 -0.1669  0.0649
26191W        W44395   3.492   9.595   2.386  0.0624 -0.2171  0.0909
26192W        W44396   6.967   8.112   3.124  0.0738  0.2299 -0.2615
26193W        W44397  17.187   6.645   1.076  0.2347  0.1630 -0.2046
26194W        W44398   7.553  11.359   5.360 -0.3405 -0.1666  0.0521
26195W        W44399   3.252   5.128  11.222 -0.1074 -0.4022  0.2334
26196W        W44400   7.848   7.668   0.992 -0.2503 -0.2091  0.0896
26197W        W44401   6.084   4.144  12.670  0.1367  0.1456 -0.2309
26198W        W44402   0.844  13.118  12.956 -0.0262 -0.1149 -0.1275
26199W        W44403  14.332  16.001   3.392  0.0455  0.2219  0.3746
26200W        W44404  13.670   3.133  15.026 -0.0968  0.1000  0.1313
26201W        W44405  18.452   4.197   1.425  0.1036  0.1216 -0.1495
26202W        W44406  13.867   6.800  11.571  0.0276 -0.1751  0.0187
26203W        W44407  11.717  15.809   1.832  0.2238 -0.2021 -0.0050
26204W        W44408  11.524   7.983   4.223  0.1588 -0.1624  0.0572
26205W        W44409  10.259   7.872  13.590  0.0516 -0.0162 -0.3187
26206W        W44410   0.278   7.466   2.476 -0.3170  0.2135 -0.2200
26207W        W44411  17.811   6.740   3.647  0.1205  0.0300  0.3734
26208W        W44412  17.467  13.002  11.804 -0.2821  0.0659 -0.1129
26209W        W44413   4.747  17.621  13.223  0.1337 -0.0827 -0.1729
26210W        W44414   4.506   2.094   1.439 -0.0052  0.2784  0.3833
26211W        W44415  15.695  11.522  11.456  0.1000  0.0690  0.0657
26212W        W44416   1.308  17.844  11.346  0.2437 -0.0231 -0.0543
26213W        W44417  14.604  10.996   2.895  0.2507  0.1194 -0.1940
26214W        W44418  16.049  13.352   0.986 -0.0832 -0.1112  0.0975
26215W        W44419   4.197  18.250  11.316  0.5204  0.1962 -0.1159
26216W        W44420  13.471  16.861   2.956  0.1465  0.1611  0.1980
26217W        W44421   2.797  15.516  13.814 -0.1898  0.2177  0.1097
26218W        W44422  15.974   9.217  11.099 -0.0624 -0.2477 -0.0562
26219W        W44423   8.346  18.584   1.059 -0.0865 -0.0810  0.0164
26220W        W44424   7.604   7.305  15.061 -0.1120  0.3843 -0.1514
26221W        W44425   7.625  15.178  12.374 -0.1938 -0.0444 -0.0784
26222W        W44426   7.825  18.648  12.575 -0.3401  0.0820  0.4191
26223W        W44427  10.841  16.821  10.913  0.1734  0.1996 -0.0123
26224W        W44428  12.471  14.813  10.657  0.0460 -0.0084 -0.1565
26225W        W44429   7.455   3.105  14.765  0.1894  0.0830 -0.0860
26226W        W44430   3.905   6.326   2.445  0.1612  0.0047  0.1870
26227W        W44431  17.977  17.755   0.561  0.0451  0.1122 -0.0178
26228W        W44432   0.910  11.713   2.609  0.1675 -0.6041  0.1569
26229W        W44433  11.750   5.942   2.680 -0.1311  0.2129  0.2536
26230W        W44434  13.692  13.032  13.145 -0.0208  0.4335  0.1860
26231W        W44435  14.072   2.899   1.657  0.1791 -0.1202 -0.1048
26232W        W44436  17.151  13.973  11.545  0.1897 -0.1478  0.0470
26233W        W44437   3.216   5.618  14.082  0.0963 -0.0655 -0.0132
26234W        W44438   7.016  10.979  13.363  0.1615 -0.2739  0.1274
26235W        W44439   9.916   4.191   0.334  0.3148  0.3716  0.0693
26236W        W44440   3.483   4.051  15.437  0.0424  0.1141  0.0089
26237W        W44441  11.675   2.073  15.379  0.0434 -0.4057 -0.1989
26238W        W44442   6.345  10.740  12.544  0.1561  0.3997  0.2080
26239W        W44443  10.218   0.537  12.043  0.2340  0.1256 -0.3021
26240W        W44444   8.892  11.270  13.318 -0.1922 -0.0888  0.0860
26241W        W44445   9.985  15.584  11.082  0.1430  0.0864  0.2774
26242W        W44446  10.936   5.456   4.727 -0.0786 -0.0446  0.2326
26243W        W44447   6.245   4.871  13.111 -0.1451  0.2123  0.2505
26244W        W44448   3.053  10.153  14.728  0.0159  0.0764 -0.0724
26245W        W44449   2.398  17.919  12.049  0.2067 -0.0601  0.1039
26246W        W44450   6.957   5.573  12.986 -0.1533 -0.0104  0.0455
26247W        W44451   4.760  13.106   1.825  0.0159  0.3280  0.0451
26248W        W44452   8.498   3.699   0.827 -0.0838  0.3264  0.0814
26249W        W44453  15.767  12.501  11.691  0.1105  0.0951  0.2456
26250W        W44454  12.847  15.695  13.544 -0.1833 -0.1074  0.0896
26251W        W44455   2.910  18.206   1.140 -0.1726 -0.1532 -0.0237
26252W        W44456  15.587   6.689   0.095  0.1903  0.0922 -0.0407
26253W        W44457   2.030  14.458   2.935 -0.0811 -0.0580  0.1199
26254W        W44458  12.675  12.412  11.539 -0.1314 -0.3085  0.1580
26255W        W44459  13.994  16.357   0.314  0.1749 -0.1786 -0.2069
26256W        W44460   5.625  11.619   2.186 -0.2445 -0.0289 -0.2463
26257W        W44461  10.130   5.841   1.125  0.1937  0.0692  0.1071
26258W        W44462   7.385  13.613  14.027  0.0987 -0.0947  0.2004
26259W        W44463   3.347  14.977  12.193  0.0820 -0.0165 -0.3449
26260W        W44464  10.878  15.448   1.548  0.0347  0.1164 -0.1566
26261W        W44465  14.150   4.643  12.910  0.1325  0.4031  0.2618
26262W        W44466  10.913   2.136  11.968  0.0381  0.1097 -0.1005
26263W        W44467   1.396   8.465  14.971 -0.0230  0.4302  0.0943
26264W        W44468   7.095   4.982  15.179 -0.2222  0.2887 -0.0020
26265W        W44469   2.242   4.259  13.607  0.1690 -0.5534  0.3290
26266W        W44470   1.354   0.214  11.888  0.1238  0.0569 -0.0610
26267W        W44471  10.464   4.544  11.533 -0.1616 -0.1338 -0.1064
26268W        W44472  12.724   5.473   1.216 -0.3263  0.3091 -0.0311
26269W        W44473   1.487  11.071   0.025  0.1936 -0.2341  0.2204
26270W        W44474  17.918  14.672   0.665  0.1803 -0.0150  0.0149
26271W        W44475   0.719  16.860  14.093 -0.0758 -0.0669  0.0119
26272W        W44476  11.944   7.738   4.251 -0.0710 -0.3704  0.0716
26273W        W44477   1.494   8.838  13.846 -0.1065 -0.1908 -0.0312
26274W        W44478   2.979  14.464   0.568 -0.3229 -0.0489  0.1625
26275W        W44479   1.111   0.506   3.797 -0.4572 -0.0003  0.1201
26276W        W44480   5.026   1.943  11.766 -0.1183 -0.1264  0.0472
26277W        W44481  16.710   2.748  12.022 -0.0384 -0.0224  0.2045
26278W        W44482  11.743   5.111   0.953  0.1082  0.0205 -0.1894
26279W        W44483  16.872  11.845  14.076 -0.7067  0.6412 -0.0778
26280W        W44484  15.275   8.523  14.533 -0.0959 -0.1370 -0.1989
26281W        W44485  15.707   2.760  13.376 -0.0416  0.2203  0.1595
26282W        W44486   4.047   0.278  14.072  0.0641  0.0618  0.0463
26283W        W44487  15.414  11.082   0.951  0.0176 -0.1611 -0.0034
26284W        W44488  10.582   4.338   3.133  0.0799 -0.0307 -0.2470
26285W        W44489  13.135   2.107   3.026 -0.0325 -0.0739 -0.1695
26286W        W44490   4.875  14.893   1.892  0.2939  0.0493 -0.1020
26287W        W44491   7.723   1.314  13.654 -0.2690  0.1090  0.1983
26288W        W44492   1.423   3.820   3.464  0.0367  0.0476  0.0301
26289W        W44493   9.823  13.427  15.220  0.1517  0.0554  0.3177
26290W        W44494  18.512   4.541  13.523 -0.1332 -0.1826 -0.0122
26291W        W44495   4.044  15.157   3.952  0.1135 -0.3757 -0.0270
26292W        W44496   7.977   7.810   1.719 -0.0584 -0.2150 -0.2343
26293W        W44497  14.542  13.081   1.156  0.1381 -0.1439 -0.0854
26294W        W44498   4.201  17.430  13.368 -0.2011 -0.0267 -0.0001
26295W        W44499  12.009  10.969   0.391  0.0951 -0.0264  0.0269
26296W        W44500   7.642  17.219   1.121  0.1596 -0.0054  0.1047
26297W        W44501   5.860   2.547  12.798 -0.1042  0.0622  0.1202
26298W        W44502   5.107   1.820   1.059  0.3970 -0.1919  0.0525
26299W        W44503  17.335   0.345  12.198 -0.1774  0.0149 -0.1964
26300W        W44504  12.468   6.628  13.713  0.2775  0.4116  0.2119
26301W        W44505  11.916   7.506   4.820 -0.1256  0.1221 -0.1293
26302W        W44506  16.142  11.669  13.907 -0.2659 -0.0405 -0.0188
26303W        W44507   8.300  16.307  10.965 -0.0853 -0.1748 -0.3072
26304W        W44508  13.868   0.347  13.557 -0.1449  0.1235  0.0545
26305W        W44509  10.443   4.251  12.893 -0.0373  0.5222 -0.2564
26306W        W44510   6.126  16.710   3.685 -0.3190  0.0717 -0.0472
26307W        W44511   8.002   7.576   0.516 -0.0544  0.2041 -0.1703
26308W        W44512   4.469  17.297  10.511 -0.0896  0.3244 -0.2428
26309W        W44513   9.871  13.962  12.229 -0.3684 -0.2384  0.2413
26310W        W44514  16.463   8.234  12.617  0.0493 -0.1085 -0.0979
26311W        W44515  18.380  15.008  11.026 -0.0297  0.1134  0.0817
26312W        W44516  16.100   8.597   0.028 -0.0515  0.3091  0.4844
26313W        W44517   5.431   5.740   1.392  0.3869  0.0620 -0.2441
26314W        W44518   6.860  10.055   0.029 -0.0297 -0.3271 -0.3105
26315W        W44519   2.505  15.832   3.241 -0.5139  0.0856  0.0466
26316W        W44520  14.791  13.791  14.706 -0.1459 -0.2805 -0.0916
26317W        W44521  17.518   6.648   4.639  0.1008 -0.0834 -0.0674
26318W        W44522  11.520  11.887  13.358 -0.0574  0.0196  0.0327
26319W        W44523   1.070   7.100   4.966  0.1525  0.2501  0.0117
26320W        W44524   9.957   6.621  11.694 -0.0228 -0.0698 -0.3904
26321W        W44525  13.541  12.129   4.413  0.0679 -0.0104 -0.1159
26322W        W44526   1.280   5.898  14.168 -0.3910 -0.1749 -0.0839
26323W        W44527   8.902   5.320   4.476 -0.0215  0.1381  0.2802
26324W        W44528  13.409   9.756  11.978  0.3614 -0.2547  0.1921
26325W        W44529   0.455  14.931  11.992 -0.1555 -0.2037 -0.3076
26326W        W44530   8.700   4.970   1.769 -0.0824  0.1559  0.0312
26327W        W44531   1.217   6.376  13.462  0.1145 -0.2790 -0.0158
26328W        W44532  15.269   6.023  13.785  0.0586 -0.1342 -0.0455
26329W        W44533  14.677  17.014   1.814  0.0433 -0.3508 -0.0655
26330W        W44534  17.346   1.073   2.981  0.2464  0.3718  0.0754
26331W        W44535  11.428   1.881   0.879 -0.1318  0.0833  0.2819
26332W        W44536   7.922  17.108  11.506  0.2216 -0.1366  0.1724
26333W        W44537   4.179  11.162   2.814  0.2603 -0.2676  0.0707
26334W        W44538   7.925   6.778   3.837 -0.1743 -0.0060 -0.1088
26335W        W44539  14.288  11.844  13.474  0.1398  0.1880  0.1009
26336W        W44540   9.197  16.493   0.794 -0.0591  0.1197 -0.1971
26337W        W44541  13.637  10.833   0.068 -0.1367 -0.0753  0.0857
26338W        W44542   4.272  15.013   4.393 -0.1676 -0.0338 -0.0070
26339W        W44543   8.011  15.506  12.087  0.5379  0.2527 -0.3324
26340W        W44544  18.172   9.862   3.746  0.0415 -0.1231  0.1021
26341W        W44545  15.516   1.793   4.452  0.1040 -0.2011  0.2171
26342W        W44546   7.241   8.694  12.590 -0.2047 -0.2226  0.2617
26343W        W44547   6.977  17.073  11.483  0.1728  0.2604  0.0263
26344W        W44548  11.020  17.347  15.095 -0.1532 -0.1841  0.1618
26345W        W44549   1.168   3.580  11.829 -0.3568 -0.0465  0.1238
26346W        W44550  16.749   0.637  13.012  0.2244  0.1990  0.3057
26347W        W44551  17.534  16.486   2.507 -0.1161  0.2044  0.3085
26348W        W44552   4.074   1.065  11.076 -0.0643 -0.1945 -0.1982
26349W        W44553  10.199   1.665   4.123  0.3645  0.2814  0.0377
26350W        W44554   2.114  15.905  14.630  0.3970 -0.2111 -0.2203
26351W        W44555   5.101  18.041  12.709 -0.1220  0.3087 -0.2042
26352W        W44556  12.508   3.219   4.624 -0.1928  0.1723 -0.2688
26353W        W44557   0.402  13.960  14.637  0.0360 -0.0479 -0.1843
26354W        W44558  14.885   5.312  10.495  0.3817  0.1575 -0.1014
26355W        W44559   1.856   1.203   0.627  0.3024 -0.1254 -0.0502
26356W        W44560  13.192  15.294  13.899  0.1619  0.2154 -0.0211
26357W        W44561  18.298  18.148   0.750 -0.0371  0.2556 -0.1368
26358W        W44562   3.714   0.653   2.038 -0.0765  0.4633  0.5180
26359W        W44563   2.749  15.064   2.237  0.2955  0.0557 -0.0554
26360W        W44564  13.613   6.839   2.421  0.4048 -0.3538 -0.1749
26361W        W44565   5.183  14.969   1.524 -0.2981 -0.1025  0.1341
26362W        W44566  12.926   3.780  10.737  0.0449 -0.2839 -0.0550
26363W        W44567  13.513   4.341   3.427  0.1112 -0.0428  0.2046
26364W        W44568   0.771  10.880  13.716  0.0816  0.0928  0.0920
26365W        W44569   7.796  12.852   1.906 -0.1904 -0.1061  0.3463
26366W        W44570  18.121  10.789  13.978  0.0335 -0.3679 -0.0024
26367W        W44571  18.486  13.070   0.037 -0.2697 -0.2682 -0.0448
26368W        W44572  16.455   3.327  14.722 -0.2598 -0.0996 -0.3307
26369W        W44573  15.261  15.703   0.470  0.1628  0.0812 -0.2200
26370W        W44574   8.629   0.848   2.056 -0.0598 -0.2104 -0.0247
26371W        W44575  15.331   3.946   0.903 -0.0490 -0.3514 -0.0473
26372W        W44576  14.205  16.856   4.143  0.2373 -0.0582 -0.0738
26373W        W44577   8.528   1.854   3.275 -0.0907  0.0019  0.0799
26374W        W44578  17.460   7.155   2.290 -0.0762  0.0486 -0.1741
26375W        W44579  13.725   0.689   2.982  0.0063  0.4118  0.0047
26376W        W44580  14.246  16.973  14.582  0.3549 -0.0924  0.1225
26377W        W44581  17.778   1.185   0.489 -0.0091  0.1050  0.0375
26378W        W44582   6.795   3.497   1.464  0.2739 -0.2496  0.0338
26379W        W44583   8.339  13.937   4.416 -0.1426 -0.1681  0.0342
26380W        W44584  15.745   2.263   4.379 -0.1259 -0.1640  0.1061
26381W        W44585  16.151   6.752  12.196 -0.2032 -0.1976  0.1508
26382W        W44586   8.255   0.694   3.908 -0.0382  0.0629  0.0045
26383W        W44587  12.302  10.830  14.454 -0.0072  0.5015 -0.4038
26384W        W44588   8.556   1.258  11.576  0.0014  0.2440 -0.2099
26385W        W44589   5.038   9.785  15.356 -0.2957  0.1335 -0.0207
26386W        W44590   2.814   5.247  14.098 -0.2813  0.1276 -0.2544
26387W        W44591  13.189   5.438   0.481  0.2776  0.1380 -0.0519
26388W        W44592   0.265  14.337  10.777  0.0004  0.1221 -0.1436
26389W        W44593  10.808   6.554   4.267 -0.0787  0.2321  0.0092
26390W        W44594  16.732  17.686   4.182 -0.0228 -0.1518 -0.3077
26391W        W44595   7.083  16.711   1.435 -0.2446  0.3626  0.0353
26392W        W44596   4.383  14.408   2.265 -0.1672  0.1763  0.3388
26393W        W44597   5.716   7.886  14.705 -0.0017 -0.0476 -0.2193
26394W        W44598   0.369   9.257  11.589  0.0869  0.1448  0.1555
26395W        W44599   8.989  12.657  11.154 -0.0790  0.0501 -0.1222
26396W        W44600   4.447  11.797  13.184 -0.0781  0.0672 -0.0534
26397W        W44601   9.681   6.668   0.224  0.1015 -0.0198 -0.0632
26398W        W44602  18.126  13.345   1.538 -0.1814  0.0386 -0.0140
26399W        W44603  15.282   7.049   3.319 -0.1258  0.3214 -0.0248
26400W        W44604  16.220   7.767  13.594  0.3221 -0.0956 -0.0377
26401W        W44605   2.465  12.017  10.765  0.0011 -0.2814 -0.0232
26402W        W44606  17.917   9.670   1.081  0.0440  0.0214 -0.2177
26403W        W44607  13.312   7.106   3.647 -0.1869 -0.0881  0.0940
26404W        W44608   9.456  12.883  10.953 -0.2062  0.0246 -0.1626
26405W        W44609  10.102   9.460   0.766  0.1173 -0.1930 -0.0415
26406W        W44610   6.047   0.459  10.355  0.1597  0.0723  0.1571
26407W        W44611  16.568  15.888   2.825  0.2326 -0.0281  0.2731
26408W        W44612   1.109  11.991  14.825 -0.0257 -0.2169 -0.2032
26409W        W44613  13.464   6.364  12.227  0.0518 -0.3229 -0.0045
26410W        W44614   4.227  17.943  12.884 -0.0235 -0.2521  0.0616
26411W        W44615   3.466   0.742  15.459  0.0834 -0.2394  0.0491
26412W        W44616  13.389  10.101   3.701  0.1974  0.2797 -0.2340
26413W        W44617   1.316   3.514   0.161  0.0117 -0.0187 -0.0633
26414W        W44618   2.817  10.551   2.240 -0.0105  0.3516  0.1289
26415W        W44619  17.225   6.105   0.834  0.4930  0.1046 -0.0363
26416W        W44620   4.294   6.356  11.210 -0.2382  0.2505 -0.0221
26417W        W44621   5.420  13.848  12.386  0.4437 -0.0869 -0.0230
26418W        W44622   5.667   6.339   0.709 -0.2370  0.1049  0.0442
26419W        W44623  15.605   8.462  13.574  0.1323 -0.1427 -0.0347
26420W        W44624  10.985   7.339   0.676 -0.0104 -0.0092  0.1134
26421W        W44625   0.713   7.443   1.926 -0.2509  0.1052 -0.0658
26422W        W44626  14.150  12.165   2.795 -0.1152  0.0599  0.2076
26423W        W44627   4.326  10.971   1.015 -0.0980  0.0791 -0.3415
26424W        W44628   5.050  10.874  13.997  0.1269  0.0823  0.2719
26425W        W44629   6.876   6.190  13.305 -0.4385 -0.1425 -0.0364
26426W        W44630   9.215   8.062  12.731 -0.1431 -0.0847  0.0351
26427W        W44631   1.516  15.913  11.440  0.0610 -0.1397 -0.0632
26428W        W44632  13.845   8.999   2.966  0.0237  0.1384 -0.0353
26429W        W44633  12.047  15.942  12.083  0.1238 -0.1513 -0.5109
26430W        W44634  11.539   3.159  12.543 -0.0428 -0.0885 -0.3167
26431W        W44635  15.785   2.023  14.282 -0.0159 -0.1046 -0.0738
26432W        W44636   6.644   7.481  10.644 -0.1199  0.1091  0.0455
26433W        W44637  10.995  15.099  14.663  0.2271  0.3406 -0.3201
26434W        W44638  15.134   3.991  11.986 -0.0027 -0.0079  0.1355
26435W        W44639  13.274  14.560   0.398 -0.4940 -0.2070 -0.2910
26436W        W44640  12.296   4.589   2.566 -0.1934 -0.2257  0.3051
26437W        W44641   8.316  18.342  15.430 -0.0750 -0.0429  0.0131
26438W        W44642  17.931   2.594   1.232 -0.1605 -0.3455 -0.4495
26439W        W44643   9.283   8.479   4.273 -0.0578 -0.0982 -0.1874
26440W        W44644   5.862   8.236   0.681  0.0639 -0.1495  0.0155
26441W        W44645  18.609  17.850  14.232 -0.0747  0.0697  0.0683
26442W        W44646   5.531   3.439  14.919 -0.1236 -0.1619 -0.1010
26443W        W44647  16.265  15.785  10.715 -0.3718 -0.0721  0.1687
26444W        W44648   1.462   8.344   5.283  0.2279 -0.1122  0.0361
26445W        W44649  15.632  18.139   1.884 -0.2564  0.0837 -0.0499
26446W        W44650   6.955  10.990  14.526 -0.2253 -0.2592  0.0680
26447W        W44651   0.310  10.149  10.975  0.1402  0.0928 -0.1952
26448W        W44652  12.961   7.484   4.444 -0.1183 -0.0144  0.1269
26449W        W44653   8.285   3.011  13.390  0.1970  0.0338  0.0506
26450W        W44654  18.298  13.847  13.751  0.1456  0.0548 -0.0290
26451W        W44655   7.778  15.802  11.701  0.0378 -0.0504 -0.0857
26452W        W44656  17.618  18.275  11.681  0.2774 -0.1743  0.0211
26453W        W44657  10.089   3.764   0.854  0.0484  0.2367 -0.1455
26454W        W44658  16.586  12.607   2.839 -0.0607 -0.1858 -0.0120
26455W        W44659   8.361  10.855  14.170  0.1315  0.0325  0.0667
26456W        W44660   6.717  11.476  14.789 -0.2967 -0.0260  0.2918
26457W        W44661  17.800   3.338   0.652 -0.1747 -0.0216 -0.0340
26458W        W44662  15.622   6.265   2.091  0.0497  0.3108 -0.1513
26459W        W44663  13.916  15.257  14.589 -0.3533  0.4075 -0.1030
26460W        W44664   0.446   7.895  14.049  0.1161  0.1692  0.0590
26461W        W44665   0.217   5.704  15.248  0.0432  0.5999 -0.0230
26462W        W44666  17.008  18.005   2.917  0.1693  0.1502  0.2638
26463W        W44667   0.952   6.491   2.421  0.0106 -0.4068 -0.0371
26464W        W44668   8.943   5.213  13.253  0.0313  0.0188 -0.0893
26465W        W44669  14.618   0.261   1.478 -0.2550  0.1662 -0.1776
26466W        W44670   8.035   2.946  12.957  0.0285 -0.0033 -0.1082
26467W        W44671   6.851  10.568  14.341 -0.0017 -0.0077 -0.0049
26468W        W44672  15.182  16.587   1.866 -0.2501 -0.0078  0.1073
26469W        W44673  13.777   7.006  15.452 -0.3581 -0.3101 -0.0144
26470W        W44674   4.289  10.912  11.177 -0.2603  0.0699  0.2037
26471W        W44675  16.718   5.588   4.081  0.2973 -0.2566 -0.0338
26472W        W44676   0.251  14.161   2.869  0.4568  0.0149 -0.0632
26473W        W44677   5.131  16.958  11.491  0.1611 -0.0982  0.0833
26474W        W44678  13.526  12.813  12.722 -0.1235  0.2531  0.0415
26475W        W44679   4.389  14.694  14.498 -0.0627 -0.0592 -0.0494
26476W        W44680   5.791   9.287  14.807  0.0846 -0.2581  0.0557
26477W        W44681  15.679  11.781   5.413  0.1272  0.2226 -0.1998
26478W        W44682  11.039   0.128   3.597  0.1767 -0.1931 -0.1698
26479W        W44683  13.176  11.211  14.943  0.1505  0.1279  0.1209
26480W        W44684  13.532  15.452   0.608  0.2773 -0.4017  0.0082
26481W        W44685   5.986  11.923   0.309 -0.0137  0.1153 -0.0708
26482W        W44686  12.385  10.133   2.985  0.0121  0.3329  0.3165
26483W        W44687  18.683  10.109  14.064  0.1266  0.0721 -0.0993
26484W        W44688  16.206   5.143   1.973 -0.0227  0.3357  0.1869
26485W        W44689  13.756  15.703  11.665  0.0577 -0.1243 -0.1809
26486W        W44690   4.776   7.627   3.696  0.1572 -0.0359 -0.1936
26487W        W44691  11.455  12.322  10.936  0.2003  0.2806 -0.2421
26488W        W44692  17.365   8.077   5.783  0.1722 -0.0896 -0.0107
26489W        W44693  16.823  14.916  13.883  0.1654  0.3355  0.0588
26490W        W44694   6.131  16.550   0.225 -0.1221 -0.0498 -0.0609
26491W        W44695   0.396  12.397   3.665 -0.2249  0.2470 -0.1704
26492W        W44696   5.144   7.407   3.982  0.1654  0.2292  0.2427
26493W        W44697  16.725   7.215  13.109 -0.1339  0.0322 -0.1459
26494W        W44698  17.747  10.460  13.774 -0.5118 -0.1860  0.2866
26495W        W44699   8.368  15.373  13.050  0.0469  0.3568  0.2629
26496W        W44700   0.834   8.072   3.920  0.2036  0.0101 -0.2312
26497W        W44701  15.659   1.809   2.333  0.0811  0.0185 -0.4283
26498W        W44702  18.455  15.938  11.027  0.0619  0.0036  0.0870
26499W        W44703  13.502  12.669  14.059 -0.0302  0.0059 -0.0448
26500W        W44704  18.222   1.998   3.542 -0.1566 -0.4651  0.2296
26501W        W44705  16.793   0.244  11.392  0.3534 -0.1406 -0.0169
26502W        W44706   7.237   2.002   2.374  0.2370  0.1303 -0.0329
26503W        W44707  10.014   7.560  12.839  0.0350 -0.0165  0.0393
26504W        W44708  10.295   8.565   1.887 -0.0669  0.1677  0.0721
26505W        W44709   9.624  16.730  14.491 -0.1092 -0.0103  0.4488
26506W        W44710  16.147  11.183  13.490 -0.3406 -0.0314  0.1814
26507W        W44711  10.388  12.438  12.912  0.1146 -0.0287 -0.2893
26508W        W44712  14.474   4.943  13.124 -0.2399 -0.1292  0.0614
26509W        W44713  15.267   6.278   0.092  0.3122 -0.2083 -0.0052
26510W        W44714  18.280   5.005   2.435 -0.1095  0.1710 -0.0540
26511W        W44715   1.534   2.398  14.467 -0.1568  0.0253  0.0562
26512W        W44716   2.405   0.836  12.260 -0.1481 -0.0284  0.1105
26513W        W44717  16.145  12.188  13.333  0.1374 -0.3860  0.0856
26514W        W44718   1.910  13.831  13.563  0.1337 -0.2584 -0.0350
26515W        W44719  13.663  13.905   3.228 -0.0821 -0.4284 -0.2001
26516W        W44720   2.501  12.520  10.709  0.2285 -0.0296  0.3533
26517W        W44721   4.253   9.355   5.146 -0.0536 -0.0815 -0.4545
26518W        W44722   7.780  16.626   0.268 -0.2339 -0.0035  0.1664
26519W        W44723  16.687  15.145  12.031 -0.2303 -0.3238  0.4012
26520W        W44724  14.028   6.094  13.886 -0.0745  0.0544  0.2715
26521W        W44725   1.610   6.629  12.005  0.0518  0.0728 -0.3803
26522W        W44726  10.214   8.933  14.715 -0.2117 -0.4126 -0.2133
26523W        W44727   7.549  12.043  12.197 -0.0267 -0.0071  0.0714
26524W        W44728   7.939  14.417  12.156 -0.4788  0.1957 -0.1195
26525W        W44729   7.831   1.908   0.143  0.1877 -0.0052  0.0008
26526W        W44730   1.049   6.179   3.724 -0.1300 -0.2312 -0.0241
26527W        W44731   4.616  18.180  12.554 -0.3012 -0.0121  0.3806
26528W        W44732   0.443  15.025   2.561  0.1145 -0.2618  0.0594
26529W        W44733  18.430   0.474  13.935 -0.0647 -0.2491  0.3462
26530W        W44734   1.583  16.180   3.843  0.2367 -0.0512 -0.3004
26531W        W44735   1.404   4.905  14.262 -0.1375  0.0823  0.1017
26532W        W44736  14.130  14.295  11.608 -0.2109 -0.1110  0.1114
26533W        W44737   8.300   1.443  11.943  0.1768  0.0016 -0.2300
26534W        W44738  11.778  17.982  10.022  0.5249 -0.3697  0.0223
26535W        W44739  12.154   2.809   0.312 -0.2327 -0.0897 -0.0725
26536W        W44740  13.467  10.384  12.561  0.2202 -0.2206 -0.1690
26537W        W44741  14.282  13.142  10.689  0.1271 -0.3994 -0.3049
26538W        W44742   9.483   9.067   3.529  0.2585  0.0437  0.0129
26539W        W44743   5.479  17.441  12.164  0.3400  0.3645 -0.0948
26540W        W44744  10.773   4.253  12.460 -0.2612  0.0294 -0.0440
26541W        W44745   4.541  18.503  12.053 -0.1791  0.1680 -0.3183
26542W        W44746  16.282  18.579   3.850 -0.1057  0.0325 -0.2030
26543W        W44747  11.610   1.243   2.784 -0.2703 -0.0389  0.0391
26544W        W44748  15.042   1.202   3.866 -0.0404  0.2341 -0.1334
26545W        W44749   1.332  14.978   2.431  0.1364  0.1738 -0.2275
26546W        W44750   2.964   5.374  13.239 -0.0738 -0.1096 -0.1645
26547W        W44751  16.007  14.336  14.415  0.5393 -0.0283  0.1215
26548W        W44752  11.189   5.232  12.083 -0.0149  0.1157 -0.0974
26549W        W44753  11.359   0.274  14.673  0.0178 -0.2155 -0.0312
26550W        W44754  14.469   1.781   1.029  0.0876  0.1417 -0.0835
26551W        W44755  14.834   4.426   4.055  0.4773  0.1743  0.2733
26552W        W44756   1.790  16.844   4.292 -0.0975 -0.0100 -0.2765
26553W        W44757  18.096   4.291   0.023  0.2435  0.0149 -0.0792
26554W        W44758  13.646  14.039  13.394 -0.2526 -0.0045 -0.0564
26555W        W44759  18.266   9.575  15.434 -0.2049  0.2545 -0.0257
26556W        W44760  11.324   2.990  15.288  0.0814  0.0135 -0.1763
26557W        W44761  17.938   3.550   1.766  0.0939 -0.0986 -0.0468
26558W        W44762  13.222   4.414  11.354 -0.0884 -0.0025 -0.2132
26559W        W44763   8.781   0.403   2.244  0.0072  0.0978 -0.0064
26560W        W44764   0.783   6.896  10.342  0.2217  0.0286 -0.2407
26561W        W44765  13.493   1.150  13.410 -0.3509 -0.0993 -0.2858
26562W        W44766   0.778  12.594  14.288 -0.2087 -0.0619 -0.1472
26563W        W44767  14.889  11.175  11.678 -0.1235 -0.0217  0.0291
26564W        W44768  16.411   8.592   1.171 -0.1266  0.1551  0.3163
26565W        W44769  12.572  10.431  12.417  0.0826  0.2665  0.0575
26566W        W44770  11.515  14.875  14.723 -0.1319 -0.1697  0.1775
26567W        W44771   6.076  11.327  15.023 -0.0186  0.1056  0.3324
26568W        W44772   2.014   6.648   1.484  0.3129 -0.3052 -0.2311
26569W        W44773   1.180  13.915  12.230  0.1319  0.1155  0.3539
26570W        W44774  12.092  14.596   3.771  0.1191 -0.6499  0.2409
26571W        W44775  11.428  18.540   2.943  0.0363  0.0782 -0.1149
26572W        W44776  11.148   8.429   0.491 -0.0737  0.2071 -0.0040
26573W        W44777  16.470   6.286   1.727 -0.0227 -0.0109 -0.1530
26574W        W44778   8.861   5.401  12.274  0.2564 -0.1214  0.1123
26575W        W44779  13.553   4.690   1.161  0.2753 -0.0737 -0.0144
26576W        W44780  18.465   8.497  11.825  0.2859  0.1259 -0.0527
26577W        W44781   7.678   8.054   4.374  0.0351 -0.1860 -0.2598
26578W        W44782  16.024  10.247   0.359 -0.2231  0.1838  0.2442
26579W        W44783   7.341  13.131   4.097 -0.0141  0.0582  0.0057
26580W        W44784   3.788  15.029   4.540  0.2015 -0.0798  0.1845
26581W        W44785  12.635   3.887   2.684 -0.2699  0.1203 -0.2025
26582W        W44786   4.615  15.327   4.115  0.0226 -0.1053  0.2649
26583W        W44787  13.618   4.257  14.495  0.0689  0.2576  0.2670
26584W        W44788  12.785   8.142   5.520 -0.0804  0.0866  0.1176
26585W        W44789  14.582   9.702   5.671 -0.0486  0.1426 -0.2882
26586W        W44790   9.853  14.818   1.217  0.2216  0.1606 -0.1116
26587W        W44791   1.116  18.298  11.226  0.4121  0.2117 -0.1791
26588W        W44792  11.119  17.577  14.491 -0.1416  0.0656  0.1599
26589W        W44793   2.262  12.430  11.802 -0.2116 -0.0491  0.0442
26590W        W44794  15.875   0.110   9.952 -0.2238 -0.1596  0.2223
26591W        W44795   2.620   8.320  14.517 -0.1580 -0.3704 -0.1816
26592W        W44796   2.671   6.136  12.662 -0.1955  0.1573  0.1208
26593W        W44797  14.050  12.804  10.332 -0.1111 -0.0034 -0.1382
26594W        W44798   3.952   7.601  14.047  0.2199  0.3090  0.0560
26595W        W44799  11.948  16.562   2.130  0.0574  0.0471  0.2809
26596W        W44800  14.177  14.417   4.444  0.1536 -0.1056 -0.0523
26597W        W44801   4.725  10.567  12.048  0.0078 -0.1259  0.0954
26598W        W44802   4.511  11.270  11.710 -0.2492  0.0563  0.1459
26599W        W44803  16.664  14.334  13.629 -0.1247  0.2593  0.1449
26600W        W44804  18.436  10.818  13.061 -0.0633  0.1755 -0.2309
26601W        W44805  17.731   8.444  12.988  0.0074  0.4865  0.1216
26602W        W44806  18.568   1.905  12.748 -0.0245  0.1559  0.2956
26603W        W44807  10.033   0.902  15.394  0.3212  0.1296 -0.2265
26604W        W44808  16.063   3.491   2.002  0.2219  0.2580 -0.0214
26605W        W44809  18.052  12.494  13.428  0.0103  0.0214 -0.0509
26606W        W44810  15.267  14.357   3.444 -0.0664  0.0034 -0.3800
26607W        W44811  13.194   9.054  13.434 -0.0981  0.1508 -0.1337
26608W        W44812  15.862  13.883  13.877  0.1345  0.1487 -0.3312
26609W        W44813  17.883   3.027  13.143  0.0246  0.1152  0.0280
26610W        W44814   6.216  15.961  15.077 -0.1619 -0.2749 -0.1223
26611W        W44815   7.907   3.575   1.420 -0.2331 -0.3395  0.0343
26612W        W44816  12.956   1.698   1.008 -0.1558 -0.2709 -0.0794
26613W        W44817   1.202  12.637   2.443 -0.1268 -0.1458  0.0574
26614W        W44818  13.905  13.430  12.165 -0.2465  0.1701 -0.1211
26615W        W44819   7.732   2.841  12.465  0.1671  0.1333 -0.2823
26616W        W44820   2.423   4.024  11.670  0.0568  0.0699  0.1240
26617W        W44821   3.127   5.773  14.822 -0.0926 -0.2110 -0.0803
26618W        W44822  11.114  10.094   2.318 -0.2155  0.2281  0.0075
26619W        W44823   3.334   2.986   2.467  0.3827  0.0932  0.4812
26620W        W44824  13.658   5.203   3.307 -0.4046  0.2546  0.2058
26621W        W44825  13.864   6.778  14.355  0.1417  0.0869 -0.3170
26622W        W44826  16.887   7.544  14.029  0.0974  0.1346  0.2059
26623W        W44827   5.655   6.052   2.099  0.2481  0.0673  0.1237
26624W        W44828  15.734  15.282  11.981  0.1764  0.2854 -0.2443
26625W        W44829  11.945   9.325   2.557 -0.2822 -0.0698 -0.1059
26626W        W44830   1.532   6.778   1.547  0.4006 -0.0876 -0.0600
26627W        W44831   9.801   6.203   2.368 -0.2275 -0.0070  0.1458
26628W        W44832   8.756  16.004  11.649  0.0482 -0.0701 -0.0942
26629W        W44833  14.424   9.363  15.152 -0.0430 -0.0945 -0.4274
26630W        W44834  11.014  13.479   1.016  0.0043  0.1148 -0.0978
26631W        W44835  14.127   4.430   0.042 -0.3941 -0.2652  0.1859
26632W        W44836  11.388  13.486   2.549 -0.0742 -0.2575  0.2624
26633W        W44837   6.512   4.903  12.246  0.0854 -0.0561  0.1023
26634W        W44838  10.217   4.993   1.011  0.1851 -0.0893  0.3375
26635W        W44839   7.488  18.378  13.977  0.1489  0.0084  0.0975
26636W        W44840   9.052  17.436  14.536  0.1339 -0.1318 -0.0654
26637W        W44841   6.797  14.049   3.752 -0.3089 -0.1051  0.1085
26638W        W44842   0.182  11.655  15.296 -0.0886 -0.0444 -0.2790
26639W        W44843   6.175  14.503   2.928 -0.0408  0.0202  0.2415
26640W        W44844   9.097  16.326  14.947  0.1147  0.1971  0.1824
26641W        W44845   1.889   1.128  11.004 -0.0816 -0.0179  0.1347
26642W        W44846   4.198   8.998  12.076 -0.1835  0.1639 -0.1230
26643W        W44847   5.427  14.488   4.234 -0.0612  0.3989 -0.1038
26644W        W44848   7.709   2.689   0.077 -0.0484 -0.2547 -0.1860
26645W        W44849  16.072   6.428   3.346 -0.1386 -0.2373 -0.1393
26646W        W44850  18.013  14.135   2.558  0.0211 -0.1247  0.1654
26647W        W44851   1.742  18.123  13.155 -0.1535 -0.0084  0.1401
26648W        W44852  17.592  17.959   5.197  0.3606 -0.1990  0.1155
26649W        W44853   5.873   5.506  12.753  0.1867  0.2119 -0.3608
26650W        W44854   0.281   0.455  13.872  0.1051 -0.0867 -0.2897
26651W        W44855  13.287   5.050  10.855  0.2556 -0.1922 -0.1645
26652W        W44856  18.640  12.068   2.160 -0.0901  0.0827  0.0003
26653W        W44857  13.154   7.989  12.717 -0.1591 -0.1300 -0.0546
26654W        W44858   8.472   3.933  14.823  0.0116  0.2943  0.0114
26655W        W44859   9.131  10.680  14.727 -0.0500  0.2301 -0.0615
26656W        W44860  13.926   9.380   2.073 -0.3867  0.1676  0.0285
26657W        W44861   1.423   1.337  11.723 -0.3010  0.2034 -0.1505
26658W        W44862  15.888   9.805   2.797  0.0437  0.1919  0.2533
26659W        W44863  16.993   3.915   0.677 -0.0193 -0.0139  0.0264
26660W        W44864   2.471  16.139  14.845  0.1678  0.0191  0.1526
26661W        W44865   6.795  15.386   1.622 -0.1972  0.0416  0.0651
26662W        W44866   0.917   4.297  12.681 -0.1526  0.1088 -0.2113
26663W        W44867   6.389   8.491   1.782  0.0114  0.0293  0.1653
26664W        W44868   0.700   3.351  13.508 -0.3272 -0.0868 -0.2334
26665W        W44869   5.918   9.239   2.079  0.0865 -0.0404  0.5137
26666W        W44870  14.118   1.030   1.377 -0.2516 -0.1389  0.1617
26667W        W44871  16.039  15.044  13.415  0.0594 -0.4311  0.0149
26668W        W44872   7.946  16.920  13.849  0.2558 -0.3959  0.1344
26669W        W44873   5.325   7.541  11.242  0.0881 -0.0874 -0.1127
26670W        W44874  16.613  17.183  12.587 -0.1486  0.1065  0.0953
26671W        W44875  18.231  15.917   0.311  0.1305 -0.1318  0.0790
26672W        W44876  10.200  18.162  11.265 -0.2284  0.0274  0.3309
26673W        W44877   9.535  11.427  14.094  0.1559 -0.1849  0.0146
26674W        W44878  11.398  12.155  11.457  0.1774 -0.3164 -0.0944
26675W        W44879   6.437   2.834   2.666  0.0617 -0.4701  0.0367
26676W        W44880   7.208   6.690   2.984 -0.3091  0.0558  0.1680
26677W        W44881  15.731  12.893  15.348 -0.0727  0.2121 -0.1307
26678W        W44882   2.953  17.954   2.587 -0.3283 -0.0189 -0.0954
26679W        W44883  15.255   2.534   3.918  0.2299 -0.0957 -0.3459
26680W        W44884   3.131  15.263  14.063 -0.2548 -0.0607  0.4950
26681W        W44885  11.617   6.959  11.554  0.2277 -0.0154 -0.0343
26682W        W44886  16.507  12.290  12.833  0.1546 -0.3123 -0.1242
26683W        W44887   4.471   7.550   2.277 -0.1010 -0.1727 -0.1324
26684W        W44888  15.726  18.172   0.264 -0.1695  0.4116 -0.1964
26685W        W44889   8.463   3.752  14.316 -0.0504 -0.0019 -0.1574
26686W        W44890   3.520   7.542  12.735 -0.0248 -0.1518  0.1275
26687W        W44891  13.649   3.204   3.132 -0.0736  0.3940  0.0244
26688W        W44892   4.354   2.829  14.355  0.1513 -0.3392  0.0346
26689W        W44893  17.943   1.462  14.280  0.0672  0.1685  0.1114
26690W        W44894   7.906  18.357  13.625 -0.4871  0.2024 -0.4665
26691W        W44895   0.887  12.500  15.171 -0.0291 -0.5161 -0.0726
26692W        W44896  15.376  10.451  15.075 -0.2874 -0.1293  0.1010
26693W        W44897  16.945   7.255   0.140 -0.0435 -0.1615 -0.2742
26694W        W44898   9.354  16.400  15.372 -0.0065 -0.1898 -0.0973
26695W        W44899   1.655  11.351  11.191  0.2102 -0.1854  0.0347
26696W        W44900   3.358  15.958  12.577  0.0779  0.2510  0.0109
26697W        W44901   8.562   7.422   3.412 -0.1686  0.1827 -0.0379
26698W        W44902   5.421   2.988  15.200 -0.0795 -0.0808 -0.0163
26699W        W44903   0.046  15.549  11.971 -0.1375 -0.1735 -0.1534
26700W        W44904  11.491  16.014  12.248  0.0726 -0.0185  0.0477
26701W        W44905   1.869  17.133   2.964  0.1804  0.4255 -0.2966
26702W        W44906  17.119  18.175   2.028 -0.0814 -0.1264  0.2699
26703W        W44907   7.100  10.229  11.872  0.1961  0.3137 -0.0337
26704W        W44908  13.627  10.820   4.034 -0.2766  0.2382  0.0618
26705W        W44909  13.694   2.519   1.906 -0.0530  0.0797  0.3418
26706W        W44910   0.618  12.138   0.578  0.1635  0.0032 -0.3247
26707W        W44911   3.090  13.983   1.281 -0.0396  0.2203 -0.1962
26708W        W44912  11.041  10.916  11.947 -0.0027  0.0407  0.2639
26709W        W44913   5.505   3.200   4.460 -0.1048 -0.0091  0.1597
26710W        W44914  11.270  16.080   1.924  0.3224  0.1524 -0.0387
26711W        W44915   7.517  10.854   5.526 -0.1997 -0.2596 -0.0212
26712W        W44916  12.746   4.637   1.828  0.2974  0.2964 -0.1656
26713W        W44917  16.908  12.960   3.518  0.0904  0.0436  0.1677
26714W        W44918  15.807   2.932  14.987 -0.1308  0.0360 -0.1265
26715W        W44919   0.202   1.535  13.645  0.0204  0.2222 -0.1764
26716W        W44920  11.657   3.738  12.588  0.1409  0.2409  0.0062
26717W        W44921   9.710  10.221   0.609 -0.1534 -0.0524 -0.0711
26718W        W44922   3.541   3.357  13.972 -0.0772  0.1160  0.2318
26719W        W44923   8.429   9.184  14.903  0.1374  0.0131  0.3797
26720W        W44924   8.073   8.980   1.794  0.1270 -0.2298  0.4357
26721W        W44925   3.907  14.670   2.902 -0.1270  0.0838  0.1218
26722W        W44926  13.944   5.478   0.959  0.0064  0.1059  0.0600
26723W        W44927   1.378  15.426   1.094  0.1531 -0.0130 -0.1601
26724W        W44928   1.447   0.444   1.010  0.1541  0.2396  0.0227
26725W        W44929  12.779  11.896  11.458 -0.2041  0.0613  0.1923
26726W        W44930  17.759   7.446   3.532 -0.3654 -0.3506 -0.0443
26727W        W44931   2.680   0.890  13.387 -0.0893  0.3133 -0.0108
26728W        W44932   5.839   2.973  11.229 -0.0385 -0.2373  0.1101
26729W        W44933  14.982   1.552   0.893  0.3909 -0.1805  0.0576
26730W        W44934  13.898   2.682  14.887 -0.0319  0.0843  0.2496
26731W        W44935   6.516   1.078   0.616 -0.1101  0.2818  0.2328
26732W        W44936   8.320   6.411  10.322 -0.0292 -0.0220 -0.0431
26733W        W44937   1.074   3.341  12.679  0.3441  0.0703 -0.2431
26734W        W44938  14.181  10.950   4.564 -0.1980 -0.1909 -0.1077
26735W        W44939   7.468  15.710  15.465 -0.0662  0.1579 -0.0079
26736W        W44940  11.275  18.225   1.681  0.2596 -0.0306 -0.0187
26737W        W44941   0.585   6.792   4.234  0.1128 -0.1082  0.0252
26738W        W44942  17.228   7.907  12.532  0.0928  0.2751  0.0088
26739W        W44943   8.364  17.450   2.075  0.0357  0.0905  0.1604
26740W        W44944  11.997   2.668   2.706  0.0431  0.0808 -0.2634
26741W        W44945   5.877   1.710   2.017  0.1720  0.0990  0.0364
26742W        W44946  16.310   9.686  12.229  0.4372 -0.2059  0.0393
26743W        W44947   3.181  13.014   3.704 -0.3258  0.0072  0.0356
26744W        W44948  11.384   8.206  11.378  0.0390  0.0394 -0.0255
26745W        W44949  14.781   7.215   1.994  0.2241 -0.0572  0.0786
26746W        W44950   5.440  15.219   2.483  0.1830 -0.0157  0.0637
26747W        W44951  12.290  15.097   3.634 -0.1782  0.1146  0.0773
26748W        W44952  15.011  11.329   2.997 -0.2007 -0.2352 -0.2814
26749W        W44953   4.456  16.303   2.216  0.0140 -0.2043 -0.2104
26750W        W44954   5.566   7.828   1.136 -0.4287 -0.0259  0.2881
26751W        W44955   3.075  15.511  10.998 -0.1038 -0.0753 -0.1163
26752W        W44956  13.963  12.636  13.388 -0.2742  0.2565  0.1192
26753W        W44957   8.207   6.914  11.245 -0.1146  0.1208 -0.1790
26754W        W44958  16.163   7.982   3.211 -0.0120  0.2029 -0.2972
26755W        W44959   8.798  14.353  11.247 -0.0480  0.1399 -0.1047
26756W        W44960   5.145  16.784   3.401  0.2736  0.1516 -0.2503
26757W        W44961  14.203   6.972  14.730  0.0365  0.3812 -0.0923
26758W        W44962   0.113   7.556  12.214  0.0638  0.0623  0.0316
26759W        W44963   6.993  11.694   2.196  0.0420  0.2663  0.0775
26760W        W44964   9.588   8.763   1.516  0.0213  0.0002  0.0227
26761W        W44965   2.997  10.788  13.549  0.1921 -0.2314 -0.1236
26762W        W44966  16.018   7.106   2.802 -0.0062  0.2093 -0.1667
26763W        W44967  12.072   9.228   0.638  0.0483  0.0639  0.2972
26764W        W44968   6.238   7.875  12.609 -0.1953 -0.0246 -0.1031
26765W        W44969   4.512   9.802  14.500  0.1969 -0.0085 -0.3040
26766W        W44970   8.514   5.314   0.553  0.2153  0.1069  0.0052
26767W        W44971   6.112   5.965  12.800 -0.2576  0.2677 -0.1255
26768W        W44972   1.191  14.752  14.462 -0.0268  0.3765  0.0315
26769W        W44973   3.265   8.641   1.704  0.0507 -0.0384  0.0989
26770W        W44974   5.491  18.628  13.109 -0.2303  0.0284  0.0490
26771W        W44975  14.240  17.916  14.737 -0.2142  0.2304 -0.1424
26772W        W44976   4.445   3.044  11.501 -0.0521 -0.0359 -0.2641
26773W        W44977  13.346   3.472  11.650 -0.1320 -0.0760  0.1119
26774W        W44978  10.652   8.340   1.306  0.2877  0.1477 -0.1626
26775W        W44979  10.334   4.857  15.026  0.0523 -0.0372  0.1128
26776W        W44980   3.184  16.466   2.485  0.0423  0.1264 -0.1940
26777W        W44981  13.113   1.859   9.975  0.0734  0.1824 -0.0407
26778W        W44982   9.204  14.842   1.478 -0.1688 -0.1615 -0.0793
26779W        W44983   0.012  12.050  10.784 -0.1802 -0.1276  0.2841
26780W        W44984   7.578   3.395   5.353 -0.1008  0.0144  0.2849
26781W        W44985  12.307   0.012   4.951  0.0688 -0.0594  0.0480
26782W        W44986  15.851   7.873  11.451  0.1939 -0.2173  0.1263
26783W        W44987   0.678   7.121  13.281  0.3302 -0.0438 -0.3825
26784W        W44988  13.520  14.589  13.263 -0.2546 -0.0667  0.1055
26785W        W44989  11.285  17.307   0.075 -0.2224 -0.3577  0.2451
26786W        W44990  11.373   8.168   4.983 -0.0375 -0.0906 -0.1322
26787W        W44991  13.805  15.046   2.544 -0.0149 -0.0769 -0.0642
26788W        W44992  15.316  11.743   0.304  0.2863 -0.1064  0.1010
26789W        W44993  15.543   3.316   3.253 -0.0580 -0.0166  0.2847
26790W        W44994  14.965  10.972  14.627  0.1871  0.3861 -0.0966
26791W        W44995   9.453  14.481   1.108  0.2366 -0.1279 -0.4999
26792W        W44996  10.788   6.687   1.523 -0.1574 -0.0071 -0.1261
26793W        W44997   7.146  18.569  13.663 -0.2398  0.1589  0.0844
26794W        W44998  12.144   0.970   2.596  0.0519 -0.3174 -0.1172
26795W        W44999   3.641   5.841  13.850  0.0908 -0.2785  0.2163
26796W        W45000   7.006  15.139  13.618  0.1912 -0.0049 -0.1978
26797W        W45001  11.191  13.528  13.026  0.1085 -0.1526  0.0616
26798W        W45002  15.880  12.354   3.679 -0.0294 -0.2100  0.0359
26799W        W45003  12.570   2.998  11.203 -0.0041  0.1168 -0.0113
26800W        W45004   4.895   1.729  13.439  0.1092 -0.0954  0.1753
26801W        W45005  12.499   0.399   4.706 -0.0822  0.0471 -0.2881
26802W        W45006   0.023   3.723  12.630 -0.1029 -0.5745  0.2388
26803W        W45007   8.706   6.939  13.221  0.0559  0.0702 -0.4568
26804W        W45008   0.465  13.756  15.302  0.1839  0.2445  0.0434
26805W        W45009  13.844   1.424  11.522 -0.0361 -0.0171 -0.0852
26806W        W45010   0.134  14.442  14.559  0.1167 -0.2263 -0.1095
26807W        W45011  15.243   4.958   2.690  0.1316 -0.1041 -0.1058
26808W        W45012  15.770  17.429  13.455  0.0715  0.4375  0.1138
26809W        W45013  18.302  14.939  15.218 -0.3448  0.1770  0.0948
26810W        W45014  16.153  18.298   0.033  0.2097 -0.0444 -0.0187
26811W        W45015  10.671  14.680   0.241 -0.1240  0.0435 -0.0597
26812W        W45016   8.783  10.230   3.912  0.0194 -0.0655  0.2199
26813W        W45017   8.776  13.398   3.185  0.3950 -0.2466 -0.5653
26814W        W45018  15.515  17.519   3.726 -0.0296 -0.1158  0.3216
26815W        W45019   0.605  10.342   2.132 -0.0142 -0.2370  0.0236
26816W        W45020   7.024   0.865   0.823  0.0882  0.1801  0.1502
26817W        W45021  14.693   2.275  13.702 -0.0091 -0.3974 -0.1470
26818W        W45022  10.102  14.982  14.299  0.2831  0.1536 -0.2590
26819W        W45023   4.744   9.203   2.023  0.0222  0.0571 -0.2278
26820W        W45024  15.499  10.557  11.586  0.0240 -0.1274 -0.1736
26821W        W45025  13.428  16.212   1.213 -0.1157  0.4019  0.2294
26822W        W45026   9.827   0.119   1.022 -0.0516 -0.1193  0.0358
26823W        W45027   9.629  10.259   4.794 -0.0090 -0.0304  0.0221
26824W        W45028  12.299   4.430   2.072  0.3813  0.0832 -0.0884
26825W        W45029   8.775  10.546  13.397 -0.2456  0.0518  0.3508
26826W        W45030   3.981  15.206  10.940  0.0926 -0.4469  0.1086
26827W        W45031  17.629   8.774   2.615 -0.0575  0.1170  0.0201
26828W        W45032   8.382  14.057   2.652 -0.2298 -0.0031 -0.0621
26829W        W45033  10.093   5.948   2.726  0.1244 -0.0027  0.0816
26830W        W45034   2.609   9.887  11.960  0.0529  0.1729  0.1625
26831W        W45035  15.414   1.082  11.081 -0.1677 -0.0532  0.1515
26832W        W45036   7.751   6.054   1.644 -0.1355  0.0515  0.0248
26833W        W45037  11.555   4.246  10.978  0.0608 -0.1586  0.0760
26834W        W45038   5.192  10.418  14.339  0.2461 -0.3159 -0.1554
26835W        W45039  11.265   2.501   3.193 -0.1576  0.1588  0.3567
26836W        W45040   2.519   2.917   1.912  0.2723  0.1378  0.1526
26837W        W45041  13.159  10.816   2.841 -0.0145 -0.0592 -0.0917
26838W        W45042   7.869   8.029  11.750  0.3778  0.1043 -0.2815
26839W        W45043   5.488   0.794  10.603 -0.0494 -0.2653  0.1100
26840W        W45044  18.620   6.926  10.891  0.0201  0.0181 -0.0874
26841W        W45045  16.663  12.469  14.326 -0.3211 -0.1801  0.1692
26842W        W45046   7.583   9.106   1.202 -0.0885 -0.0419 -0.3060
26843W        W45047  17.980  18.324  11.284  0.3700  0.0464  0.1655
26844W        W45048   8.895   7.645  12.818 -0.0014  0.5346 -0.3852
26845W        W45049   0.089  12.897   1.357 -0.2222  0.0818  0.0448
26846W        W45050   1.316   5.680  14.973 -0.0195  0.2292  0.3059
26847W        W45051   7.332  14.153   3.802 -0.0262 -0.1732 -0.0602
26848W        W45052  11.724   5.580  12.262 -0.1178  0.0250 -0.0744
26849W        W45053  16.032  14.722   1.342  0.1965  0.1312 -0.0727
26850W        W45054   5.502  15.403   0.051 -0.2524  0.0306  0.0448
26851W        W45055  10.520  11.260   3.546  0.0552 -0.3914 -0.4043
26852W        W45056  11.127   0.601   1.759  0.2247 -0.2507  0.0699
26853W        W45057  15.868   7.375  11.457  0.2281  0.3907  0.3447
26854W        W45058   2.145  17.601   2.886  0.0623  0.4137  0.1826
26855W        W45059   0.925   2.946   3.496 -0.1918  0.2749 -0.3174
26856W        W45060  13.115  12.740   0.271 -0.0147 -0.0209 -0.0531
26857W        W45061  17.687  10.446  10.880 -0.1977  0.3313 -0.0908
26858W        W45062  13.701  12.155  13.095 -0.4624 -0.0650 -0.4114
26859W        W45063   4.319  13.988  14.012 -0.0404 -0.0484 -0.0306
26860W        W45064   1.683   6.477   2.352  0.2833  0.0326 -0.0101
26861W        W45065  17.317  14.173  14.205 -0.1760 -0.1894 -0.2480
26862W        W45066   3.795   4.702   5.887  0.0836  0.0561  0.0403
26863W        W45067   5.990  17.453   2.529 -0.2556  0.0144 -0.0247
26864W        W45068  16.389  13.806   3.243 -0.0432 -0.0548  0.1146
26865W        W45069  10.713   5.803   3.765  0.2420 -0.2239 -0.0315
26866W        W45070   1.681  11.906   2.796 -0.3175 -0.0027 -0.1478
26867W        W45071   9.391   8.755   2.797  0.1180 -0.0698  0.2058
26868W        W45072   4.770  11.062  11.349 -0.0880  0.0175 -0.0640
26869W        W45073  18.099  11.193  10.808  0.0233 -0.2114  0.0335
26870W        W45074   3.588   3.486   0.629  0.1518  0.1055  0.2875
26871W        W45075   0.755  10.310   1.144  0.0084  0.3263  0.0981
26872W        W45076   8.696  13.293   0.961  0.1199  0.0217 -0.1952
26873W        W45077  14.981   0.741  11.747  0.3361 -0.1743 -0.0221
26874W        W45078  17.274  16.721  14.235 -0.2422  0.2312  0.0347
26875W        W45079  11.513   5.273  14.363  0.0333  0.1292 -0.3456
26876W        W45080  13.803   3.181   0.584  0.2556  0.0350  0.0791
26877W        W45081   7.157   8.601   0.810  0.3006 -0.0584 -0.1696
26878W        W45082   5.219   4.244   4.309 -0.2274 -0.1373  0.2969
26879W        W45083  18.236   1.054  14.215  0.0504  0.0769  0.0075
26880W        W45084   6.152  18.648  14.625 -0.1224  0.2473 -0.2061
26881W        W45085  18.403  16.716   2.459  0.1898 -0.4209  0.0816
26882W        W45086  10.594  18.402  12.576 -0.0217  0.1641 -0.1542
26883W        W45087   7.794  12.916   3.420 -0.0695  0.1798 -0.3765
26884W        W45088  16.750  18.317  12.606  0.2358  0.1652 -0.0412
26885W        W45089   1.100   5.480   0.269  0.1428  0.0656 -0.0203
26886W        W45090   2.146   3.044  15.423 -0.2950  0.0545  0.1391
26887W        W45091   9.863   3.831   2.762  0.3691 -0.0345  0.1617
26888W        W45092   5.276  14.113   0.751  0.1777  0.0484 -0.1935
26889W        W45093   7.697  10.562   2.283 -0.3410  0.2641 -0.2185
26890W        W45094  17.081   9.997   2.225 -0.0613 -0.1096  0.0158
26891W        W45095   3.397   5.988  12.346 -0.2440  0.1442 -0.1787
26892W        W45096   6.961   0.335   3.163 -0.0701 -0.0321 -0.0696
26893W        W45097  11.019  13.470   4.743 -0.0833 -0.4095  0.0108
26894W        W45098  17.754   0.826  12.945  0.0138  0.0388  0.1440
26895W        W45099   2.385  10.350  10.602 -0.0676 -0.2167  0.0270
26896W        W45100  14.085  16.417   3.577 -0.1475  0.3578  0.1790
26897W        W45101  12.548  11.064   3.167  0.2391 -0.1152 -0.0865
26898W        W45102  13.339   5.494  11.774 -0.0270 -0.1892 -0.0673
26899W        W45103  13.724   1.670  12.540 -0.2721 -0.0145  0.2146
26900W        W45104  11.334  17.996   2.942 -0.0885  0.1087 -0.1153
26901W        W45105  12.472   7.138   1.648 -0.1339 -0.3697 -0.1095
26902W        W45106   2.063   7.165   1.508  0.1758  0.0896  0.0544
26903W        W45107   1.412  16.950   0.970 -0.2015 -0.2840 -0.1432
26904W        W45108  18.083   2.759   2.326  0.0614 -0.2629 -0.2362
26905W        W45109   9.390   2.554   3.338  0.2918  0.0465 -0.1822
26906W        W45110   5.542   5.775  14.522  0.0241  0.0144 -0.0645
26907W        W45111  11.940   1.829   0.812 -0.0402  0.0277 -0.0284
26908W        W45112  12.094  12.098  12.127  0.2309  0.3547  0.0451
26909W        W45113  10.578   5.966  12.808 -0.1947  0.1174 -0.0094
26910W        W45114  11.397   9.065  12.019 -0.1296 -0.4825  0.0771
26911W        W45115   9.209  18.156   1.384  0.2738  0.4651 -0.0872
26912W        W45116  16.738   9.604  14.389 -0.0975 -0.0251  0.0939
26913W        W45117   7.212   1.523   1.396 -0.0245 -0.2283 -0.0081
26914W        W45118   6.249  18.031   1.718 -0.2199 -0.1860 -0.3586
26915W        W45119   4.190   2.134  12.763  0.2240 -0.1684 -0.1653
26916W        W45120  11.858   8.215   2.172  0.1792 -0.3313  0.0745
26917W        W45121  16.051  17.716   1.166 -0.0463 -0.1655  0.1585
26918W        W45122   2.439  16.074   4.628  0.0433 -0.0176 -0.1393
26919W        W45123  10.680   3.173  11.651  0.1947 -0.0188  0.0087
26920W        W45124   3.157  14.889   2.896 -0.4665 -0.1617 -0.1307
26921W        W45125   5.936  15.943  13.818 -0.3962  0.3721 -0.0326
26922W        W45126  15.672  17.600   4.711 -0.0258  0.0762 -0.1911
26923W        W45127  11.205  15.614   2.801 -0.4781 -0.3811  0.2462
26924W        W45128  14.345   3.767   3.394  0.0182 -0.0591  0.0989
26925W        W45129   7.451   6.401  12.552 -0.1213  0.2703 -0.0435
26926W        W45130   6.297   2.033   3.016  0.1382  0.0465 -0.2121
26927W        W45131   2.663   8.899  15.192 -0.1650 -0.1440  0.1232
26928W        W45132   0.420  17.048   3.436 -0.1392 -0.0128 -0.0251
26929W        W45133  12.271  16.677   3.944 -0.0413 -0.1865  0.1611
26930W        W45134  14.791   8.243   1.903 -0.0317  0.0145 -0.0554
26931W        W45135  12.131   4.124   2.543  0.0675 -0.0434 -0.1275
26932W        W45136   5.879  10.428  12.605  0.1706 -0.0893 -0.0065
26933W        W45137  10.745   6.625  11.775  0.0276 -0.0003  0.0122
26934W        W45138   0.571   6.926   1.674  0.1767  0.1532 -0.1260
26935W        W45139  10.826  15.349   0.530  0.1914  0.2475 -0.1612
26936W        W45140   1.528   3.599   1.573  0.1493 -0.2730  0.0922
26937W        W45141   4.708   4.244  11.163  0.0907 -0.0375  0.1737
26938W        W45142   2.973   0.581  15.440 -0.1139 -0.2573 -0.0639
26939W        W45143  11.852  12.153   4.713 -0.2408 -0.0804  0.1214
26940W        W45144   9.978  16.424  14.250 -0.1141  0.1425  0.2108
26941W        W45145  14.823  15.494   5.724  0.0250 -0.2011  0.2789
26942W        W45146   7.784  10.573   3.674  0.0020  0.1792  0.1347
26943W        W45147   5.815  11.406  13.872  0.3689 -0.1282  0.1947
26944W        W45148   8.506   6.359   4.402 -0.1560 -0.1091 -0.1843
26945W        W45149  16.479   9.798  14.012  0.2617  0.3207 -0.3173
26946W        W45150   3.328  16.638   3.369 -0.2802 -0.0626  0.1223
26947W        W45151  18.185  14.463  15.399  0.2735  0.1153 -0.1921
26948W        W45152  10.736   9.769  14.118  0.5183  0.3812 -0.3533
26949W        W45153   0.107  11.212  11.998  0.1157  0.0267  0.2738
26950W        W45154   7.307  10.326  15.334 -0.0462  0.0624  0.1919
26951W        W45155   2.142   6.677   5.320 -0.1315 -0.0781 -0.0105
26952W        W45156   7.579  17.227  15.052 -0.0936 -0.0437 -0.2492
26953W        W45157  13.567   8.799  15.141  0.0487  0.1909 -0.1448
26954W        W45158   4.901   7.464  12.203 -0.1939 -0.2704 -0.3193
26955W        W45159  11.305   3.428  12.127 -0.0144 -0.1030 -0.1823
26956W        W45160  18.272  12.326   2.409 -0.1707  0.0316 -0.2400
26957W        W45161  17.399   3.678  13.868  0.0578  0.2916 -0.3068
26958W        W45162   2.105  15.573   2.777  0.1571 -0.2231 -0.1397
26959W        W45163  11.968   1.293  12.134 -0.0034 -0.2925 -0.1814
26960W        W45164  13.197  12.057  14.395 -0.3038 -0.0680 -0.0209
26961W        W45165   9.276  17.164   2.506  0.2149  0.1534 -0.2194
26962W        W45166   5.534   0.119   2.503 -0.1645 -0.0563 -0.0119
26963W        W45167  11.369  17.748   3.841 -0.0147  0.2397  0.2546
26964W        W45168   1.168  13.712  10.813 -0.0960  0.1032 -0.1407
26965W        W45169  18.194  13.785  14.652  0.2777 -0.0126 -0.0956
26966W        W45170   6.723   6.174  15.118 -0.2404 -0.1575 -0.1120
26967W        W45171  17.776   3.413   3.910  0.0064 -0.0139  0.1940
26968W        W45172  12.329  15.299   4.093  0.0865 -0.1339  0.1659
26969W        W45173   0.262   3.224  13.834 -0.0551  0.2195  0.0511
26970W        W45174   9.136   5.715   4.291  0.1605 -0.1344  0.0362
26971W        W45175  12.682  11.138  10.839 -0.1712 -0.1107 -0.0562
26972W        W45176  10.678  12.626   4.316  0.1192  0.1246 -0.1759
26973W        W45177   0.101  11.476  14.144  0.0543 -0.2254  0.4493
26974W        W45178  17.220   8.464  15.373 -0.3350 -0.0930  0.0669
26975W        W45179  17.705   4.863  14.235  0.1379 -0.0343  0.3154
26976W        W45180   8.495   4.953  11.699 -0.0152 -0.0355 -0.2565
26977W        W45181   8.310   5.842  13.403 -0.0811 -0.2173  0.1299
26978W        W45182  10.801   6.490  15.005  0.0219  0.4484  0.5509
26979W        W45183   3.475  15.118  15.262  0.0969  0.1111 -0.1797
26980W        W45184  15.535   1.630  12.475 -0.0706  0.0081 -0.0399
26981W        W45185   5.237   7.814   4.266 -0.0952  0.1273  0.4033
26982W        W45186   4.180  12.395  13.556  0.4060  0.2844  0.0329
26983W        W45187   9.818  18.597   1.582  0.0186  0.0278 -0.3745
26984W        W45188  14.502  17.441   2.693 -0.4017 -0.0618 -0.1756
26985W        W45189  15.561  13.741   2.866 -0.0946  0.3263 -0.0373
26986W        W45190   3.219   0.718  14.053  0.1100 -0.2854 -0.1448
26987W        W45191  17.743   5.448  11.930  0.0491  0.3251  0.0629
26988W        W45192  14.687  11.368  12.512  0.0277 -0.2001 -0.1539
26989W        W45193   5.704  17.754   2.853 -0.2154 -0.3244  0.2219
26990W        W45194   2.277  10.592  15.417  0.1570  0.0353 -0.0237
26991W        W45195   6.978  12.723   0.517 -0.1638  0.0995 -0.0282
26992W        W45196  12.730   7.524   1.794 -0.0955 -0.1311  0.2061
26993W        W45197  11.565   1.003   2.360  0.0158 -0.0860  0.1850
26994W        W45198   9.635  15.085   1.563  0.1386  0.1809 -0.0545
26995W        W45199   5.527   7.145   3.290 -0.2560 -0.1718 -0.2837
26996W        W45200  13.246  14.618   2.135  0.0345  0.1076  0.3720
26997W        W45201   2.486   8.129  11.454 -0.2824  0.2230  0.0156
26998W        W45202   8.235  16.418  14.722  0.0191 -0.3244  0.2072
26999W        W45203   1.792  15.230   0.841 -0.0493 -0.3920  0.0400
27000W        W45204   5.622  18.110  12.855  0.1595 -0.2349  0.2512
27001W        W45205  12.199   9.964   2.327 -0.0565  0.0713  0.0090
27002W        W45206  14.288  11.210  12.903  0.2345  0.1695  0.4344
27003W        W45207   2.058   3.611   4.255 -0.1296 -0.0826  0.2021
27004W        W45208   6.887  14.428  13.090 -0.0214  0.3427  0.0163
27005W        W45209   0.476  10.019  13.848  0.2275  0.1244 -0.5263
27006W        W45210   8.935  11.894   5.509 -0.2591 -0.3090  0.0318
27007W        W45211  18.187  13.975  15.190 -0.4545  0.1729  0.1377
27008W        W45212   8.919   3.279  11.744 -0.0984 -0.1648 -0.2061
27009W        W45213   6.622  18.153   5.188  0.0890  0.0132 -0.2285
27010W        W45214  17.141  11.793   2.530 -0.1962  0.1459 -0.2135
27011W        W45215  10.720   4.549  13.758 -0.0565  0.1597  0.0331
27012W        W45216   9.543   4.456  15.278  0.2975 -0.0329  0.1131
27013W        W45217   1.051   8.551  10.528 -0.0712 -0.1689  0.2479
27014W        W45218  14.788   2.598  13.264 -0.1518  0.0867 -0.2191
27015W        W45219   3.189  14.144   1.852 -0.1750 -0.1061 -0.2215
27016W        W45220   5.821   2.049  14.371  0.0589  0.1041 -0.1302
27017W        W45221   4.646  13.305  11.183 -0.1010  0.0530 -0.0834
27018W        W45222   2.302  14.703   1.261  0.1453 -0.0562 -0.0123
27019W        W45223   3.036   7.277   2.801 -0.0324 -0.1139  0.0829
27020W        W45224  13.601   1.631  13.772  0.0753 -0.0481  0.0934
27021W        W45225   9.754   9.190  14.566 -0.1049 -0.1937  0.0315
27022W        W45226   1.103  12.634  10.693  0.2014  0.1965 -0.0769
27023W        W45227  16.770   2.362   2.790 -0.1197 -0.3630  0.0190
27024W        W45228   5.699   7.030  11.728  0.1804 -0.1012  0.3221
27025W        W45229   6.674   1.744  15.448 -0.0146 -0.2128  0.0274
27026W        W45230  16.664  15.567  11.621  0.0006 -0.2493 -0.0287
27027W        W45231   3.192  12.121   0.954 -0.2341  0.2061 -0.0862
27028W        W45232  18.019  11.864   1.320 -0.1546 -0.2681  0.1712
27029W        W45233   1.898  13.178  12.532  0.1955 -0.1319 -0.0262
27030W        W45234  16.251   3.771   3.493  0.2196 -0.0919  0.0961
27031W        W45235  15.007  14.834  12.604 -0.0950  0.0028 -0.0919
27032W        W45236   9.413  10.992   4.100  0.1376 -0.1252 -0.0413
27033W        W45237  10.560  16.064  12.393  0.1542 -0.2777 -0.2894
27034W        W45238  17.645  11.152   1.992  0.2086  0.0474  0.0018
27035W        W45239   4.431  15.263  12.600  0.1226 -0.0461  0.0698
27036W        W45240   6.358  11.385  12.865 -0.0493 -0.0893 -0.1069
27037W        W45241  15.691   1.935   1.279  0.1677  0.0246 -0.0969
27038W        W45242   1.744  14.316  10.523  0.2274 -0.3744 -0.0618
27039W        W45243   2.566   4.097  14.313 -0.0329  0.2027 -0.2763
27040W        W45244   1.269  17.700  12.077  0.3216 -0.0114 -0.0051
27041W        W45245  18.418  16.760   0.621  0.0324  0.0881 -0.2316
27042W        W45246   4.462   9.063   0.329  0.0098  0.0145  0.0498
27043W        W45247  10.175   8.523   1.355 -0.2328  0.4170 -0.1204
27044W        W45248   4.142  12.522  14.470  0.0346  0.0470  0.0392
27045W        W45249   3.654   2.911  10.905  0.1855  0.3559  0.2328
27046W        W45250  14.828  13.345   4.441 -0.4151 -0.0007 -0.0938
27047W        W45251  15.370   2.053   4.047 -0.0038  0.0035 -0.2209
27048W        W45252   3.480  18.444  11.434 -0.4089  0.1834  0.0096
27049W        W45253  11.921  13.378   3.326  0.0213  0.0432  0.0610
27050W        W45254   4.473   0.319  12.144  0.0620 -0.0012  0.0110
27051W        W45255  14.606  16.518   4.095 -0.2742 -0.2950 -0.0783
27052W        W45256   0.415   5.223  13.051  0.2973  0.0561 -0.2581
27053W        W45257   8.176  12.493  14.726 -0.0892 -0.2172  0.0549
27054W        W45258   1.039  11.041  12.369 -0.1349  0.0080  0.1163
27055W        W45259  18.454  11.930  15.091  0.1427 -0.3198 -0.3402
27056W        W45260  12.620  13.912   0.575 -0.1624  0.1307 -0.0468
27057W        W45261   8.574  10.664   2.688 -0.0441  0.1198 -0.2244
27058W        W45262  11.737  12.681  13.778 -0.0389  0.0671 -0.0128
27059W        W45263   2.614   3.139   0.521  0.4668 -0.1637 -0.0669
27060W        W45264   4.500   5.952   1.520  0.0557  0.0703 -0.0247
27061W        W45265  10.693  15.054  12.845 -0.2028  0.1186 -0.0190
27062W        W45266   2.968   1.594   3.887 -0.0478 -0.2245 -0.0333
27063W        W45267   1.567  16.065   0.480 -0.1584  0.0182 -0.0675
27064W        W45268   3.173   1.904   0.409 -0.0994 -0.2752 -0.0007
27065W        W45269   2.338   2.598  12.831 -0.0313  0.0840  0.0418
27066W        W45270   0.586   8.503   2.070  0.2745 -0.1223 -0.1714
27067W        W45271  14.349  10.226   0.262  0.0229 -0.3671  0.1632
27068W        W45272  16.008   5.167  14.605  0.2910 -0.5543 -0.0446
27069W        W45273   5.498  10.436   2.493  0.1402  0.0617 -0.2179
27070W        W45274  14.626   2.861   3.042  0.0158  0.0905  0.0524
27071W        W45275  13.453   8.875   0.175  0.1518  0.0999 -0.0561
27072W        W45276   8.516  18.611   2.653  0.1609 -0.1336  0.0418
27073W        W45277   4.804   0.940   3.315  0.1036 -0.0264 -0.1407
27074W        W45278   4.244  15.824  14.435  0.0289 -0.1585 -0.1783
27075W        W45279   2.290   9.673   0.325 -0.3371 -0.0615  0.0684
27076W        W45280  11.543  13.924   4.770 -0.0924 -0.0704  0.2003
27077W        W45281  15.138  14.067  12.871 -0.1175  0.1163  0.1987
27078W        W45282  14.985   7.240   0.276 -0.2346  0.2500 -0.0720
27079W        W45283   2.052  12.710  12.318 -0.4383 -0.0429  0.2713
27080W        W45284   7.276   5.107  11.072 -0.0552  0.0078 -0.0335
27081W        W45285   9.740   7.302   4.439 -0.1964 -0.0283  0.2661
27082W        W45286   8.780  18.113  10.659  0.3023  0.0953  0.1818
27083W        W45287  17.573   4.075   1.465  0.2326  0.0632  0.1872
27084W        W45288  11.587  17.635   2.711  0.3638 -0.1666 -0.0413
27085W        W45289  15.123  12.135   0.678 -0.0307 -0.4804  0.0656
27086W        W45290   2.128   4.323   2.996 -0.2431  0.0551 -0.0473
27087W        W45291   3.999   2.767  14.710 -0.1870  0.1513  0.0466
27088W        W45292   6.501   9.671  11.029 -0.1347 -0.0315 -0.0624
27089W        W45293   9.333  15.401  12.144 -0.4328  0.1055  0.1984
27090W        W45294  10.798   0.969   1.920 -0.0028  0.5489 -0.3299
27091W        W45295   8.999   8.947  14.327 -0.0836 -0.0664 -0.0782
27092W        W45296   5.054   0.502   1.688 -0.3305 -0.1855 -0.2218
27093W        W45297   8.822   6.959  11.722  0.0763 -0.1834  0.0122
27094W        W45298   8.810  12.002  14.851 -0.0533  0.1236 -0.0162
27095W        W45299   1.692  14.173   2.450  0.0620 -0.2762  0.0576
27096W        W45300  17.671   1.998   4.361 -0.0698 -0.0402  0.1856
27097W        W45301  13.741  17.997  12.827 -0.1231  0.1944  0.1208
27098W        W45302   2.663   3.879   2.244 -0.0240 -0.1185  0.1288
27099W        W45303   6.807  15.347   3.018 -0.0410  0.1582 -0.1898
27100W        W45304   3.513   1.259  12.920  0.1377 -0.1830  0.1550
27101W        W45305   3.054  13.489   4.190  0.0610  0.1376  0.1958
27102W        W45306  15.591  11.142  14.710 -0.0422  0.0641  0.0117
27103W        W45307  13.724  10.000  12.487 -0.0482 -0.2409 -0.1237
27104W        W45308  11.174  11.896  14.803 -0.0372 -0.0079 -0.1748
27105W        W45309  16.903  13.431   2.527 -0.0639 -0.1096 -0.0918
27106W        W45310   9.587  18.543  14.747 -0.2094 -0.3355  0.1463
27107W        W45311   8.670   4.576  12.019  0.0183  0.0436 -0.1284
27108W        W45312   6.789   0.049   2.375 -0.2499  0.0895 -0.2051
27109W        W45313   5.836   2.852  12.336  0.2537  0.1346 -0.3532
27110W        W45314  10.167  10.451   0.263 -0.1345  0.0195  0.0141
27111W        W45315   2.307   4.488  14.051 -0.0987  0.2878  0.0793
27112W        W45316  13.969   4.998   1.112  0.0623  0.0329 -0.0300
27113W        W45317   3.242  11.687   1.332 -0.2047  0.1873  0.2630
27114W        W45318  13.392  16.800  15.322  0.1133 -0.2900  0.1293
27115W        W45319  16.001   4.750   3.335 -0.2082  0.1843  0.1033
27116W        W45320   6.244  14.732  13.028 -0.1544  0.2041 -0.4922
27117W        W45321  12.000   1.297   0.770  0.1350  0.0454  0.0853
27118W        W45322   5.530   3.870  14.400 -0.3614  0.0967  0.1051
27119W        W45323  10.067  15.933  14.128 -0.0641 -0.5541  0.0960
27120W        W45324   1.518   0.214   2.441 -0.0949  0.1537  0.2731
27121W        W45325   2.857   3.367   3.711  0.2069 -0.0390  0.0716
27122W        W45326   9.243  10.498  14.165  0.1506 -0.1520 -0.4420
27123W        W45327   6.904  18.356  11.465 -0.3849  0.2377 -0.1758
27124W        W45328  13.768  18.598   2.489  0.2068  0.2757  0.0261
27125W        W45329  13.787  14.311  10.843 -0.0575 -0.3412  0.3003
27126W        W45330   6.535  11.380   2.274  0.0212 -0.0632  0.0887
27127W        W45331  15.855  16.825  13.225 -0.1033  0.1041  0.0213
27128W        W45332   9.838  17.178  14.203  0.0440 -0.1158  0.1515
27129W        W45333  16.383  11.179   2.432  0.0478 -0.1135  0.0661
27130W        W45334  10.251  16.185  13.424 -0.0045 -0.3233  0.0427
27131W        W45335  16.353  10.115  14.350 -0.0169 -0.1071  0.3248
27132W        W45336  11.049  11.066   6.006 -0.0388  0.0806  0.2186
27133W        W45337  10.168   3.408  12.628 -0.0157  0.5133 -0.1385
27134W        W45338   4.952   4.043   0.683 -0.0950 -0.3207  0.0025
27135W        W45339   1.388   9.922   1.144 -0.2450  0.0832  0.0722
27136W        W45340   9.456   3.806   1.438 -0.1291  0.2612  0.2552
27137W        W45341   7.330   7.950  11.835 -0.0062 -0.2644 -0.3686
27138W        W45342  10.951   1.553  13.138 -0.0607  0.0305 -0.1702
27139W        W45343  15.555   1.137   3.790 -0.0108 -0.1809  0.1226
27140W        W45344   8.229   4.900   0.376 -0.1856  0.2257 -0.0972
27141W        W45345   0.166   1.202  14.563  0.0003 -0.0326 -0.3332
27142W        W45346  11.442  13.772   0.978  0.0231 -0.0142  0.1259
27143W        W45347   6.547   1.266   1.483 -0.4021 -0.1662 -0.0181
27144W        W45348  15.038   2.832  12.214 -0.0545  0.2350 -0.1958
27145W        W45349  11.936   8.776   4.407  0.1112  0.2756 -0.1849
27146W        W45350  13.063  14.888  15.016 -0.0141  0.1441 -0.0817
27147W        W45351   2.316   6.874   0.642 -0.1999 -0.1246 -0.0412
27148W        W45352  13.171  18.621   3.099 -0.1137 -0.0601  0.0255
27149W        W45353   6.209   9.599  11.441 -0.1114 -0.0014 -0.1821
27150W        W45354  16.954  11.977  15.002  0.0338  0.1637 -0.1710
27151W        W45355  16.261  14.504  13.045  0.1848  0.4055 -0.0533
27152W        W45356  12.036   9.733   0.802 -0.1454 -0.1380  0.1247
27153W        W45357  14.550  15.623  14.092  0.3921  0.1301  0.1577
27154W        W45358   2.637  15.579  13.150  0.2811  0.0436 -0.1254
27155W        W45359   1.681   0.990   0.114  0.0176  0.0088 -0.1151
27156W        W45360   4.799   7.035   3.976 -0.1240 -0.0719  0.0200
27157W        W45361   4.216   9.507  12.861 -0.0543  0.1215  0.2169
27158W        W45362   0.800  11.551   5.949  0.1735 -0.2143 -0.0698
27159W        W45363   5.106  10.116   0.248  0.0123 -0.1275 -0.2271
27160W        W45364  12.990   2.896  13.339 -0.1260  0.1328  0.3312
27161W        W45365  14.785   5.357  11.758  0.1248  0.1588 -0.0004
27162W        W45366  11.427   8.003   5.568 -0.0770 -0.1188 -0.1653
27163W        W45367  11.275  16.705   2.687 -0.1530 -0.4076  0.0413
27164W        W45368   8.975   6.876  11.231 -0.2004  0.3250  0.1437
27165W        W45369   0.841   0.011  12.874  0.2901 -0.3521  0.1337
27166W        W45370  14.816   9.545  14.188  0.1308  0.3799  0.1813
27167W        W45371   8.864  12.004  13.480  0.3164  0.0443 -0.0716
27168W        W45372   6.670  12.523  11.551  0.0864 -0.1363 -0.1009
27169W        W45373   7.914  10.462  12.380  0.1983 -0.0427  0.0942
27170W        W45374  15.031  14.802   4.371 -0.3306 -0.2229 -0.3574
27171W        W45375   2.866   0.285   3.229 -0.3809 -0.3886 -0.3896
27172W        W45376  18.270   1.390  13.846 -0.4035 -0.0836 -0.1146
27173W        W45377  14.452   9.172   5.179 -0.2810 -0.0035 -0.2564
27174W        W45378   7.754   9.403  11.300  0.0404  0.0314  0.2750
27175W        W45379   5.671   9.280  11.831  0.0350 -0.0344 -0.0252
27176W        W45380  10.303  14.729   2.037 -0.4239 -0.3390 -0.0231
27177W        W45381  17.214  16.955  14.782 -0.0622 -0.1037  0.0382
27178W        W45382   0.755  13.690  13.005  0.0946  0.3402 -0.1688
27179W        W45383   7.048   3.815  11.095 -0.0261 -0.0772  0.2196
27180W        W45384  10.749  13.821  12.938  0.1077 -0.3004  0.1163
27181W        W45385   3.874   4.381   3.080 -0.4045 -0.1405 -0.0478
27182W        W45386  14.516  11.549  11.892  0.1435 -0.1747  0.1258
27183W        W45387  14.380  12.269   0.152  0.0822  0.1944 -0.2361
27184W        W45388   1.802   5.683  11.252 -0.2474  0.0463  0.0686
27185W        W45389   1.465  11.620  14.903 -0.2697  0.0448  0.0408
27186W        W45390  17.719  14.977  13.010 -0.0855  0.1602 -0.0319
27187W        W45391  18.096  11.784  12.682  0.0170 -0.6244 -0.0928
27188W        W45392   7.986   5.718  11.249  0.0117  0.2250 -0.0859
27189W        W45393  15.224  13.531   3.095  0.1653  0.0438  0.2056
27190W        W45394   5.190  15.442   2.871 -0.0304 -0.3857  0.3699
27191W        W45395  16.663   9.355   0.678 -0.0587 -0.0518 -0.2919
27192W        W45396  17.578  11.667  11.330  0.3971 -0.2207 -0.2064
27193W        W45397  17.599  11.616   1.643 -0.1898 -0.1943 -0.0654
27194W        W45398  11.609   1.834   1.911 -0.0955  0.1577  0.4462
27195W        W45399  14.619  18.074  11.547 -0.2583  0.0603  0.1888
27196W        W45400  14.181  17.982  13.733  0.1058  0.0953 -0.0093
27197W        W45401   1.634  14.092  11.920  0.1074  0.0097  0.2341
27198W        W45402   1.057  15.944   0.224 -0.1646 -0.1145  0.1545
27199W        W45403   0.921  12.159  12.381 -0.1660  0.1314 -0.0347
27200W        W45404  13.272   0.385  11.149  0.0228 -0.0147 -0.2754
27201W        W45405   2.770   1.684  12.005  0.0678 -0.0596  0.1282
27202W        W45406   1.688  13.590  12.734 -0.2065  0.0790 -0.2505
27203W        W45407   8.446   0.099  15.088 -0.0673  0.1727  0.1421
27204W        W45408  13.394   5.057   5.554 -0.0028 -0.0925  0.1478
27205W        W45409   8.151  17.150  13.413 -0.1123  0.1622 -0.3592
27206W        W45410   0.487   0.985  12.591  0.0599  0.0856  0.2697
27207W        W45411   8.713   9.741  14.167 -0.0365 -0.0243  0.3293
27208W        W45412  13.209  11.688   3.409 -0.0234  0.4156  0.2742
27209W        W45413   3.887  13.561  15.272  0.3398  0.1457 -0.2953
27210W        W45414  14.895   2.650   1.206 -0.0828 -0.1056 -0.3001
27211W        W45415   5.142   3.412  11.083 -0.0419 -0.1143  0.0079
27212W        W45416   3.952   3.635   2.509  0.3021 -0.0886  0.1189
27213W        W45417   9.890  14.646   2.396  0.3475 -0.2368 -0.1283
27214W        W45418   5.443   1.767  14.100  0.0876 -0.0987 -0.1057
27215W        W45419   2.877   9.687  11.079 -0.2260 -0.3587 -0.2720
27216W        W45420   9.853  14.085   3.329  0.0226  0.1711 -0.1401
27217W        W45421   4.363  15.581   3.123 -0.2415  0.1048  0.0990
27218W        W45422   0.665  17.771   1.469  0.1624 -0.2692  0.2064
27219W        W45423   7.860  10.186  13.789 -0.0221  0.0672 -0.1978
27220W        W45424  14.172   1.965   1.368  0.1997 -0.1653 -0.0422
27221W        W45425   8.146   2.664   4.109 -0.0628  0.2735 -0.0093
27222W        W45426   9.856  13.810  12.766  0.2285 -0.1298  0.0533
27223W        W45427  17.634   7.814  13.653  0.0884  0.0962 -0.3401
27224W        W45428  17.857   9.490  11.837  0.1940  0.2879  0.0392
27225W        W45429  18.027  17.840   2.813 -0.0583 -0.1620 -0.1366
27226W        W45430  16.786   1.989   0.466  0.0058  0.0871 -0.0027
27227W        W45431   4.322   9.784  10.005 -0.1345 -0.1991 -0.2229
27228W        W45432   2.843   5.743   2.020 -0.2610 -0.1397  0.1593
27229W        W45433  18.213   8.016  15.301 -0.0569 -0.1425 -0.2000
27230W        W45434   6.192   1.068   3.764 -0.3001 -0.2326  0.0669
27231W        W45435   2.998  15.706  13.408  0.0195 -0.0299 -0.2781
27232W        W45436   9.709  13.812   2.903 -0.4922  0.0737 -0.0107
27233W        W45437  16.757  13.673   4.113 -0.1728  0.3691 -0.2216
27234W        W45438  17.746  17.169  11.904 -0.0559 -0.1095 -0.0230
27235W        W45439   7.071  13.073   2.162 -0.1409  0.2745  0.2933
27236W        W45440  16.178   3.553  11.572  0.0026  0.3894 -0.1509
27237W        W45441   7.417   0.796  14.952  0.1762 -0.1855 -0.0931
27238W        W45442  11.077   7.310  14.677  0.0475  0.0341  0.1682
27239W        W45443   1.635   4.027   2.043  0.0691  0.1471  0.0997
27240W        W45444  18.122   7.744   0.777  0.2580  0.2667 -0.0378
27241W        W45445   1.912   7.305  13.880  0.0357  0.0916  0.0178
27242W        W45446  16.070  13.556  13.563  0.2529 -0.1743 -0.1844
27243W        W45447   1.250   6.635   4.938 -0.2547 -0.0039 -0.1008
27244W        W45448  17.083   2.240   3.578 -0.3231  0.1893 -0.4647
27245W        W45449  12.657  17.432  11.568  0.2680 -0.2559  0.2621
27246W        W45450  15.275   5.220  14.620  0.1387 -0.2405  0.0782
27247W        W45451  17.266   3.278  13.399 -0.0027  0.0552 -0.1879
27248W        W45452  17.626   4.579  11.778 -0.0711  0.2811 -0.2156
27249W        W45453   9.012  18.623   2.234  0.1573  0.0427 -0.2781
27250W        W45454  12.384   1.455  14.828  0.2184  0.2371 -0.3065
27251W        W45455   4.293  11.679   3.142  0.2265  0.2890  0.2910
27252W        W45456  17.367  14.371  11.819 -0.0279  0.2539 -0.1935
27253W        W45457   3.043  10.389  13.213  0.0157  0.1264 -0.0159
27254W        W45458   4.685   9.101  11.213  0.1289  0.1090  0.1329
27255W        W45459   0.908   7.713  14.505 -0.2564 -0.3487 -0.0260
27256W        W45460  16.698   7.919   3.217  0.0905 -0.0478 -0.2653
27257W        W45461  10.157   7.253   2.004  0.0962  0.2222 -0.1743
27258W        W45462   9.032   2.460   0.942 -0.0579 -0.1060  0.2527
27259W        W45463   6.178   7.656   3.101  0.0631 -0.0137  0.0908
27260W        W45464   6.046   4.148  14.340 -0.1547 -0.0341  0.3994
27261W        W45465  15.656  15.612  11.605 -0.0548  0.0683  0.0860
27262W        W45466  15.127  14.662   4.914 -0.0193 -0.1879  0.0659
27263W        W45467  17.611  10.584   1.187  0.0553 -0.0295  0.1784
27264W        W45468   1.924   9.067   3.480 -0.1694  0.0294 -0.2878
27265W        W45469  17.483  12.401   4.518  0.1211  0.0275 -0.2368
27266W        W45470   5.694  17.993   3.856 -0.0663  0.1488  0.5218
27267W        W45471   8.017  14.877   3.152  0.1929  0.0063  0.3458
27268W        W45472  16.917   1.920  11.758 -0.1088  0.3293  0.1974
27269W        W45473   2.305   8.266  12.886  0.0389  0.1460 -0.1726
27270W        W45474   2.767  11.863  14.621  0.1746 -0.0959  0.2647
27271W        W45475  10.587  14.484  11.386  0.4633 -0.2490 -0.1419
27272W        W45476  17.295  13.651   2.763  0.0780 -0.3226 -0.2054
27273W        W45477   2.611   5.354  12.541  0.1146 -0.0181  0.2851
27274W        W45478  13.835   4.702  14.727 -0.1818  0.0471  0.0789
27275W        W45479   4.484   4.328   1.896 -0.4167  0.2262  0.0442
27276W        W45480  18.065   5.257   4.366  0.0312  0.1193 -0.1838
27277W        W45481  13.379   8.404  15.383 -0.1622  0.0659  0.1881
27278W        W45482  18.445   5.317   2.006  0.4229 -0.2021 -0.1243
27279W        W45483  10.039   6.426   2.000  0.3051 -0.0813  0.5403
27280W        W45484  17.445   6.388   4.088  0.0060  0.1048  0.1913
27281W        W45485  12.652   9.617   4.342 -0.1207 -0.0475  0.0636
27282W        W45486   4.380   2.611   0.430 -0.1132  0.2656  0.0153
27283W        W45487  15.593  12.919  13.906 -0.4163  0.2378  0.3016
27284W        W45488  13.002  12.519   3.019 -0.2692 -0.2969  0.2978
27285W        W45489   5.233   3.859  13.530 -0.2068  0.0721 -0.4347
27286W        W45490   5.197  16.282   1.116 -0.3206  0.1040 -0.1476
27287W        W45491   2.499   9.025   5.356  0.0519 -0.0999  0.0951
27288W        W45492  12.469   2.379  13.617  0.2926 -0.2052  0.2313
27289W        W45493   7.207  14.589  11.388 -0.1757 -0.0957  0.0297
27290W        W45494  18.664   2.268  12.415  0.0253 -0.3014  0.0489
27291W        W45495  16.241   6.377  12.677 -0.0773 -0.2337 -0.1597
27292W        W45496  14.557   2.267  11.260  0.4640 -0.0560  0.0271
27293W        W45497  13.797  18.102   3.514 -0.0048 -0.1962  0.0831
27294W        W45498   0.537  12.354  14.754 -0.0955 -0.1322 -0.2048
27295W        W45499   0.287  15.038  10.216  0.1621  0.1529  0.2394
27296W        W45500   4.343  11.074  14.273 -0.4971  0.2363 -0.0211
27297W        W45501   3.487  10.497   0.821 -0.1704 -0.0382  0.1768
27298W        W45502   3.343   0.513  10.633  0.3149 -0.1572 -0.1632
27299W        W45503  11.677  11.828  11.252  0.0744 -0.0598 -0.0798
27300W        W45504  15.445   9.738  12.759 -0.1173  0.0854 -0.0952
27301W        W45505   7.455  14.655   0.075 -0.1703 -0.0333 -0.1077
27302W        W45506  18.066  13.711   0.648 -0.3392 -0.0030  0.1127
27303W        W45507   4.284   3.087   0.242  0.0876  0.0357 -0.0803
27304W        W45508   8.029   1.633   2.962 -0.0333 -0.0898 -0.1125
27305W        W45509  14.412  13.884   0.145  0.2856 -0.1073  0.3047
27306W        W45510   0.715  17.282   0.332 -0.0889  0.1854 -0.4301
27307W        W45511   5.036   4.240  10.756  0.0211 -0.3659 -0.2979
27308W        W45512   1.387   2.603   1.288  0.2889 -0.1712 -0.2201
27309W        W45513   9.074   4.228  11.523 -0.1450  0.3168 -0.0399
27310W        W45514  10.612   1.511   0.865 -0.1914 -0.2212  0.0043
27311W        W45515   0.376  10.971  14.816 -0.0455  0.0581 -0.2024
27312W        W45516   2.402   2.395   3.604 -0.2490  0.0944  0.0982
27313W        W45517   3.515   1.755  11.118  0.0360 -0.1807 -0.0719
27314W        W45518   2.654  16.384  15.220  0.0661 -0.2187 -0.2309
27315W        W45519  17.183  12.292  12.347  0.0050  0.0916  0.0378
27316W        W45520   2.712   1.577   4.418 -0.0808 -0.3050 -0.2435
27317W        W45521   6.094  12.602   4.099  0.0988  0.1874  0.2164
27318W        W45522  13.167   5.185  12.670  0.1454 -0.1411  0.4296
27319W        W45523   1.777   2.552   5.340 -0.2696  0.0147 -0.1328
27320W        W45524   5.952  10.304   1.531  0.3806 -0.0697  0.1985
27321W        W45525   2.670  13.703  11.475  0.1775  0.0292  0.0324
27322W        W45526   1.522  12.092   4.952 -0.0240 -0.2320 -0.0082
27323W        W45527  17.802   4.225   0.478  0.1283  0.1468 -0.2708
27324W        W45528  17.876  13.071  11.516 -0.3076  0.0153 -0.3159
27325W        W45529  14.497   4.727   0.028  0.3100  0.1507 -0.0928
27326W        W45530  16.893   8.076   1.760 -0.1629 -0.1587  0.2085
27327W        W45531   4.686  11.428   0.320  0.0597 -0.0788 -0.2995
27328W        W45532   0.544  18.595   4.556  0.1171  0.1541 -0.0847
27329W        W45533  11.199   4.381   3.826  0.2155 -0.3739 -0.0355
27330W        W45534  17.885   9.850  15.231  0.0886  0.1066 -0.3792
27331W        W45535  12.693   6.265   3.472 -0.1067  0.0394  0.0775
27332W        W45536   8.363   6.994   1.256 -0.0398 -0.1104 -0.3349
27333W        W45537  11.171   6.663  11.416  0.0695  0.2269 -0.1841
27334W        W45538   6.312   2.229   1.888 -0.0106 -0.0510  0.3797
27335W        W45539  15.761   4.933  12.821 -0.0143 -0.3377 -0.3940
27336W        W45540   3.125   7.303  11.575 -0.1394  0.1466 -0.1745
27337W        W45541  17.949   3.103   1.400 -0.2457 -0.0225  0.3045
27338W        W45542  14.464  14.184   0.531  0.1238 -0.0825 -0.1826
27339W        W45543  15.016   0.325  12.026 -0.2434 -0.0431  0.2916
27340W        W45544  11.179   9.048  11.522 -0.1791 -0.0920 -0.1469
27341W        W45545   7.438   1.821   3.575 -0.0005 -0.2940  0.1433
27342W        W45546   4.163   6.475   0.368 -0.3772 -0.2958  0.1584
27343W        W45547  15.871  11.022  11.777  0.0777  0.0531 -0.1734
27344W        W45548   2.913   6.397  14.529 -0.0147  0.1369  0.1012
27345W        W45549  11.942   8.269   4.316 -0.0615 -0.0313  0.0120
27346W        W45550  13.485  17.260  15.040  0.3339 -0.4015  0.1610
27347W        W45551   8.610   2.676  12.147  0.1140  0.2078 -0.2930
27348W        W45552  16.695   1.360  13.440  0.1958  0.0815 -0.3436
27349W        W45553  17.116  10.741   0.328  0.1299 -0.1120  0.0354
27350W        W45554   2.823   0.936  11.128 -0.0029  0.1001  0.0317
27351W        W45555   0.680   9.633   2.378 -0.0173  0.0790 -0.1593
27352W        W45556  15.004  17.930  12.799 -0.2654  0.1751  0.0720
27353W        W45557  15.423   7.524   3.663  0.0451  0.0731  0.1102
27354W        W45558   4.303   7.943  12.279  0.1650  0.1749 -0.0775
27355W        W45559   4.539  10.134   1.551 -0.1238 -0.0442  0.1126
27356W        W45560   9.109  12.576  10.105  0.2303  0.2839 -0.3115
27357W        W45561   8.088  12.648   0.063 -0.0492 -0.0368 -0.1667
27358W        W45562   2.756   6.086   1.223 -0.1692  0.2428 -0.2023
27359W        W45563  11.315   5.978  13.900  0.0217  0.0269 -0.0998
27360W        W45564   0.390   9.743   0.186  0.0871 -0.1644  0.1303
27361W        W45565  17.208   9.485  11.919  0.0994 -0.1854  0.2272
27362W        W45566  16.801  16.893  14.321 -0.1005 -0.0888 -0.0350
27363W        W45567  10.601   4.779   4.402 -0.2149  0.0746 -0.0358
27364W        W45568  14.073   4.080  12.979  0.0804 -0.0968 -0.0098
27365W        W45569  12.710   4.876   2.946 -0.5099  0.0805 -0.2746
27366W        W45570   4.932  11.367   3.362  0.1109 -0.1314 -0.0511
27367W        W45571  13.898  18.028   4.035 -0.0188  0.0093  0.3250
27368W        W45572   8.035   7.209   0.911 -0.0340 -0.1740 -0.1040
27369W        W45573  11.028   4.388  15.161 -0.0276 -0.0229 -0.1654
27370W        W45574   4.082  16.624  12.884 -0.0151  0.0221 -0.6139
27371W        W45575  15.608  18.624   1.964  0.1824 -0.3000 -0.0233
27372W        W45576   5.876   3.706   3.454 -0.0526  0.0034  0.0111
27373W        W45577   8.378   0.113  12.437 -0.0256  0.0307  0.0060
27374W        W45578   0.791   6.476   2.908 -0.1885 -0.3798 -0.0778
27375W        W45579  12.070  11.716   2.510 -0.3213 -0.2165 -0.0369
27376W        W45580  13.819  11.931   1.074 -0.0290  0.0969 -0.1284
27377W        W45581  17.347   9.882  11.071 -0.0568  0.1538  0.0871
27378W        W45582   4.696   3.744  12.029 -0.2561  0.2733 -0.0394
27379W        W45583   4.823  11.479   0.807 -0.0840 -0.3872  0.0507
27380W        W45584  14.328  15.933  15.119 -0.2581  0.3312  0.0622
27381W        W45585  18.541  17.281   4.842  0.3125  0.0417 -0.2085
27382W        W45586   1.830   4.637  13.858 -0.0940 -0.0321 -0.2590
27383W        W45587  11.733  14.283   2.726  0.0399  0.0356  0.1936
27384W        W45588  17.286   4.214   2.360 -0.0624  0.2559 -0.0061
27385W        W45589   9.681   6.417  14.367  0.1429  0.1403  0.1362
27386W        W45590  12.433   3.158  15.327  0.0535 -0.0907  0.1899
27387W        W45591   5.856   3.925   1.062  0.0239 -0.2235  0.1163
27388W        W45592   2.660   2.354  15.071  0.1821 -0.1003 -0.1576
27389W        W45593  11.573  13.999  13.770 -0.3444  0.4146 -0.1502
27390W        W45594   3.721   3.548   4.301  0.1982  0.0409  0.1255
27391W        W45595   1.187  16.025   2.910 -0.1026  0.1446 -0.2311
27392W        W45596   6.792   2.611   3.982  0.1743  0.0282 -0.2145
27393W        W45597  13.752  12.519   0.855  0.0975  0.2703 -0.1593
27394W        W45598  15.768   6.923   0.911  0.0784 -0.0752  0.1312
27395W        W45599  15.725  10.918  13.493 -0.1351  0.0278 -0.1015
27396W        W45600  17.960   4.223  12.254 -0.0325 -0.0136 -0.4766
27397W        W45601   6.115  11.307  14.258 -0.2353 -0.0339  0.0677
27398W        W45602  16.395   9.001   4.389 -0.1357  0.2098 -0.0708
27399W        W45603   1.436  16.876   1.467 -0.2800  0.0453  0.2857
27400W        W45604   8.546  11.992   0.653  0.1493  0.1354 -0.1871
27401W        W45605   7.142  16.497  13.771 -0.1695  0.1418 -0.1905
27402W        W45606  12.876  12.311  13.444  0.0589 -0.1513 -0.1590
27403W        W45607   0.962   3.091   4.468  0.2420  0.0002  0.2956
27404W        W45608   1.402   6.712  14.478  0.0513  0.0993 -0.0683
27405W        W45609   7.521   7.498  11.822  0.0775  0.0437  0.1356
27406W        W45610  10.326   8.470  11.940 -0.0250  0.1415 -0.2255
27407W        W45611  14.413  12.382   2.431  0.0074 -0.2386  0.3043
27408W        W45612   0.526   2.026   4.506  0.0856 -0.1530  0.1605
27409W        W45613  13.323  10.463   3.381 -0.1585  0.1717  0.0223
27410W        W45614  15.370   5.320   4.181 -0.3265 -0.0913 -0.4042
27411W        W45615   0.678   6.659  14.565 -0.1813  0.0874 -0.0317
27412W        W45616   8.342  12.445   1.532 -0.3614 -0.1237  0.3119
27413W        W45617   6.324   1.120  13.513 -0.0504 -0.0202  0.0048
27414W        W45618   1.134  16.941   0.366 -0.2253 -0.0705 -0.0759
27415W        W45619   6.444  10.087  10.467  0.1464  0.0815 -0.0639
27416W        W45620   1.860  11.087   2.764  0.2599  0.1239  0.0374
27417W        W45621  16.009  10.630   2.671  0.0324 -0.2104 -0.1641
27418W        W45622   6.075  12.708  13.834  0.1102 -0.1886  0.0473
27419W        W45623  14.537   4.681  14.234 -0.0918 -0.3243  0.3119
27420W        W45624   7.123   2.445  11.399  0.0800 -0.0792 -0.1322
27421W        W45625   6.494   0.854  14.656 -0.3684  0.0223  0.2376
27422W        W45626   2.931   3.438   2.224 -0.1045 -0.1043 -0.2913
27423W        W45627  14.482   9.852  11.782 -0.2653  0.1233 -0.0457
27424W        W45628   9.683  10.368  12.887 -0.1915  0.0798  0.0035
27425W        W45629   8.133   8.893   0.801  0.1332  0.1267  0.2280
27426W        W45630   5.335  15.423   1.995 -0.0300 -0.1757 -0.2713
27427W        W45631  10.386   9.577   4.609 -0.1461  0.3599  0.0545
27428W        W45632  14.431  12.855   2.209  0.1717  0.2459 -0.0500
27429W        W45633   8.746  17.595  12.591 -0.1347  0.4104  0.0167
27430W        W45634  11.354   6.989   2.015 -0.3174 -0.0098 -0.1346
27431W        W45635   2.857   7.180  10.673  0.0621  0.2924  0.1372
27432W        W45636   2.653   2.880   3.977 -0.2820  0.0009  0.0185
27433W        W45637   5.600   5.880   3.863  0.3936  0.1677 -0.2011
27434W        W45638   0.263   4.619  13.740 -0.2118  0.2718 -0.1107
27435W        W45639  14.627   8.733   5.416  0.3934  0.0565  0.0799
27436W        W45640  13.950   5.145   2.869 -0.1891 -0.1862  0.1737
27437W        W45641   7.515   3.029  13.268 -0.0016  0.0498 -0.1477
27438W        W45642   3.361  13.353  15.301 -0.1416 -0.0233  0.1482
27439W        W45643  10.387  12.364   4.661 -0.0037  0.1744  0.1098
27440W        W45644   1.288  16.290  14.137  0.0005 -0.0613 -0.1746
27441W        W45645  11.066  12.201  13.932 -0.1445 -0.1544  0.2381
27442W        W45646  16.148   8.754  13.670 -0.0150 -0.0769 -0.3731
27443W        W45647  11.270   7.657  13.172 -0.0464  0.3084  0.1096
27444W        W45648  12.635  10.255   3.474  0.2070 -0.0060 -0.0156
27445W        W45649   1.579  11.364  12.736  0.3846  0.2235  0.0106
27446W        W45650   7.626   5.313   2.550  0.0690 -0.0848  0.1447
27447W        W45651   9.344  10.738  10.827  0.0618  0.0155 -0.0755
27448W        W45652  12.231  11.625   0.615  0.0558 -0.0303  0.0294
27449W        W45653   5.052   2.463  13.015 -0.2708  0.0308 -0.0701
27450W        W45654  13.047   1.361   4.566 -0.2413 -0.0409  0.3298
27451W        W45655   2.245   8.208  14.178  0.0495  0.0766  0.0720
27452W        W45656  10.524   6.122   1.366  0.2562 -0.0028  0.2597
27453W        W45657   3.030   6.537   2.974 -0.2582 -0.4190  0.2943
27454W        W45658   4.669   8.064   0.373 -0.1254 -0.3233  0.2745
27455W        W45659   5.949  13.478   0.901  0.1559 -0.1000 -0.1530
27456W        W45660  10.736   4.540  14.771  0.2708  0.0332 -0.1134
27457W        W45661   9.883  13.233   4.317 -0.0405 -0.0313  0.0760
27458W        W45662  10.568   3.591  14.566 -0.1870  0.1398 -0.1288
27459W        W45663   4.951  13.785  14.675 -0.0881 -0.0368  0.1455
27460W        W45664  13.891  14.093   0.314  0.1275 -0.1639 -0.0417
27461W        W45665   7.336   9.838  14.016 -0.0184  0.4080  0.0535
27462W        W45666   8.847   8.950   5.061 -0.3277  0.3458  0.0304
27463W        W45667   5.642  17.785   0.239 -0.1103  0.1013  0.2359
27464W        W45668   9.524  17.296   5.845 -0.3821  0.1869  0.2797
27465W        W45669   7.981  13.823   2.238  0.3028  0.2327  0.2525
27466W        W45670   8.798  18.466   1.339 -0.4720  0.0554 -0.1145
27467W        W45671   8.091   6.720   2.850  0.0842 -0.0481 -0.0245
27468W        W45672   5.261   5.257  11.306 -0.3727  0.0259  0.1232
27469W        W45673   9.752  10.742  12.461  0.4588 -0.1155  0.2917
27470W        W45674   9.659   8.301   4.561 -0.0132 -0.4325 -0.3286
27471W        W45675   4.251  14.190   0.941  0.1197  0.0426 -0.4460
27472W        W45676  10.347   4.134   2.647 -0.0435  0.0895  0.2273
27473W        W45677   9.110  16.198  13.958 -0.4292  0.1562 -0.1718
27474W        W45678  11.230   2.504  10.990  0.1589 -0.2363  0.0249
27475W        W45679  11.539   0.333   4.377 -0.2350 -0.0984 -0.0146
27476W        W45680  18.690   2.241   4.286 -0.0056 -0.1290  0.2141
27477W        W45681   5.979   6.420  12.904 -0.0807  0.1442  0.3919
27478W        W45682   2.767   2.831  11.004  0.1438  0.2956  0.2699
27479W        W45683  11.285   0.411  14.179  0.1817 -0.0701 -0.2643
27480W        W45684   3.062  10.728   3.213  0.1710 -0.0416 -0.0043
27481W        W45685   5.077  14.726   0.667 -0.0496 -0.0250  0.3006
27482W        W45686   6.510   7.344   3.337  0.2554 -0.2017 -0.2535
27483W        W45687  11.715  15.072   5.459 -0.1673  0.1903 -0.1413
27484W        W45688  18.610  13.377   1.477 -0.0873 -0.0920  0.2263
27485W        W45689   4.692   9.042   1.138 -0.0949 -0.0839 -0.1465
27486W        W45690   2.583   9.006  13.325 -0.2085  0.0962 -0.0605
27487W        W45691   4.923  10.151   1.238 -0.0657 -0.0344 -0.2772
27488W        W45692   8.075  15.328   4.306  0.0186  0.0857 -0.0338
27489W        W45693   0.014  15.895   0.173  0.1638  0.1345  0.0585
27490W        W45694  14.490  17.600  14.474  0.1093  0.1179  0.2574
27491W        W45695  11.785   6.317   3.795 -0.2741 -0.1243 -0.5731
27492W        W45696   1.833  14.730   3.365  0.5749  0.0875 -0.0793
27493W        W45697   8.997   3.917  14.633 -0.1170  0.2035 -0.0351
27494W        W45698   0.058   0.815  14.160  0.0031 -0.5427  0.1766
27495W        W45699  13.893   3.371  11.660  0.0783  0.0957  0.0663
27496W        W45700  10.037   6.984   4.192 -0.2936  0.1357  0.1603
27497W        W45701   1.231   8.974  15.075 -0.0729  0.4136 -0.1435
27498W        W45702  11.070  11.214  12.850  0.2367 -0.1346  0.0358
27499W        W45703  18.265   3.624   3.596  0.2921 -0.0199 -0.1663
27500W        W45704   5.389  18.070   3.037  0.0153 -0.2274  0.1726
27501W        W45705  14.181  13.094  13.010  0.1000  0.2354  0.1524
27502W        W45706  15.213   4.533   0.984  0.1108 -0.1272  0.1248
27503W        W45707  18.099  14.571  14.930 -0.1744  0.1161  0.2179
27504W        W45708  15.156   2.364   4.451  0.1218  0.2932  0.1141
27505W        W45709   9.172   1.970  11.798 -0.2104  0.1723  0.1820
27506W        W45710  18.598   2.184  15.199  0.0718 -0.0489 -0.0504
27507W        W45711  12.705  13.313  15.187  0.0495 -0.0973  0.0345
27508W        W45712   5.627   3.719  12.031  0.0628  0.3487  0.0769
27509W        W45713  16.885   7.268  13.603  0.1552  0.2444 -0.1221
27510W        W45714   3.612   5.353  10.941 -0.0729  0.3737 -0.0072
27511W        W45715   4.416  16.054   3.484  0.3597  0.1464  0.1476
27512W        W45716   0.331  10.191  14.865 -0.2085  0.0048  0.0255
27513W        W45717  17.644   4.085  11.586 -0.2020 -0.1652  0.1529
27514W        W45718  17.964   2.493  14.420  0.1444  0.0782 -0.0096
27515W        W45719  16.060   9.912   4.409  0.2334 -0.0966  0.0780
27516W        W45720  12.675   0.552  14.991 -0.1535 -0.3048  0.0053
27517W        W45721   9.908  13.091   0.556 -0.0082 -0.0792 -0.1764
27518W        W45722   1.886  14.195   3.471 -0.4135  0.0749  0.0374
27519W        W45723  17.531   9.247   4.213  0.0904 -0.3096 -0.1151
27520W        W45724  16.044  10.367   4.148 -0.2273  0.0047 -0.1681
27521W        W45725  14.431  16.437  12.385  0.3085  0.3692 -0.1566
27522W        W45726   0.849   4.698   1.061  0.1959  0.0505 -0.1060
27523W        W45727   7.032   7.096   4.755  0.1324  0.3989  0.2087
27524W        W45728  12.913   1.425  11.328 -0.0448 -0.0640  0.0962
27525W        W45729   2.774   4.877  11.952  0.0497  0.0961  0.0598
27526W        W45730  16.499   6.315   3.067 -0.0363 -0.0451  0.1081
27527W        W45731   7.996  13.572  12.079 -0.1682  0.1616 -0.1222
27528W        W45732   3.374  16.715  11.625 -0.1850  0.2203 -0.1798
27529W        W45733   4.683   2.101   0.986  0.0311  0.0142  0.1378
27530W        W45734  16.106   4.374   4.340  0.1401  0.3830 -0.1177
27531W        W45735   2.296   0.096  10.937 -0.2025 -0.1870 -0.3166
27532W        W45736  12.500  15.389   2.275  0.2729 -0.0905 -0.5140
27533W        W45737  18.368   6.801  11.877 -0.1129  0.0008 -0.1302
27534W        W45738  10.108   5.062   3.452 -0.1738 -0.4774  0.3039
27535W        W45739   8.171  13.994  12.982 -0.1020 -0.3572  0.1620
27536W        W45740  14.118   2.454  15.330  0.2099 -0.5763  0.0012
27537W        W45741   6.531   0.710   1.669  0.2702  0.1671 -0.1166
27538W        W45742   0.325   7.788  14.892  0.1152 -0.2905  0.1746
27539W        W45743  14.423  15.138  13.847 -0.0917 -0.1017 -0.0009
27540W        W45744  13.863  16.109   3.957 -0.1138  0.0454  0.5816
27541W        W45745   5.439  11.379   3.169  0.1544 -0.1115 -0.3138
27542W        W45746   3.106   5.252  12.751 -0.2714 -0.2193  0.1014
27543W        W45747  10.410  15.673  15.420 -0.0214 -0.1046 -0.0876
27544W        W45748  10.246  17.993   0.612 -0.0796  0.0224 -0.1557
27545W        W45749   0.608  18.484   4.026 -0.0378  0.4713 -0.0576
27546W        W45750   4.001  16.935   1.274  0.0234  0.3383  0.0648
27547W        W45751   6.215   0.582   0.804  0.0690  0.0522  0.0969
27548W        W45752  11.655   4.283  14.674 -0.0757 -0.1221  0.2145
27549W        W45753  17.057   1.430  14.315 -0.0528 -0.2224 -0.0011
27550W        W45754  13.502  16.203  13.613 -0.2591 -0.5113 -0.1189
27551W        W45755  15.730  17.403   2.806 -0.2365  0.0506 -0.3047
27552W        W45756  11.140  14.642   2.049 -0.0675  0.1310 -0.3462
27553W        W45757  17.153   4.448  15.194  0.2324 -0.0610  0.2478
27554W        W45758  13.545   5.601   4.861  0.0078  0.1332  0.1303
27555W        W45759   4.756   9.006  12.314 -0.2401  0.3344 -0.0756
27556W        W45760  13.204   2.959  10.993  0.1784  0.1502 -0.0508
27557W        W45761   5.213   0.038  12.169  0.0328  0.1634 -0.3433
27558W        W45762   5.207  11.451   0.033  0.1583 -0.1261 -0.1702
27559W        W45763   7.302  14.722   2.156 -0.0175 -0.4043 -0.5539
27560W        W45764   5.944   8.225  13.466  0.0242 -0.0702  0.0223
27561W        W45765  12.159  17.016   2.546  0.0023 -0.2042  0.2390
27562W        W45766   8.375   6.756  11.914 -0.1886 -0.3181 -0.0524
27563W        W45767   3.495   6.368  13.975  0.3211  0.1115 -0.0127
27564W        W45768  11.745   7.616  14.789 -0.1256 -0.0394  0.0936
27565W        W45769   9.592   2.126  11.401  0.1201 -0.3724  0.3323
27566W        W45770  13.718   2.205   0.644  0.1622 -0.1791  0.1893
27567W        W45771   6.940  17.571   1.436 -0.0388 -0.1741  0.1528
27568W        W45772   2.294  13.049   0.542 -0.1807  0.0925 -0.2379
27569W        W45773   1.309  14.487  12.687  0.0505  0.4811  0.4424
27570W        W45774  12.761  17.653  13.789  0.0566  0.0531  0.0224
27571W        W45775   5.054  10.279  15.230 -0.0374 -0.1736 -0.0739
27572W        W45776  13.131   8.339  11.426 -0.1145 -0.0923  0.0821
27573W        W45777   8.213   9.040   4.017  0.0708  0.1907  0.3303
27574W        W45778   8.980  11.002  11.194 -0.2127  0.0673 -0.1906
27575W        W45779  18.392  12.444   1.947  0.1835 -0.3462 -0.1997
27576W        W45780   6.769   5.509   5.146 -0.0750  0.3559  0.0835
27577W        W45781  13.512  10.827  14.681 -0.0049  0.4198 -0.0852
27578W        W45782  15.080   4.858  13.384 -0.3476  0.1857 -0.1698
27579W        W45783  13.130   6.855   2.273  0.4439  0.2084 -0.1801
27580W        W45784  12.512   9.568  12.137 -0.0407 -0.3504  0.2529
27581W        W45785  18.338   9.287   4.464  0.1051  0.0094  0.0045
27582W        W45786   1.865   1.046  13.385 -0.1565 -0.4720 -0.2045
27583W        W45787  12.854  12.454  12.949 -0.1060  0.0199  0.0004
27584W        W45788   5.702  12.736   4.402  0.1284 -0.1592  0.1209
27585W        W45789   2.513  14.263  12.928 -0.1242  0.2860  0.1584
27586W        W45790  15.796   8.650  14.053  0.3063  0.1272 -0.0651
27587W        W45791   5.116   5.230   1.482  0.1887  0.3351  0.0626
27588W        W45792   9.974   0.213  14.248  0.0802 -0.2448 -0.0750
27589W        W45793  13.778   5.309  13.296  0.3926  0.0793  0.0296
27590W        W45794   5.093  15.697   2.450 -0.1058 -0.0261 -0.1074
27591W        W45795   9.349   1.743   2.733  0.0425  0.1100 -0.3970
27592W        W45796  16.447   4.425   1.892  0.1173  0.2843  0.1166
27593W        W45797  17.612  16.311  12.239 -0.0715 -0.3248  0.2241
27594W        W45798  13.470   3.757  13.747 -0.1045  0.1619  0.2066
27595W        W45799  11.190  11.662  12.614 -0.1041 -0.0099  0.5119
27596W        W45800   5.124  17.468   1.639  0.1820 -0.1103  0.0108
27597W        W45801  15.476   4.980   1.213  0.1364  0.0773 -0.0596
27598W        W45802   3.488   6.446   2.729  0.0326  0.0367 -0.0501
27599W        W45803   3.152  16.549   5.445  0.0006 -0.2384 -0.0197
27600W        W45804  12.478   2.083   1.832 -0.0707  0.0828 -0.2016
27601W        W45805  18.633  13.960  14.417 -0.3109 -0.1035  0.0486
27602W        W45806   3.404   7.894   3.971 -0.3428  0.0761  0.1462
27603W        W45807   6.721   8.146  15.072  0.0556  0.1380 -0.2199
27604W        W45808  17.140  14.735  14.872 -0.2334 -0.1061 -0.0469
27605W        W45809   1.559   8.668  10.475  0.0172  0.0407  0.1927
27606W        W45810   8.377   9.791  11.914  0.1748 -0.0694  0.3450
27607W        W45811   6.910   4.753  11.655  0.2176 -0.1987 -0.0442
27608W        W45812  18.355  14.452  14.300 -0.2329  0.0362  0.0268
27609W        W45813   3.224  13.824  12.965 -0.0115  0.2292  0.1024
27610W        W45814   6.452   5.205   3.850  0.0392  0.2404  0.1391
27611W        W45815   3.695  17.957   0.989  0.0280 -0.1405 -0.1001
27612W        W45816   3.495  14.590   1.926  0.0685  0.2097 -0.3011
27613W        W45817   1.753   8.485   3.706  0.2019  0.2500 -0.0861
27614W        W45818  15.876  13.075   4.730 -0.0461  0.3522 -0.0601
27615W        W45819   7.451  12.907  12.286  0.1751 -0.2442  0.1831
27616W        W45820   8.954  13.718   2.181  0.1063  0.0555  0.1550
27617W        W45821  13.439  16.985   1.550  0.2359  0.2036 -0.0200
27618W        W45822  13.261   5.138   2.885 -0.4540  0.0085  0.0030
27619W        W45823  12.432   6.650   1.552  0.2009  0.2629 -0.3131
27620W        W45824  14.915  10.959  12.634 -0.0795 -0.0398 -0.0516
27621W        W45825   0.085   1.905  13.986  0.2254 -0.1548  0.1062
27622W        W45826   6.584  15.704  15.227  0.0185 -0.0841  0.0506
27623W        W45827  17.280   3.106   3.997 -0.1837 -0.1218  0.2726
27624W        W45828  10.449   8.932   1.549  0.0748 -0.3094  0.2991
27625W        W45829   2.216   3.574   2.835 -0.0032  0.1890  0.0073
27626W        W45830   1.317  13.925   1.211 -0.2559 -0.1451  0.0262
27627W        W45831   9.549   7.329   0.269 -0.0071 -0.2060 -0.2274
27628W        W45832  14.118   1.105   2.991 -0.1142  0.0167 -0.0729
27629W        W45833   2.743   4.054  12.992  0.1961  0.1917 -0.4443
27630W        W45834   7.521   2.265  15.057  0.1375  0.2319 -0.1782
27631W        W45835  18.394  17.020  15.039 -0.0818  0.1424 -0.3198
27632W        W45836  17.149   3.285  15.012 -0.0884  0.1466  0.2892
27633W        W45837   4.575   6.541  15.052  0.0271 -0.0876  0.2659
27634W        W45838   9.235   6.219   1.700 -0.2905 -0.0495 -0.2474
27635W        W45839   8.923   6.471  10.969  0.0687  0.2189 -0.0078
27636W        W45840  17.405   2.000  14.620 -0.3330 -0.1568  0.1392
27637W        W45841   4.547  17.631   2.245 -0.0534 -0.0036  0.0569
27638W        W45842   1.141  18.496  15.393  0.2194 -0.1314  0.1693
27639W        W45843   0.222  18.575  11.327 -0.0256  0.2459  0.2483
27640W        W45844   1.931   5.433   1.390 -0.1733 -0.2508 -0.1720
27641W        W45845   6.764   1.386  13.739  0.1796 -0.4213 -0.0533
27642W        W45846  18.482  18.379  11.262  0.3044  0.2560 -0.1015
27643W        W45847   2.515  17.998  12.992  0.2065 -0.4221  0.1797
27644W        W45848  12.416  10.865  12.586 -0.1832 -0.1612 -0.2836
27645W        W45849  15.911  17.407  15.013 -0.0040  0.3539 -0.5286
27646W        W45850   5.172   3.190   0.710  0.1132  0.0744  0.0886
27647W        W45851   4.340   6.344  13.491  0.2541 -0.2615  0.0970
27648W        W45852   9.380   8.899   5.930 -0.1436 -0.3242  0.0879
27649W        W45853   0.011   3.394   3.338 -0.1780  0.3798  0.3504
27650W        W45854   0.961  10.137  13.801  0.0059 -0.0745 -0.1473
27651W        W45855   4.740   6.948  12.888  0.0559 -0.2439 -0.2159
27652W        W45856  14.827   6.378   0.284  0.2914  0.3994  0.1997
27653W        W45857   2.496  11.112   4.281  0.1469  0.1642  0.0306
27654W        W45858   3.477  11.792   0.247 -0.4564 -0.2428 -0.3842
27655W        W45859  14.752  17.147  12.752  0.0477  0.0631 -0.1356
27656W        W45860   7.097   7.215   3.756  0.1134  0.0388  0.0852
27657W        W45861   1.098   8.736   2.141 -0.0179  0.0046  0.1671
27658W        W45862  14.630   2.894   0.450  0.3847  0.1081  0.0637
27659W        W45863  12.639   6.046  12.450  0.0401 -0.1549  0.1417
27660W        W45864  12.953  13.666   3.000  0.0633 -0.0126  0.0698
27661W        W45865   2.640   1.660  11.447 -0.3766  0.2916  0.1712
27662W        W45866   4.342   4.997  10.780 -0.0842  0.1050  0.0011
27663W        W45867  16.162  13.162  15.407 -0.3262  0.0395  0.2461
27664W        W45868   1.858  17.948  14.775 -0.2048 -0.0892  0.1497
27665W        W45869  11.222   2.277  12.332 -0.1918 -0.1108 -0.4174
27666W        W45870   1.515   4.863   3.172 -0.2413  0.0524 -0.1267
27667W        W45871   6.718   2.648  11.735  0.0230 -0.5126  0.1055
27668W        W45872  17.827   8.655  14.780 -0.0652  0.0246 -0.0869
27669W        W45873   2.345  17.904  15.304 -0.2752  0.1007  0.0639
27670W        W45874  11.161  15.092   1.804  0.1955 -0.0520  0.0860
27671W        W45875  12.444   4.228  15.305  0.0153  0.4695 -0.0251
27672W        W45876  11.993   1.537   2.622 -0.0073  0.2345 -0.1042
27673W        W45877  11.491  17.185  13.382 -0.1649  0.5537 -0.0093
27674W        W45878  12.104   7.663   3.614  0.2065  0.1968 -0.1383
27675W        W45879   5.665  13.954   4.743 -0.2590  0.1633 -0.1033
27676W        W45880  14.326   0.177  14.748  0.1324  0.1895  0.1052
27677W        W45881  11.990  10.525  12.586  0.1760  0.0892  0.1413
27678W        W45882  17.801   4.995   2.552  0.2936  0.1033 -0.2131
27679W        W45883   1.344  14.966   0.348  0.1894 -0.0860 -0.1799
27680W        W45884   3.982   7.900   0.581  0.2202 -0.2371  0.0858
27681W        W45885  13.779   3.080  14.498 -0.3729 -0.0957 -0.0707
27682W        W45886  10.004   9.305   0.229 -0.0584  0.1063 -0.3519
27683W        W45887  14.761   1.604  14.243  0.2843 -0.1326 -0.0486
27684W        W45888  12.153   5.066   0.510  0.0387 -0.1464 -0.0561
27685W        W45889  11.274  15.032  11.284  0.3602 -0.1499  0.1118
27686W        W45890   6.416   3.008  14.497 -0.1208 -0.0721 -0.0506
27687W        W45891  18.187  15.892   3.609 -0.0666  0.2969  0.1711
27688W        W45892  18.113  11.988   2.850 -0.1424  0.1535  0.1783
27689W        W45893   9.113   5.759   0.729  0.0983  0.0491  0.1832
27690W        W45894   5.298   1.849   9.680  0.2857  0.3254 -0.1429
27691W        W45895  16.109   6.511   2.125 -0.0537 -0.2478 -0.1782
27692W        W45896   1.547  12.531  15.293  0.0020 -0.0470  0.1321
27693W        W45897   0.134  15.718   3.772  0.0524  0.0572 -0.2852
27694W        W45898  17.742   6.832   4.121  0.1369  0.2454 -0.1780
27695W        W45899  11.256   3.676  13.924  0.0164 -0.0260  0.0310
27696W        W45900  12.000  13.172   1.731 -0.2477 -0.1977 -0.1310
27697W        W45901  16.974   0.137   2.282  0.0232  0.2220 -0.0394
27698W        W45902   8.816  12.835  10.676  0.2713  0.0690  0.2528
27699W        W45903   4.981   6.467  12.808  0.0248 -0.2635  0.3395
27700W        W45904  12.976   9.648   3.836 -0.1131  0.0785  0.2838
27701W        W45905   8.222   8.163  15.119 -0.0964  0.2315  0.1852
27702W        W45906   4.092  10.889  13.512  0.2627 -0.2041 -0.0826
27703W        W45907   6.067   2.510   9.648 -0.0852 -0.1266 -0.1367
27704W        W45908  10.466  11.705   4.596  0.3327 -0.1334  0.0181
27705W        W45909  17.512   6.276  15.170 -0.2539 -0.1763 -0.1923
27706W        W45910   4.300  16.157   0.632 -0.0633  0.1272  0.0488
27707W        W45911  12.699   0.059  13.278 -0.0372 -0.1730 -0.1028
27708W        W45912  12.028  17.226  10.699 -0.1427 -0.0068 -0.2852
27709W        W45913   3.636   2.543  15.348  0.1562 -0.0694 -0.0341
27710W        W45914   8.073   4.037  15.064  0.0258 -0.2970  0.0907
27711W        W45915  10.454   1.392   0.379 -0.0351  0.0185  0.0853
27712W        W45916  18.227  18.496  14.364 -0.0294  0.0094 -0.2573
27713W        W45917   6.487  16.687   1.295  0.2829  0.1693  0.3291
27714W        W45918  13.144  12.100  14.969  0.3343 -0.2883  0.0589
27715W        W45919   3.863   1.851  15.118  0.1066  0.0902 -0.0456
27716W        W45920   6.250   5.232   1.167 -0.1065 -0.3114 -0.1886
27717W        W45921   3.957  11.478   4.926 -0.1936  0.0705 -0.1399
27718W        W45922  14.222   6.404   1.039  0.3315 -0.0072 -0.3290
27719W        W45923  10.279   2.343   3.355  0.2858 -0.0495  0.1937
27720W        W45924   8.357   5.903  13.983 -0.0771 -0.0235  0.0119
27721W        W45925  12.407  10.309  14.243 -0.1050 -0.1366  0.0717
27722W        W45926  16.936  16.141  13.801 -0.3926  0.0742 -0.1223
27723W        W45927   1.077  17.767   0.464 -0.0329 -0.1129  0.1600
27724W        W45928  16.088  12.618   1.648  0.3676  0.2614  0.0845
27725W        W45929   6.672   8.475  14.166 -0.1225 -0.0248 -0.0124
27726W        W45930   7.875   0.842   3.560  0.1450  0.2544 -0.2055
27727W        W45931  14.655   0.299  13.020 -0.1088  0.1359  0.0357
27728W        W45932   0.862  10.003   0.265 -0.2307  0.2206 -0.1689
27729W        W45933   7.537   6.035   2.069  0.4111  0.4637 -0.0157
27730W        W45934  11.849  18.073  13.029 -0.1015 -0.1664  0.2063
27731W        W45935   8.829  15.417   1.149 -0.4663  0.0218 -0.3935
27732W        W45936   3.630   1.926  11.652 -0.1147  0.0513 -0.0847
27733W        W45937  14.803  13.537   1.028 -0.3831  0.0583  0.3350
27734W        W45938   4.020   2.203  11.443  0.1610 -0.3102  0.1488
27735W        W45939   0.086   8.300   2.287  0.0798  0.1500 -0.1292
27736W        W45940   0.304  17.736  12.730 -0.0336  0.1773  0.1533
27737W        W45941  13.888   5.062  14.366  0.4535  0.2451 -0.0162
27738W        W45942   1.266  11.789   9.743 -0.0838 -0.0276 -0.2178
27739W        W45943  12.494  17.346   2.301  0.1487 -0.0520  0.1900
27740W        W45944   2.832  11.043   3.753  0.3432 -0.0004  0.1018
27741W        W45945   0.231  18.182   4.387 -0.1991 -0.0607  0.3081
27742W        W45946  11.307  13.424  14.273  0.1434  0.0457  0.0829
27743W        W45947  10.968  16.856  13.192  0.4424  0.1340  0.1099
27744W        W45948  13.416   6.792  11.403 -0.2994  0.3266 -0.1099
27745W        W45949  18.573  16.507  13.188 -0.0184  0.3074  0.1827
27746W        W45950  16.177  17.368  11.763  0.0656 -0.0793 -0.2964
27747W        W45951   4.259   4.725   0.394 -0.0757 -0.0174 -0.3301
27748W        W45952   0.277  17.232   4.391  0.0139 -0.2238 -0.2415
27749W        W45953  14.452   8.030   3.004 -0.0565  0.1305 -0.1414
27750W        W45954   8.995   4.493   0.466  0.0595  0.3150 -0.3630
27751W        W45955   1.098  11.703  15.321  0.2059 -0.2049 -0.1576
27752W        W45956   5.832  11.518  12.834  0.0848  0.1807  0.0808
27753W        W45957  16.257  16.044  12.527  0.1984 -0.0999 -0.0355
27754W        W45958  18.650  12.421  11.604  0.3612 -0.3130  0.1317
27755W        W45959   7.172   0.884   3.962 -0.0282  0.1618  0.0113
27756W        W45960   4.394   6.256  12.161 -0.1091 -0.0210  0.2438
27757W        W45961   8.359   6.516   2.363 -0.2325  0.1350  0.0683
27758W        W45962   8.179  12.924   3.787 -0.0878  0.0320 -0.0638
27759W        W45963  15.565   6.446   0.632  0.1631 -0.0303  0.2545
27760W        W45964  17.811   4.473   3.644 -0.0840  0.0215  0.1743
27761W        W45965   8.565  15.832   1.184 -0.1277 -0.0062  0.1086
27762W        W45966  15.467   6.474  13.594 -0.0095  0.0864 -0.2188
27763W        W45967   2.764   7.546  15.399 -0.0303 -0.0475  0.2249
27764W        W45968   4.911   3.378   2.246  0.0416  0.2643 -0.3872
27765W        W45969  11.957  13.865   0.058 -0.0719 -0.1040 -0.0601
27766W        W45970   8.695  10.979  12.133 -0.2930 -0.2268 -0.0158
27767W        W45971   8.985   6.209   4.299 -0.0887 -0.2386  0.1165
27768W        W45972   7.033   0.757  10.963  0.0392 -0.2675  0.2699
27769W        W45973   9.289   4.873   1.079  0.0460  0.1699 -0.2984
27770W        W45974   8.101  14.505  13.410  0.0457  0.3573 -0.4067
27771W        W45975  12.439  11.505  10.169  0.2634  0.1426 -0.0358
27772W        W45976  13.949   0.571   1.311 -0.1335 -0.0957  0.0730
27773W        W45977   4.207   2.954   3.652  0.2819 -0.2902 -0.1712
27774W        W45978   0.254  13.867   0.276  0.1081 -0.3565  0.0638
27775W        W45979   9.455  18.255   4.212  0.2257 -0.0350 -0.3083
27776W        W45980  12.671   1.812   1.410 -0.0490 -0.2456  0.0371
27777W        W45981   5.887   8.729   2.870  0.1279 -0.0682 -0.0429
27778W        W45982  15.424  11.043   2.968 -0.1522  0.4433  0.2698
27779W        W45983   1.040  11.108  14.086 -0.1543 -0.1437 -0.0237
27780W        W45984  17.390  14.399   0.645 -0.3081  0.2265 -0.0160
27781W        W45985  12.916   6.748   1.462  0.1372 -0.0814 -0.0454
27782W        W45986   3.379   4.383   2.565 -0.3158 -0.1294 -0.1631
27783W        W45987   1.350   0.520   4.728  0.0559 -0.0157 -0.1550
27784W        W45988   1.264   9.078   1.795  0.0133 -0.0620  0.2659
27785W        W45989   8.074   5.269  11.536 -0.1882  0.0807  0.2030
27786W        W45990   8.358   0.541  15.281  0.1588 -0.1473 -0.2276
27787W        W45991  16.247  16.468   4.005  0.3270 -0.1098  0.0036
27788W        W45992   2.982  12.213   3.102 -0.0682  0.1196 -0.1462
27789W        W45993  16.911   1.865  13.635 -0.3856  0.0113 -0.1403
27790W        W45994  15.428  10.085  14.717 -0.1092 -0.1393 -0.1645
27791W        W45995  11.165   4.222  11.328  0.0728 -0.0642  0.0259
27792W        W45996   1.250   1.073   3.704  0.1062  0.1954  0.2080
27793W        W45997   8.647   1.437   3.555  0.2205 -0.2932 -0.2267
27794W        W45998  16.709   1.635   3.195 -0.1786 -0.2184 -0.3705
27795W        W45999  13.154   0.328  15.100  0.0937 -0.1938  0.0546
27796W        W46000  10.189  10.426  14.706  0.0645  0.1424  0.0783
27797W        W46001  18.090   8.168   3.685  0.1829 -0.0575 -0.2061
27798W        W46002   8.224   0.231   2.397 -0.1278  0.3588 -0.1890
27799W        W46003   2.238  18.370  13.271  0.1529  0.2588  0.1633
27800W        W46004   8.783   7.691  15.314 -0.0159  0.3498  0.1272
27801W        W46005   0.878  14.591  12.981  0.1404 -0.1308 -0.0285
27802W        W46006   4.312   5.177  13.254 -0.5629 -0.0648  0.2121
27803W        W46007   7.460  17.135   3.100 -0.1506  0.2511  0.1514
27804W        W46008   9.503  10.853   2.038  0.0054 -0.0794  0.0453
27805W        W46009   6.085  15.487   2.112 -0.0174 -0.1239  0.2896
27806W        W46010  17.874   1.844  10.334  0.1524 -0.6276  0.2490
27807W        W46011  18.367   3.016  14.985  0.1212 -0.2778  0.0983
27808W        W46012  10.731   3.440  12.122  0.1457 -0.1841 -0.1889
27809W        W46013   9.655  10.564   3.847 -0.1974  0.0353 -0.0376
27810W        W46014   5.182   4.536  12.119  0.0961  0.2757 -0.1115
27811W        W46015   2.732  12.967  10.766  0.1620  0.0497  0.1613
27812W        W46016  10.954   2.685  14.449 -0.3645  0.1715  0.1388
27813W        W46017  12.852   7.410  11.222 -0.0745  0.1182 -0.1513
27814W        W46018   2.866  11.148   4.665 -0.0677 -0.1825  0.2200
27815W        W46019   6.855  14.891  12.788 -0.2389 -0.2206 -0.3871
27816W        W46020  17.694   2.954   4.206 -0.1364  0.1950 -0.2763
27817W        W46021   7.153  12.326  13.851 -0.1359 -0.1569  0.1316
27818W        W46022   8.716   5.404  11.787 -0.1103 -0.0055  0.1183
27819W        W46023  16.352   7.250   1.989 -0.1943 -0.0269  0.2050
27820W        W46024  10.192  17.250   1.633 -0.0764 -0.4049 -0.2420
27821W        W46025  16.553   7.707   1.637  0.3186  0.2368 -0.0698
27822W        W46026   9.984   2.885  12.467 -0.0839  0.0735  0.2947
27823W        W46027   9.877   7.856   4.461 -0.3244  0.1480  0.0232
27824W        W46028  12.708   1.823  11.654  0.2683 -0.0553  0.0149
27825W        W46029  14.055  18.501   0.788  0.0288  0.2446  0.0993
27826W        W46030   8.880   4.488  15.412  0.0663 -0.1169  0.1014
27827W        W46031   6.639  15.322   1.161 -0.2596  0.1378  0.0305
27828W        W46032   9.646   3.629   2.187  0.0417  0.2874  0.0050
27829W        W46033   3.271   1.396   1.829  0.0302  0.1490 -0.1242
27830W        W46034  14.201   5.268  11.629  0.4213  0.2169  0.0345
27831W        W46035   0.612   0.381   3.783  0.1156 -0.1060  0.2054
27832W        W46036   6.241   4.446   2.990 -0.0203  0.1276 -0.2012
27833W        W46037  13.732   4.641  11.992 -0.3024  0.1176  0.1122
27834W        W46038  15.943   6.090   2.393  0.1893 -0.1699  0.1202
27835W        W46039   7.744   9.321   0.172  0.2284 -0.0472 -0.0520
27836W        W46040   7.248   9.276  13.884  0.2002 -0.0351 -0.2088
27837W        W46041  15.058  12.426   4.644 -0.1231  0.0515 -0.0673
27838W        W46042   4.070   6.673  13.000 -0.3133 -0.1285  0.0786
27839W        W46043   3.251  14.352  11.882 -0.0011  0.0552  0.0671
27840W        W46044   3.021   6.266  10.957 -0.1302 -0.1653 -0.2384
27841W        W46045  11.179   0.799  11.278  0.3850  0.2009 -0.0110
27842W        W46046   7.454   1.167   0.225 -0.0009  0.0983  0.2470
27843W        W46047  17.286  12.008  11.124 -0.0421 -0.2946 -0.1980
27844W        W46048  15.765   5.018   3.859 -0.1117 -0.1128 -0.2146
27845W        W46049   3.304   6.377  13.462  0.0264  0.2292  0.0734
27846W        W46050   7.061   2.000   0.292 -0.0752 -0.2543 -0.0497
27847W        W46051  18.683   5.081   1.266  0.2194  0.0098 -0.1854
27848W        W46052  12.812   8.535   1.204  0.3077  0.2563 -0.0594
27849W        W46053   0.517  13.200  12.151 -0.3089 -0.2029 -0.1426
27850W        W46054   4.600  14.806  11.630 -0.0997 -0.2572 -0.3405
27851W        W46055  12.540  10.307  11.353 -0.1204  0.1139  0.0349
27852W        W46056   3.342  17.536  15.237  0.0610 -0.0082 -0.3713
27853W        W46057   2.498   2.528  13.393  0.0896 -0.0225  0.0415
27854W        W46058   6.772   0.810  11.936 -0.1329  0.0890 -0.0199
27855W        W46059  10.025   2.582  12.046  0.0975 -0.1668  0.1464
27856W        W46060  12.142   9.397   4.427  0.2208  0.1129 -0.0793
27857W        W46061  10.010  11.125  12.739 -0.1094  0.0100 -0.2743
27858W        W46062  17.450   6.696   0.099  0.0851 -0.0017 -0.0372
27859W        W46063  10.715  12.802  12.187  0.4145  0.2114  0.0563
27860W        W46064  12.305  14.835  14.169 -0.2247  0.1066  0.0785
27861W        W46065   9.863   8.457   2.858 -0.2821 -0.0648 -0.0091
27862W        W46066  13.871   0.968  15.301  0.2033 -0.0499  0.2538
27863W        W46067  16.245  17.751   2.564 -0.1913 -0.1030 -0.3889
27864W        W46068  18.514  15.909  14.849  0.1984 -0.3706 -0.0740
27865W        W46069  18.670  16.843   3.503 -0.1323  0.1347 -0.1653
27866W        W46070   1.868   1.906  14.618  0.1551 -0.0830 -0.0935
27867W        W46071   4.861   7.735   5.555 -0.0610  0.2626  0.1995
27868W        W46072  13.608   0.362  14.051 -0.1693  0.1552 -0.1674
27869W        W46073  13.226   9.083  14.876 -0.0477  0.2490 -0.0365
27870W        W46074   0.018  15.638   1.552 -0.1186 -0.0686  0.1883
27871W        W46075   3.315   8.380   1.212 -0.0694  0.0711 -0.0707
27872W        W46076   9.538  12.843   9.952 -0.1648  0.2752  0.2835
27873W        W46077  10.861   2.889  14.915  0.0675  0.1764  0.3896
27874W        W46078   2.144  14.134  12.193  0.1966 -0.1842  0.1141
27875W        W46079  17.561   9.662   2.728  0.0872  0.3385  0.1828
27876W        W46080   1.977  15.982   0.108  0.2072  0.0634 -0.1217
27877W        W46081   5.479   4.833   2.240 -0.1725 -0.0582 -0.0291
27878W        W46082   3.567  11.003  10.591 -0.2476  0.1203  0.3663
27879W        W46083  17.954   9.984  12.059 -0.0565 -0.2343 -0.0047
27880W        W46084  14.370   5.179   0.257  0.0146 -0.0149  0.0322
27881W        W46085  18.636   5.338  11.635 -0.1339 -0.2222 -0.0965
27882W        W46086   1.427   2.285   0.877 -0.1823 -0.2239 -0.5830
27883W        W46087  14.582  17.674  12.474  0.0269  0.0325  0.1563
27884W        W46088  11.385  12.692  14.169  0.1148  0.1388  0.1600
27885W        W46089  15.726   4.826  12.033  0.0348 -0.1007 -0.2231
27886W        W46090   2.823   0.109  12.253 -0.0405 -0.0169 -0.1455
27887W        W46091  12.087  16.158  15.186 -0.2685  0.0266 -0.0174
27888W        W46092   3.955  16.199  11.103 -0.0053 -0.3955 -0.3174
27889W        W46093  17.685   7.318  11.560  0.1775  0.1401  0.1948
27890W        W46094   6.490   2.163   1.085  0.0624  0.2307  0.0249
27891W        W46095  12.781   1.229   1.389  0.1309  0.0174  0.0593
27892W        W46096  14.748  11.243   1.051  0.1284  0.1080 -0.1942
27893W        W46097  11.991   6.496   5.081  0.1227  0.3021 -0.0028
27894W        W46098   1.627   9.747   2.746  0.1883  0.0678  0.1813
27895W        W46099  10.937  13.459   2.340 -0.0148 -0.4208 -0.1241
27896W        W46100   8.531   6.522   1.112 -0.2442 -0.0133 -0.2972
27897W        W46101   5.843  18.324   4.245 -0.1500  0.1592  0.0363
27898W        W46102  13.246   3.097   3.612  0.2306  0.0793 -0.2996
27899W        W46103  15.374   7.452  12.798 -0.1145 -0.0619  0.0167
27900W        W46104  15.003  10.389   1.243  0.2887 -0.0842  0.0186
27901W        W46105   5.433   1.719  15.230  0.2020 -0.1349  0.0041
27902W        W46106  15.109  17.318  15.086  0.1430 -0.0118  0.0363
27903W        W46107   3.687   2.897  12.143  0.0646 -0.0154 -0.3968
27904W        W46108  13.484   0.275   2.414 -0.1520 -0.2166 -0.0975
27905W        W46109  16.775  13.280   0.341 -0.1843 -0.1474  0.0225
27906W        W46110   4.892  11.309  12.108 -0.0001  0.1574  0.1810
27907W        W46111   8.802  16.126  13.050 -0.0330 -0.1303  0.0349
27908W        W46112   6.299   6.242  14.851 -0.0374 -0.1619 -0.1463
27909W        W46113  17.340  11.608   2.078 -0.0436  0.0675 -0.1385
27910W        W46114   8.572   8.282   4.078 -0.0915  0.0255 -0.0660
27911W        W46115  15.725  10.227   1.369  0.0313 -0.0872  0.4725
27912W        W46116  14.429  17.388   0.577 -0.1043  0.2541  0.0540
27913W        W46117   1.093  17.410   4.623  0.1123 -0.2787  0.0336
27914W        W46118   4.264  15.061   0.243 -0.1368 -0.3246 -0.1473
27915W        W46119  11.949   1.288  14.065  0.2444  0.0888  0.3571
27916W        W46120   2.294   5.654  14.352  0.1179 -0.3084  0.1649
27917W        W46121   3.593   8.895   1.431 -0.2564  0.1713 -0.0540
27918W        W46122  13.728   2.315   2.342 -0.2763 -0.0784 -0.1498
27919W        W46123   7.490  12.248  14.813  0.0275 -0.2264  0.0386
27920W        W46124   0.319   0.929  15.360  0.0322 -0.2231 -0.2518
27921W        W46125  14.719  15.825   1.743  0.0161 -0.0707  0.0554
27922W        W46126  12.436   0.211   1.593  0.0144 -0.1980 -0.0209
27923W        W46127   9.089   8.974   4.391 -0.2011  0.0577  0.1922
27924W        W46128   3.020   9.547  13.648 -0.0303  0.2079  0.0919
27925W        W46129   5.291  11.617  12.081  0.0028  0.0548  0.0001
27926W        W46130   0.875  14.507   4.292  0.0922  0.0926 -0.1679
27927W        W46131   7.214  11.354  12.975  0.2622  0.1135 -0.1835
27928W        W46132  11.130  13.067  11.587 -0.0290  0.0969  0.1479
27929W        W46133   8.999   5.621   2.366  0.1416  0.1943 -0.0410
27930W        W46134  13.913  14.920   0.056 -0.0644 -0.1690 -0.1675
27931W        W46135   7.088   3.621  14.349 -0.4169  0.2335 -0.2804
27932W        W46136  16.678  15.093   0.571  0.1524 -0.0299 -0.2575
27933W        W46137  10.892   7.643  12.840 -0.2042  0.0462 -0.0822
27934W        W46138  17.581  12.816  10.680  0.1360 -0.2024 -0.0528
27935W        W46139   0.770  10.067  10.784 -0.1258 -0.0907  0.2643
27936W        W46140  12.141   9.609  10.402 -0.1020 -0.1422 -0.1063
27937W        W46141   4.810  10.131  11.263 -0.1801 -0.0363 -0.2758
27938W        W46142  12.812  18.672   1.199  0.3680 -0.4358  0.0600
27939W        W46143  12.904   5.183   0.846 -0.0380 -0.0582  0.1198
27940W        W46144  16.270   4.918   2.371 -0.3916  0.3567 -0.1171
27941W        W46145  14.458  17.095   1.355  0.3240  0.0641 -0.1522
27942W        W46146   7.397   9.439   4.067 -0.2474 -0.2256 -0.0869
27943W        W46147  10.844  13.433   0.139  0.0646  0.1831 -0.3236
27944W        W46148  10.159  12.646  14.679  0.0098 -0.1446 -0.1560
27945W        W46149   8.368   1.060   0.501 -0.1994 -0.2618 -0.1667
27946W        W46150   8.834  11.119   2.715  0.2172  0.1005  0.3231
27947W        W46151   8.282   0.194   0.658  0.2163  0.0544 -0.0914
27948W        W46152  10.527  14.457   1.190 -0.1510  0.0601 -0.0851
27949W        W46153  11.005   2.660  12.660  0.1798 -0.0594 -0.0677
27950W        W46154   1.651  14.058  13.927 -0.0163  0.1258 -0.2038
27951W        W46155  15.138   6.134   2.125  0.1219  0.0367 -0.3988
27952W        W46156   0.748  16.951   4.593 -0.1767  0.3555  0.4941
27953W        W46157   9.764  16.146  13.175  0.2348  0.0562  0.2044
27954W        W46158  11.950  13.941  11.056 -0.0161 -0.4197  0.0702
27955W        W46159  11.570   9.105  13.319  0.2151  0.0958 -0.1052
27956W        W46160  13.920   7.695   3.398  0.0961  0.1456 -0.1963
27957W        W46161  12.431   5.512   4.099  0.1321 -0.3023  0.5033
27958W        W46162  18.500  14.684   4.685 -0.0189 -0.2885  0.0462
27959W        W46163  18.657   7.896  13.946 -0.1935  0.3336  0.0425
27960W        W46164  14.806  11.926   0.306  0.0088 -0.1469  0.1119
27961W        W46165  13.439  11.836   1.990 -0.0135 -0.1350  0.0788
27962W        W46166  10.618   8.083  13.355 -0.1563  0.0431 -0.2113
27963W        W46167  13.219   2.438  14.319  0.1197  0.2688  0.0153
27964W        W46168  18.347  16.305  14.493 -0.1253  0.3611  0.1265
27965W        W46169  17.816   0.491  12.225 -0.0849 -0.0021 -0.1651
27966W        W46170   1.205  17.889  12.562  0.0548 -0.2949  0.5023
27967W        W46171  13.392  12.183  15.452  0.0238 -0.2879 -0.3207
27968W        W46172  13.908  11.298   1.202  0.1087  0.4534 -0.1682
27969W        W46173  10.587   3.025  14.518  0.1654  0.0035 -0.0585
27970W        W46174   5.805  16.483  12.499  0.0342  0.0264  0.0883
27971W        W46175   6.630  15.119  11.858  0.2584 -0.4751  0.2204
27972W        W46176  17.845   6.765   0.369 -0.3982  0.1373 -0.3681
27973W        W46177  10.533   4.740   2.763 -0.1347 -0.3621  0.1904
27974W        W46178   8.124   6.760   1.808  0.3635  0.0884 -0.0066
27975W        W46179  16.710  15.399  14.205  0.0452 -0.0447 -0.2790
27976W        W46180   1.265  14.428  12.097  0.3392  0.1292 -0.1004
27977W        W46181   0.275   0.167   4.173 -0.3468  0.2893  0.0606
27978W        W46182   1.455  17.932   4.417  0.1819 -0.3538  0.0540
27979W        W46183   7.096  12.914  10.847  0.1518 -0.2780 -0.1331
27980W        W46184  10.088  12.453  13.950  0.3048 -0.1506  0.0147
27981W        W46185   3.918  17.570   3.990 -0.0199  0.2337  0.4108
27982W        W46186   2.017   8.439  14.624 -0.2387  0.2398 -0.0269
27983W        W46187   7.757  14.477  15.103  0.1892  0.1680 -0.0145
27984W        W46188   3.961   1.626  11.318 -0.2107 -0.0610  0.0812
27985W        W46189  14.668   4.446  13.444  0.0230  0.1575  0.0695
27986W        W46190  17.731   4.066   2.376 -0.0064  0.1209 -0.0902
27987W        W46191  12.563   8.577   1.647  0.1523  0.2886  0.0578
27988W        W46192  13.029   2.719   1.135 -0.0196  0.0197  0.1105
27989W        W46193  15.995   3.463   0.227 -0.3513  0.2768  0.0745
27990W        W46194   2.561   6.521  14.126 -0.1896 -0.0037  0.1569
27991W        W46195   6.313   1.306  13.994 -0.2392  0.2429 -0.0361
27992W        W46196   2.509  13.599   2.002 -0.0757 -0.1114  0.0939
27993W        W46197  13.542  15.126  10.688 -0.0908  0.2003  0.3077
27994W        W46198   0.313  16.555  14.419  0.0946  0.0730 -0.0554
27995W        W46199  10.198  17.539   0.346 -0.2763 -0.1643 -0.0182
27996W        W46200  16.191  18.416  10.953  0.2154  0.0034  0.0337
27997W        W46201  15.644   5.517  15.432  0.3084 -0.5739 -0.4316
27998W        W46202  18.571   8.926  12.677  0.1376 -0.1915 -0.3326
27999W        W46203  10.553   3.584  15.428  0.1253 -0.0583 -0.2890
28000W        W46204  13.058   9.793  15.302 -0.0858  0.0449  0.1790
28001W        W46205   8.317  12.927   2.340  0.0548 -0.3238 -0.3813
28002W        W46206  16.076  16.568  14.378  0.0458  0.2484  0.1440
28003W        W46207  15.036   6.942  14.339  0.0822 -0.2051  0.1792
28004W        W46208   4.318   7.887   2.869 -0.2269  0.2344  0.2585
28005W        W46209   5.493  14.972  12.332 -0.0026  0.2962 -0.0596
28006W        W46210  16.610  16.596  12.913  0.0190 -0.0320 -0.0131
28007W        W46211   9.162  11.118  14.410  0.1270 -0.3532  0.1023
28008W        W46212   5.228  17.286  12.582  0.1733  0.0402 -0.0337
28009W        W46213  13.458  14.203  12.938 -0.0233 -0.2315 -0.0725
28010W        W46214  15.488  17.164  12.440 -0.0258 -0.0092  0.0458
28011W        W46215   2.745   4.670  10.075 -0.0677 -0.1136 -0.0083
28012W        W46216  13.849  10.693   4.909 -0.0592  0.2112  0.1775
28013W        W46217   5.689   7.186   3.788 -0.0062  0.0378 -0.2124
28014W        W46218   3.592   4.278  12.625 -0.0297 -0.1053  0.0569
28015W        W46219  14.779  12.241  13.283  0.0690  0.1276 -0.0241
28016W        W46220  18.565  14.990   3.356 -0.0705  0.1902  0.1148
28017W        W46221  17.631   6.121   3.509  0.0357 -0.1151  0.0996
28018W        W46222   9.863   2.847   2.552 -0.0019  0.1173 -0.2540
28019W        W46223   0.393   9.799   4.430  0.1677 -0.4904 -0.0584
28020W        W46224  12.651  15.941  12.205  0.0961  0.3402  0.1339
28021W        W46225  12.161   1.711  13.070 -0.1870  0.1620 -0.2007
28022W        W46226   3.537   9.315   0.741  0.0246  0.0243  0.0232
28023W        W46227  11.028   9.990  12.045  0.0042  0.1721 -0.2911
28024W        W46228   2.453  10.349  13.227 -0.1723  0.2154 -0.1591
28025W        W46229  10.883  16.261  14.017 -0.2575  0.1023 -0.1121
28026W        W46230   4.588  13.444  11.855  0.3909  0.3809 -0.0535
28027W        W46231   2.930  17.563  12.054  0.2264 -0.0871  0.0556
28028W        W46232  11.541   6.443  11.769 -0.1455 -0.0389 -0.1238
28029W        W46233  14.482   7.662  14.473  0.0212  0.0306 -0.0159
28030W        W46234   1.835  12.116   1.221  0.0218  0.0902 -0.0008
28031W        W46235   6.991  12.359  12.382  0.1182  0.0912 -0.5110
28032W        W46236  13.429   6.673  15.166 -0.1595  0.0018 -0.2047
28033W        W46237  14.250  17.303  11.680  0.2429 -0.1291 -0.1460
28034W        W46238   8.662   6.639  13.653  0.1210 -0.0929 -0.3946
28035W        W46239   6.876   6.499  11.177  0.0728  0.0854  0.2093
28036W        W46240   7.342   5.067  11.690  0.0460 -0.0049 -0.0879
28037W        W46241   0.216  18.061   2.331  0.0809  0.1984  0.0571
28038W        W46242   2.912   5.368  12.143  0.1740  0.2154 -0.0882
28039W        W46243   2.645   5.925  10.234 -0.2997  0.2303 -0.0205
28040W        W46244  12.463   0.627   4.218 -0.0958  0.4101 -0.0379
28041W        W46245  11.895  11.585   2.978  0.1346 -0.1018 -0.2364
28042W        W46246  18.676   0.809  12.600 -0.4548  0.0944  0.1661
28043W        W46247  18.405  15.892  12.261 -0.1957 -0.1233  0.2133
28044W        W46248  18.053   6.242  13.302  0.0864  0.1910  0.4359
28045W        W46249  11.495  12.383   3.342  0.0593 -0.2090 -0.0305
28046W        W46250  14.859  10.464   5.053  0.0493  0.2123  0.0836
28047W        W46251  16.597   8.738  11.768 -0.0695 -0.1018 -0.0900
28048W        W46252  14.599  17.298   2.226 -0.0084  0.1973  0.1897
28049W        W46253  12.155  13.504  10.446 -0.0819  0.1602 -0.1969
28050W        W46254  17.069  11.453  14.983 -0.0615 -0.0331  0.0208
28051W        W46255   4.979  12.354  15.397  0.2865 -0.2899 -0.2609
28052W        W46256   7.176   9.637   4.604 -0.0216  0.2987  0.0595
28053W        W46257   7.415   5.413   3.411 -0.3096  0.0309  0.1652
28054W        W46258   3.236   5.801  11.876  0.2020  0.3814 -0.3196
28055W        W46259   5.528   4.203  15.298  0.5158 -0.1244  0.2600
28056W        W46260   0.462  18.280  14.099 -0.0011 -0.4047 -0.1871
28057W        W46261   8.516   2.715  11.323 -0.2970 -0.1225 -0.1592
28058W        W46262   0.843   0.077  10.097 -0.2429 -0.1215  0.0060
28059W        W46263  17.807  10.210  11.282 -0.0240  0.2168 -0.0044
28060W        W46264   3.235   0.096  10.899 -0.0455 -0.1532  0.0562
28061W        W46265   2.895  12.290   0.375  0.3681  0.0819 -0.0113
28062W        W46266  10.383  17.099   3.981  0.1582 -0.0172 -0.1542
28063W        W46267   6.507  17.039  11.193 -0.2445 -0.3605  0.3236
28064W        W46268  12.933  10.462   3.801  0.0327 -0.3300  0.1322
28065W        W46269   2.929   6.439   3.834 -0.1198 -0.1134  0.2484
28066W        W46270   0.448   9.643   3.676  0.0294  0.0067 -0.3341
28067W        W46271  13.200   4.701   3.103  0.1341 -0.0735  0.2190
28068W        W46272  11.720   2.480  11.042  0.3992  0.2269 -0.1450
28069W        W46273  11.106  13.785   1.457  0.0860 -0.0024  0.0154
28070W        W46274   2.644   5.796   3.266  0.2250  0.0563  0.3721
28071W        W46275   8.337   7.404   4.484 -0.0580  0.3182  0.4250
28072W        W46276  14.135   5.012  12.485  0.2857  0.1052 -0.2237
28073W        W46277   9.991  11.076   5.602 -0.3105 -0.0683 -0.1689
28074W        W46278  18.091  14.866  13.970 -0.0974 -0.1994 -0.0384
28075W        W46279  16.398   7.145   3.816 -0.0412 -0.1493 -0.2254
28076W        W46280  10.820  14.406  13.940 -0.2341 -0.0651 -0.2431
28077W        W46281   1.792   0.351  12.144  0.1390 -0.2089  0.0557
28078W        W46282   0.517  14.268   1.763 -0.1408 -0.1133  0.2313
28079W        W46283   8.910   3.515   5.648  0.0370 -0.0060  0.0723
28080W        W46284  13.377  14.422   1.643  0.0329 -0.2868 -0.0402
28081W        W46285   9.056   4.162   4.672 -0.0216 -0.0741 -0.1707
28082W        W46286   6.091   0.827  14.171  0.0751  0.3782  0.2759
28083W        W46287  15.238  16.483  13.764 -0.0252 -0.0518  0.2914
28084W        W46288  16.886  11.688  11.250 -0.1121 -0.2107  0.2889
28085W        W46289   6.281   4.258  11.368 -0.2474 -0.1450 -0.3126
28086W        W46290   0.141   5.986   0.257 -0.2481  0.1044 -0.0961
28087W        W46291   1.101   6.348   4.581 -0.0580 -0.3099 -0.1189
28088W        W46292  18.452  13.783   0.336 -0.2012  0.0452  0.0862
28089W        W46293  14.082   6.191   2.971  0.2665  0.3523  0.3210
28090W        W46294  11.393  11.556   9.711 -0.0064  0.0453 -0.2515
28091W        W46295   5.529  14.337  12.513 -0.1058 -0.1027 -0.0220
28092W        W46296   8.714  16.979  11.837 -0.0537  0.2817  0.0559
28093W        W46297  13.116  17.860  11.366 -0.1490 -0.2349 -0.2826
28094W        W46298   5.699   0.414   4.731 -0.1235 -0.0989  0.0346
28095W        W46299   5.146   8.095  11.983 -0.3237  0.2164 -0.0778
28096W        W46300   5.024   1.625   2.503 -0.0107 -0.0813  0.0419
28097W        W46301   2.278  11.872   4.157 -0.0643  0.0180  0.1324
28098W        W46302  16.695   7.620   1.137 -0.2542 -0.1183 -0.1199
28099W        W46303  14.884  10.592   2.386 -0.0195  0.0080  0.2293
28100W        W46304   9.973  15.897  12.284 -0.0569 -0.1413  0.1738
28101W        W46305   5.376  18.559   3.065 -0.1383  0.4465 -0.0650
28102W        W46306  14.350   5.719  11.767 -0.1310 -0.1381  0.1875
28103W        W46307  15.433  13.226   1.501 -0.0855  0.1096 -0.3358
28104W        W46308   6.384  11.180   3.256 -0.0568 -0.1301 -0.0032
28105W        W46309  14.634  14.642  12.255  0.3933  0.1306 -0.0658
28106W        W46310   6.766   4.215  11.544  0.2433  0.0360 -0.0887
28107W        W46311   3.688   0.234  10.898 -0.0564  0.0167  0.2430
28108W        W46312  13.663   3.650  14.887  0.1396 -0.0559  0.0829
28109W        W46313  10.768  15.871   0.216  0.1032 -0.1171  0.1020
28110W        W46314  18.691   8.802  11.409 -0.0743  0.0816 -0.1664
28111W        W46315  15.821   4.696   0.055  0.0365  0.2210  0.0838
28112W        W46316  11.282   3.374   0.207  0.0520 -0.2210  0.1123
28113W        W46317   5.738   6.182  14.911  0.4284  0.2406 -0.1565
28114W        W46318  14.272  14.869  11.934  0.3413  0.0993 -0.1275
28115W        W46319   2.046   8.986   2.175 -0.0188  0.0030 -0.0859
28116W        W46320  11.245   4.062   0.002 -0.0250 -0.0198 -0.2789
28117W        W46321   7.896   1.614  12.262  0.0479  0.0178 -0.1449
28118W        W46322   2.403  12.114  12.186  0.2076 -0.0227 -0.1454
28119W        W46323   0.872  12.374   2.160  0.1395 -0.0160  0.1497
28120W        W46324  11.090  12.019   1.729  0.0147  0.1454 -0.2854
28121W        W46325   8.377  10.105   1.548 -0.1948 -0.3763  0.1238
28122W        W46326   1.082   9.675  11.696 -0.0205  0.0941 -0.1139
28123W        W46327  14.463   9.039  12.206 -0.2666  0.1123 -0.0891
28124W        W46328   7.331  11.881   0.786  0.1511  0.2091 -0.0880
28125W        W46329  17.246  12.448   0.095 -0.1303 -0.2130  0.1346
28126W        W46330   9.575   0.374  15.034  0.0025  0.1138 -0.1788
28127W        W46331  15.251   8.699   0.634  0.1387  0.2362 -0.0263
28128W        W46332   2.286  12.344   4.317  0.2989 -0.2161  0.0449
28129W        W46333  18.403  13.804   3.591 -0.3022 -0.1645 -0.1697
28130W        W46334   4.625   7.083   1.972  0.0601  0.1451  0.2814
28131W        W46335  17.539   0.749   2.118 -0.0800  0.0687 -0.2688
28132W        W46336  18.392   1.655  14.357 -0.0524 -0.0774  0.2128
28133W        W46337   4.874   0.001   3.109 -0.1106  0.0837  0.1235
28134W        W46338   9.148   8.713   1.267 -0.0172  0.0736  0.1039
28135W        W46339   0.349   9.652  14.315 -0.2340 -0.1627 -0.2093
28136W        W46340   8.317   0.740  13.929  0.1461  0.1727 -0.0874
28137W        W46341   3.275   9.355  14.044 -0.0725  0.0040 -0.3033
28138W        W46342  16.357  13.678  10.997 -0.1355 -0.1922 -0.0169
28139W        W46343   7.623  14.774   9.708  0.2169 -0.1209 -0.2870
28140W        W46344   7.723  15.951  13.221  0.0229 -0.2080  0.4917
28141W        W46345   8.645   8.855   3.495 -0.0451 -0.1582  0.1010
28142W        W46346   3.965  16.493   0.484 -0.1209 -0.2970 -0.2423
28143W        W46347   4.533   5.399   4.062  0.0381  0.0709  0.1996
28144W        W46348   2.280  13.184   2.125 -0.2857 -0.1401  0.0435
28145W        W46349  14.208  15.949  14.109 -0.0180  0.3152 -0.0546
28146W        W46350  17.373   0.866   1.613  0.0770 -0.1028 -0.0356
28147W        W46351  11.621  16.039  14.938 -0.0587 -0.0477  0.1486
28148W        W46352   7.857   4.646   5.050  0.0607 -0.2977  0.3109
28149W        W46353  11.647  14.383   0.453 -0.2128  0.0763  0.2483
28150W        W46354  10.086  16.093   2.401 -0.0610  0.0685 -0.2378
28151W        W46355   2.392   1.424  11.792 -0.1521 -0.1234 -0.1373
28152W        W46356   6.847  11.262   1.835  0.0954 -0.0810 -0.0260
28153W        W46357  15.218   0.505  14.124  0.2160  0.4441 -0.1864
28154W        W46358   7.247   0.942  11.586  0.1682  0.0640  0.1684
28155W        W46359   1.545   6.652   4.276 -0.0110  0.2449  0.1405
28156W        W46360  12.658   4.105   4.910  0.0550 -0.1750  0.0353
28157W        W46361  17.751   5.854  11.646  0.4463 -0.1196 -0.0461
28158W        W46362   5.768   9.652   2.899  0.0557 -0.0423 -0.0929
28159W        W46363   8.682   2.191   4.004 -0.1989  0.0414  0.2884
28160W        W46364  18.446  13.254   2.725  0.0158 -0.4969  0.0861
28161W        W46365  14.982  13.115  15.139  0.0791  0.0790 -0.1398
28162W        W46366   8.132   0.945  14.353 -0.2519  0.1056 -0.2216
28163W        W46367  16.522   6.270   5.140  0.0568  0.1376 -0.2092
28164W        W46368  12.830  16.155   4.315 -0.1880 -0.2458  0.1230
28165W        W46369  14.825  10.485  10.825  0.1736  0.0234 -0.2942
28166W        W46370   0.722   4.074  13.986  0.0312  0.0167  0.3438
28167W        W46371  18.351  16.992  12.132 -0.0672  0.0328 -0.0622
28168W        W46372  15.762  18.585  12.430 -0.0694 -0.0877 -0.1721
28169W        W46373   6.349   6.893   0.078  0.0020  0.1490  0.1001
28170W        W46374  18.061   2.102   3.054  0.0606  0.0903 -0.0034
28171W        W46375   2.421   9.845  13.056  0.0868 -0.0249 -0.0326
28172W        W46376  10.683  16.745   1.134 -0.0593  0.0074  0.0988
28173W        W46377  12.374  16.202   4.029 -0.2378  0.0694 -0.3167
28174W        W46378   9.723   5.442   3.393  0.2324  0.1968 -0.1382
28175W        W46379  13.761  10.410  14.485  0.0878  0.0619  0.4110
28176W        W46380   3.338   5.029  14.173  0.2558 -0.0016  0.1398
28177W        W46381   1.699  14.016   1.946 -0.0599 -0.0404 -0.0768
28178W        W46382  17.687   7.831  12.719  0.0126  0.2221 -0.0370
28179W        W46383   8.962  10.598  11.932  0.3488  0.3537 -0.4085
28180W        W46384  16.162  12.675  13.167  0.3209  0.1002  0.1494
28181W        W46385  16.579   1.829   0.038  0.2188 -0.0378  0.1629
28182W        W46386  18.048  10.696  11.115  0.1472  0.3228  0.0579
28183W        W46387  14.435  14.282   3.441  0.1807  0.1218  0.1976
28184W        W46388  11.926  14.321   4.687  0.0183  0.1752  0.1035
28185W        W46389   1.107  13.001  11.370 -0.3274 -0.0526  0.3429
28186W        W46390   7.065   8.718  14.486 -0.1201  0.1430 -0.0181
28187W        W46391   6.279   5.770   4.611  0.0398 -0.0341  0.0283
28188W        W46392   5.986   7.095  10.899 -0.0681 -0.0122 -0.1683
28189W        W46393   4.165  12.860   0.588 -0.0885  0.0468  0.1748
28190W        W46394  17.181   5.336   1.394  0.0525 -0.0947 -0.3796
28191W        W46395  16.097  16.449  11.822 -0.1133 -0.1921  0.2711
28192W        W46396   9.214   3.845   2.502 -0.1967  0.2807  0.0237
28193W        W46397  15.549   1.181  12.254  0.3308  0.3326  0.2313
28194W        W46398  14.932  11.727  13.308  0.2191  0.0449 -0.1509
28195W        W46399   5.490   4.487  11.627  0.1945 -0.1734  0.0879
28196W        W46400  14.345  13.444  11.081  0.3630 -0.2029  0.0824
28197W        W46401  11.403  15.929   3.221 -0.0734  0.3805  0.0863
28198W        W46402  17.452  17.083  11.505 -0.0572 -0.0935  0.1498
28199W        W46403  17.182   8.858   4.004  0.1231  0.0831  0.2254
28200W        W46404  15.117   9.614   4.047 -0.3665  0.1762  0.1970
28201W        W46405  12.608   5.632  11.976  0.0485 -0.0181  0.1234
28202W        W46406   6.680   1.304   9.735  0.2455  0.0321 -0.2030
28203W        W46407   5.194  12.806  14.584  0.0627  0.1756 -0.4333
28204W        W46408   2.240  16.665  11.712  0.4340  0.2095  0.2455
28205W        W46409  13.157   4.240   2.447 -0.0360 -0.2046  0.2391
28206W        W46410   4.526   9.201   3.249 -0.3098  0.2929  0.2207
28207W        W46411  10.415  16.977   0.390  0.1380 -0.0587  0.2151
28208W        W46412  15.742   7.972   0.652  0.1361 -0.4146  0.1071
28209W        W46413   4.941  10.961  15.004  0.0449  0.0645  0.0473
28210W        W46414   9.185   9.649   1.704 -0.2311 -0.0640  0.1201
28211W        W46415  13.697  16.594  11.857 -0.0514  0.1468  0.0776
28212W        W46416   8.369   4.858  12.832  0.1609 -0.0094 -0.3895
28213W        W46417   8.383  14.853  12.977 -0.2047 -0.0374  0.2547
28214W        W46418  14.209   5.713   3.630 -0.1285  0.0512 -0.2167
28215W        W46419   4.069   4.739  15.387 -0.0538  0.0264  0.0357
28216W        W46420   3.003  14.025   0.123  0.0805  0.1900  0.1487
28217W        W46421   3.225   7.954   2.958 -0.2410  0.1090  0.1063
28218W        W46422  13.985  15.629  15.166 -0.2670  0.0705 -0.0628
28219W        W46423  15.406   6.386   1.096  0.1547 -0.1320 -0.2310
28220W        W46424  10.136  11.970   3.906  0.1750  0.0082  0.2496
28221W        W46425   3.942  17.046   2.484  0.0028  0.0527  0.0299
28222W        W46426   3.422  15.869   2.949  0.0675  0.1579 -0.0807
28223W        W46427   4.524  15.883  12.763  0.4860 -0.0935  0.0633
28224W        W46428  13.191   9.066   1.761 -0.0855 -0.0739 -0.2266
28225W        W46429   6.897   8.459   1.635  0.0735  0.1111 -0.0833
28226W        W46430  14.452  11.136   0.329  0.1450 -0.3024  0.1785
28227W        W46431   3.619   0.441   1.284 -0.0476  0.0303  0.1805
28228W        W46432   0.952  15.672   1.299 -0.1264  0.0040  0.1973
28229W        W46433   8.946   6.116  15.297  0.0182 -0.2875 -0.2017
28230W        W46434   0.585   8.163  13.195 -0.2602 -0.0796 -0.2041
28231W        W46435  16.161  13.992  10.059  0.1509 -0.2164 -0.0832
28232W        W46436  18.220   3.607   4.130  0.0239 -0.1010 -0.0135
28233W        W46437   1.434   3.956  12.101 -0.0916 -0.0430  0.1954
28234W        W46438  14.355  15.543  12.120 -0.2889  0.0081  0.0035
28235W        W46439  16.361  15.750   1.452  0.2470  0.2828 -0.5047
28236W        W46440   1.783  10.234   3.748  0.3519  0.2332 -0.1169
28237W        W46441   5.981   1.031   4.609  0.2465  0.0789 -0.2682
28238W        W46442  11.367   9.363   5.958  0.0931  0.1212  0.0814
28239W        W46443   3.580  10.423  13.236  0.1438 -0.1675  0.0591
28240W        W46444   2.137  11.315   2.063  0.0713  0.0828  0.1483
28241W        W46445   8.728   1.552   4.142  0.2534  0.2702  0.2219
28242W        W46446   8.817  10.269  12.936  0.2407 -0.0543  0.0213
28243W        W46447  18.101   6.890  15.018 -0.0535  0.0448  0.0403
28244W        W46448   4.495   4.347   0.720 -0.2575 -0.0178 -0.0526
28245W        W46449  15.360   3.936   4.743 -0.2645 -0.1732  0.2350
28246W        W46450   7.347  12.661   2.713  0.0320  0.0839  0.1579
28247W        W46451  12.558   8.868  15.269  0.2186  0.1626  0.2794
28248W        W46452  18.098   2.631  12.977 -0.1066 -0.1586 -0.1776
28249W        W46453  17.075   1.830  15.460 -0.1547 -0.0342 -0.2083
28250W        W46454  13.768  11.976  13.570  0.0564  0.0314  0.4469
28251W        W46455  18.266  17.184   2.034  0.2182 -0.2223  0.0777
28252W        W46456  14.781   2.366   3.048  0.1329 -0.2237  0.5946
28253W        W46457   2.104  10.685  13.182  0.0463 -0.1528 -0.1642
28254W        W46458  10.200  17.480   3.520  0.0659  0.0260 -0.1843
28255W        W46459  10.714  15.934  15.087 -0.0468  0.0562 -0.0052
28256W        W46460   7.919   7.587  12.135 -0.2309  0.1675  0.1418
28257W        W46461  14.473   8.422   4.524 -0.2969 -0.1313 -0.0652
28258W        W46462  14.631  17.516  11.354  0.3679 -0.0096  0.3323
28259W        W46463   2.340   2.994  10.108 -0.3114 -0.0260 -0.0351
28260W        W46464   5.042   6.922   4.592  0.2798  0.1330 -0.1155
28261W        W46465  17.801  10.391   4.517 -0.0123  0.4082  0.0925
28262W        W46466   6.635  15.948  14.757 -0.1621  0.1883 -0.1093
28263W        W46467   6.195   2.974   2.179  0.0009 -0.0096  0.1768
28264W        W46468  16.955   1.835   4.936 -0.2439  0.2172 -0.0072
28265W        W46469  16.475   3.045   3.803  0.1353 -0.1931  0.3903
28266W        W46470  15.330   9.153  10.696  0.1849 -0.2492 -0.2283
28267W        W46471  14.745  10.621  14.316 -0.2305  0.0587  0.0974
28268W        W46472   2.811   0.374   4.424  0.0395  0.0002  0.0067
28269W        W46473   5.404  18.084  10.639 -0.1215  0.0005  0.2131
28270W        W46474   6.799   1.317   2.986 -0.2617  0.0087  0.2472
28271W        W46475  16.644   6.126  12.947 -0.0326  0.1577 -0.2150
28272W        W46476  16.080   1.547  14.452 -0.0165 -0.1219 -0.1836
28273W        W46477   3.771  12.966   3.740 -0.0021  0.5804 -0.2540
28274W        W46478   0.833  10.602  12.580 -0.2887  0.1207  0.4261
28275W        W46479  12.223   4.817   3.124  0.0789 -0.0242  0.2290
28276W        W46480  12.904  16.290  13.991 -0.1541  0.1825 -0.0201
28277W        W46481  10.003   7.714  11.462 -0.0215 -0.2849 -0.4866
28278W        W46482   8.541  16.772   3.801 -0.2038  0.2080  0.1960
28279W        W46483   7.243  10.889  15.185 -0.2233  0.0967  0.1142
28280W        W46484   7.483  17.251   2.600  0.2346 -0.1735  0.1304
28281W        W46485   3.367   6.655  14.416 -0.2814 -0.3001  0.0351
28282W        W46486   9.405   6.168  14.077 -0.0242 -0.0255 -0.0100
28283W        W46487  10.096   1.164   2.465  0.2764  0.0590 -0.1410
28284W        W46488   2.849   4.906  12.519 -0.0713  0.0146  0.2659
28285W        W46489  15.128  15.451  11.679 -0.3874 -0.0905  0.4134
28286W        W46490   2.867   0.259   0.402  0.1099  0.0130  0.2072
28287W        W46491  18.496   7.633  13.559 -0.2502  0.1243 -0.0834
28288W        W46492   0.639  18.430   2.472 -0.1638  0.0403 -0.2726
28289W        W46493  10.084   1.544   3.253 -0.3035 -0.0420 -0.0209
28290W        W46494   0.802  15.638  14.826  0.1055 -0.1823  0.2882
28291W        W46495  17.962  11.314   3.351 -0.2897 -0.0723 -0.2012
28292W        W46496   2.184   4.886  10.940  0.2525  0.1539  0.0267
28293W        W46497   2.246  13.951   2.929 -0.0068  0.3039 -0.0272
28294W        W46498  17.266   5.576   0.886 -0.0931 -0.1191  0.0940
28295W        W46499   2.578  13.726  10.953 -0.2072 -0.1425 -0.2849
28296W        W46500  16.682   9.229   3.985  0.5093  0.1043 -0.0427
28297W        W46501   6.785   9.761  10.643 -0.0460  0.4195  0.1064
28298W        W46502   6.233   8.354  14.372 -0.0567  0.0980 -0.0308
28299W        W46503  15.341   5.221   1.612  0.2158  0.1248 -0.0487
28300W        W46504   7.128  18.094   2.761  0.1587 -0.2336  0.1034
28301W        W46505  13.949  15.341  11.999  0.3158  0.0251 -0.0249
28302W        W46506   2.730   4.787   2.312  0.1234  0.1537 -0.1036
28303W        W46507   1.066   1.310   2.039  0.2122 -0.1038 -0.0204
28304W        W46508   1.915   7.190  15.151 -0.0612 -0.0781  0.2638
28305W        W46509   7.808  17.524  12.402  0.0708 -0.1608 -0.1678
28306W        W46510   7.873  16.295  15.100 -0.2720 -0.2404  0.0183
28307W        W46511   1.211   9.090   0.809  0.0476 -0.1738 -0.3617
28308W        W46512  14.201   9.270  14.693 -0.0998  0.0717 -0.3616
28309W        W46513   0.556   3.569  12.637  0.1507  0.5168 -0.0945
28310W        W46514  13.964  14.008   3.655  0.3087 -0.0123 -0.0583
28311W        W46515  12.750   4.126   4.323 -0.0084  0.0797  0.2421
28312W        W46516   3.363   8.250   2.530  0.0072 -0.0485 -0.0477
28313W        W46517   3.586  12.028  15.298  0.0493  0.1570  0.4387
28314W        W46518   7.215   2.967  12.544  0.1532  0.1582 -0.2877
28315W        W46519  12.308  16.275   1.002 -0.1964  0.2421 -0.2154
28316W        W46520   5.390  11.743  11.597 -0.0683  0.2886  0.2279
28317W        W46521  17.400  14.734  10.970 -0.2891 -0.0225 -0.0777
28318W        W46522   8.924  11.890   4.192 -0.1945 -0.1085 -0.0064
28319W        W46523  11.556  16.779  14.414 -0.2049 -0.0148  0.1184
28320W        W46524   6.401  13.131   1.122  0.3353  0.0839 -0.0603
28321W        W46525  15.978   0.946  14.252 -0.2166 -0.1207 -0.1706
28322W        W46526  17.174   0.543  14.936 -0.2453 -0.1548  0.0275
28323W        W46527   6.488   3.334   0.667 -0.0394 -0.3622  0.0831
28324W        W46528   9.509   7.188   3.769 -0.0589 -0.1487 -0.1676
28325W        W46529   7.828  17.524  14.571 -0.2414  0.2754  0.0786
28326W        W46530   9.691   9.820   3.637 -0.1322  0.2913  0.0671
28327W        W46531   2.446   9.436  12.099  0.2411  0.3618 -0.1216
28328W        W46532  11.965  11.941   0.300 -0.2896  0.2003 -0.0229
28329W        W46533  17.018  14.576  12.407 -0.3172 -0.2003 -0.1518
28330W        W46534  14.703  15.232   4.511 -0.0212 -0.1120 -0.0703
28331W        W46535   8.883  13.045  13.588 -0.1724 -0.1564  0.2057
28332W        W46536  16.067   1.496  13.122  0.1406  0.0199  0.2405
28333W        W46537  10.829   6.435   1.108 -0.2025 -0.1553 -0.0012
28334W        W46538  13.288   0.158  13.703  0.1651 -0.0307 -0.0591
28335W        W46539  12.651   1.282   4.978  0.1116  0.1592  0.2547
28336W        W46540   7.692   6.234   5.420  0.1461 -0.1734 -0.1156
28337W        W46541   1.396  15.417   0.606 -0.1310  0.0401 -0.0140
28338W        W46542  18.180   4.124   3.317  0.0939 -0.1135  0.2006
28339W        W46543   0.653   7.427   0.150  0.1202  0.0397 -0.0466
28340W        W46544   5.808   3.698  14.032 -0.0550  0.1919 -0.0895
28341W        W46545   2.698   9.396   5.091  0.0066  0.1114 -0.0848
28342W        W46546   1.325  15.429   0.087 -0.2374 -0.0413 -0.5142
28343W        W46547   6.134   3.731  12.279  0.1590 -0.1549 -0.0786
28344W        W46548  14.367   3.403   5.685 -0.0686 -0.1560  0.0487
28345W        W46549  12.381  15.816  14.152  0.0490  0.1192  0.0843
28346W        W46550  17.132   8.895  12.474  0.0513  0.0354  0.0179
28347W        W46551   0.816  17.189  11.465  0.2165  0.1019  0.0399
28348W        W46552  11.200  12.306  15.274 -0.1623 -0.0724 -0.2277
28349W        W46553   7.957   3.348  10.069 -0.2279 -0.0369 -0.1873
28350W        W46554   7.201   3.552  14.938 -0.1636  0.4554  0.1664
28351W        W46555  11.427  15.769   2.360  0.3180  0.4824 -0.0983
28352W        W46556  15.285   7.151   1.223 -0.1335 -0.3892  0.0887
28353W        W46557  14.453   8.806  11.052 -0.2138 -0.0265  0.1611
28354W        W46558   2.162   4.070   4.485 -0.1308 -0.1770 -0.1205
28355W        W46559  11.316   6.937   4.284  0.1772 -0.0735 -0.2412
28356W        W46560   9.551  18.167   1.703 -0.0805 -0.1319  0.0489
28357W        W46561   1.907  12.307  12.989 -0.2933  0.0926  0.1996
28358W        W46562  10.363   7.528  13.240 -0.2056 -0.0737 -0.1468
28359W        W46563  11.220   3.077   3.793  0.1864  0.1970  0.0642
28360W        W46564   3.959  10.779   0.475 -0.0429 -0.2273 -0.2429
28361W        W46565   0.864   2.226  11.115 -0.1743  0.0838  0.1827
28362W        W46566  15.439  17.775   2.878  0.2674 -0.0026  0.1716
28363W        W46567  10.812   8.408  13.676  0.1717  0.0346 -0.0678
28364W        W46568  14.255  14.802  13.496 -0.0842 -0.0699 -0.2953
28365W        W46569   5.405   3.896   1.723 -0.5192  0.0525 -0.0517
28366W        W46570  18.221  17.953  11.565  0.3182 -0.0432 -0.4017
28367W        W46571   3.375  13.944  12.092  0.1571  0.0477  0.1893
28368W        W46572  15.054   2.334  11.293  0.0084  0.0204  0.2371
28369W        W46573  12.853  13.334  13.103  0.1881  0.1862 -0.0827
28370W        W46574   1.903   2.379   2.395 -0.3488 -0.0316  0.2443
28371W        W46575  18.004   1.601  14.745  0.4444 -0.0787  0.2203
28372W        W46576  10.313  10.027   0.067  0.1218  0.1307 -0.1999
28373W        W46577  13.836  11.690   0.547 -0.0793 -0.0225 -0.1582
28374W        W46578  16.023  13.422  14.602  0.0630 -0.0993  0.1202
28375W        W46579  14.908  16.773  13.494  0.0368  0.1651  0.4910
28376W        W46580  15.898  12.985  14.346 -0.2216 -0.0017 -0.1205
28377W        W46581   3.323   7.170   9.839  0.1537  0.0583  0.0909
28378W        W46582  17.783  11.313   2.498 -0.2032 -0.0720  0.0246
28379W        W46583   6.626   2.459  11.228  0.2134 -0.0117 -0.2582
28380W        W46584   2.604   0.459  13.255  0.2717 -0.3665  0.2669
28381W        W46585  15.652   6.340   2.774  0.2410 -0.2671 -0.2198
28382W        W46586  12.467   0.015   0.333 -0.0573 -0.1696 -0.2497
28383W        W46587  17.622  15.427  13.408 -0.0343 -0.2283  0.1416
28384W        W46588   6.669  15.778   2.758 -0.2404 -0.0404  0.2333
28385W        W46589   7.118   9.877   3.724 -0.1544 -0.0706  0.3942
28386W        W46590   5.215   0.215   3.443 -0.1517 -0.4266  0.0516
28387W        W46591  18.129  17.776   3.893  0.4920  0.0956 -0.2438
28388W        W46592   7.636   7.241  13.604 -0.2568 -0.0481 -0.0387
28389W        W46593  11.051  11.171  14.221 -0.2014  0.1387 -0.1226
28390W        W46594   6.657   8.408  14.679  0.0283  0.0404 -0.1222
28391W        W46595   1.255   5.964   5.309 -0.2053  0.0849  0.1032
28392W        W46596  13.344   3.359   0.665 -0.0059 -0.0051 -0.0797
28393W        W46597   3.493   8.686   0.894 -0.0667 -0.0828  0.2425
28394W        W46598   4.912  10.891  13.013 -0.2119  0.0598  0.1145
28395W        W46599  18.688   9.361  12.995  0.0438 -0.2401  0.1988
28396W        W46600   1.743   1.436   1.333  0.0778  0.0872 -0.2428
28397W        W46601   1.212   4.124  13.180 -0.0038 -0.1155  0.2662
28398W        W46602   0.740  17.269   4.234 -0.3662 -0.1146  0.1297
28399W        W46603   2.173   0.834   3.266  0.2152  0.1503  0.0499
28400W        W46604   1.185  11.255  14.535  0.0785 -0.0058 -0.0277
28401W        W46605  12.083  10.061  13.245  0.0094 -0.0084  0.1795
28402W        W46606   3.332  15.798   1.701  0.2224  0.1027 -0.0342
28403W        W46607   8.801  12.139   2.398  0.1942  0.0519 -0.0814
28404W        W46608   8.973  15.790   1.559  0.1423  0.1977 -0.0742
28405W        W46609  15.138   7.156   2.839  0.0703  0.0066  0.1451
28406W        W46610   8.845  16.669  12.943 -0.1401  0.3069 -0.0450
28407W        W46611  15.006   9.073  13.445 -0.1974  0.0059  0.0031
28408W        W46612   6.433  14.380   3.704  0.2436  0.1920  0.0503
28409W        W46613   8.000  16.041   2.388  0.1852  0.0704 -0.2231
28410W        W46614  11.705  16.610  12.924  0.0622  0.0616 -0.0098
28411W        W46615  13.122   1.469   0.538  0.2706  0.4365  0.0091
28412W        W46616   6.159  16.790  15.095  0.0639 -0.2058 -0.2976
28413W        W46617  15.460  10.541   3.719  0.1319 -0.1203  0.0474
28414W        W46618   5.814   8.558   3.667  0.2315  0.0619  0.2662
28415W        W46619  16.372   9.276  14.977 -0.1700 -0.2688  0.2568
28416W        W46620   8.913  12.445  15.074  0.0885 -0.0852  0.2912
28417W        W46621  15.997  16.975   2.165 -0.2540  0.1064  0.3558
28418W        W46622  12.715   0.549   3.028 -0.0508 -0.4251  0.2903
28419W        W46623   1.250  15.125  13.373 -0.0993 -0.5379  0.0104
28420W        W46624  13.099  16.624  12.603  0.1810 -0.4752 -0.0342
28421W        W46625   0.614  17.493   3.778 -0.2080 -0.4446 -0.0179
28422W        W46626  16.922   5.141   3.960  0.0035 -0.4726 -0.2307
28423W        W46627   5.696   7.837   2.778 -0.2991  0.2607  0.1122
28424W        W46628   0.701  13.766   3.613  0.0049  0.2855 -0.2159
28425W        W46629  15.504  12.788  12.108 -0.1345  0.1995 -0.1336
28426W        W46630   2.132   7.587  13.509  0.1911 -0.4069  0.2047
28427W        W46631   4.602   7.557  11.359  0.0418  0.0640  0.2319
28428W        W46632  15.870  10.597  10.309  0.0556 -0.0845 -0.0831
28429W        W46633   0.982  18.596  14.794  0.1853  0.0625 -0.2478
28430W        W46634   6.344   9.947   0.117  0.1264  0.2126 -0.1071
28431W        W46635   0.382   2.230   1.244  0.0511  0.0890 -0.1993
28432W        W46636   5.650  17.586  13.994  0.1315  0.1789  0.0134
28433W        W46637   5.213   0.840   3.970 -0.0809 -0.0555 -0.1390
28434W        W46638   4.839  16.092  15.295  0.0816  0.0961 -0.3435
28435W        W46639   7.919   5.111   1.185 -0.1727 -0.3249  0.2742
28436W        W46640  14.469   8.390   3.398 -0.0701  0.0654  0.1194
28437W        W46641  14.524  10.192   4.134  0.2516  0.1408 -0.0886
28438W        W46642  16.350   9.756   2.953  0.3729  0.0207 -0.0403
28439W        W46643  13.183  12.455  11.266 -0.0058 -0.3087 -0.1659
28440W        W46644  13.776   1.812   4.218 -0.2502  0.1865  0.0699
28441W        W46645   2.201   6.170  15.167  0.0664  0.0834  0.1952
28442W        W46646   7.615   1.359   2.662  0.1068 -0.3762 -0.2098
28443W        W46647   4.071  15.539  12.407  0.1099  0.1189 -0.2661
28444W        W46648   5.934  11.982  14.863  0.0383 -0.1603 -0.2866
28445W        W46649   6.530   1.637   3.222  0.1027  0.1845  0.1177
28446W        W46650  15.909   6.450   1.057 -0.0418  0.2738  0.1378
28447W        W46651  17.698   9.234   1.285  0.1735 -0.2539  0.0950
28448W        W46652  11.544   4.109   2.489 -0.0044 -0.0062  0.1359
28449W        W46653  18.252   7.255  13.812  0.1294  0.1040 -0.0575
28450W        W46654  16.979  11.016   3.618 -0.0974  0.3955 -0.2484
28451W        W46655  13.087   8.883   3.636  0.4375 -0.0868  0.1030
28452W        W46656  14.617   3.389   4.821 -0.1927 -0.3609  0.0987
28453W        W46657  13.473   5.099   0.854 -0.2242 -0.5172 -0.3178
28454W        W46658  16.685   9.626  10.719 -0.1076 -0.0464  0.0620
28455W        W46659  15.037   1.003  12.331 -0.1195  0.2725  0.3743
28456W        W46660   9.100  15.000  14.315  0.0572 -0.0890 -0.0787
28457W        W46661  13.068   9.618  12.837 -0.0560 -0.0367 -0.0642
28458W        W46662   6.275   6.280  11.186  0.3571 -0.0843 -0.0116
28459W        W46663  16.383   1.796  13.477  0.2917 -0.0184 -0.1578
28460W        W46664   0.126   6.044   4.587  0.1367 -0.0483  0.0571
28461W        W46665  11.577  12.284  11.976 -0.0606  0.0999  0.1446
28462W        W46666   2.944  10.647   2.718  0.0019 -0.3123  0.2862
28463W        W46667  18.226   8.567  14.494 -0.0587  0.2664 -0.0932
28464W        W46668   7.380  16.268  13.038  0.0547 -0.0296  0.0291
28465W        W46669   0.164   2.628   0.491  0.1742 -0.1599  0.2658
28466W        W46670   3.248   7.338   1.309 -0.0331  0.1872 -0.3358
28467W        W46671  11.959  17.112  12.917  0.1894  0.3809 -0.2550
28468W        W46672   8.023  10.668  13.872  0.0230 -0.1908  0.1461
28469W        W46673   5.658  17.008  12.362  0.0110  0.4134  0.1049
28470W        W46674   7.469  15.512  12.773 -0.0651  0.1493  0.0653
28471W        W46675   0.617   7.209  12.787  0.0011  0.1185 -0.0879
28472W        W46676  12.399  13.207  11.756 -0.0906 -0.1108  0.1019
28473W        W46677   6.625  16.605   4.650 -0.2061  0.3075 -0.0973
28474W        W46678   2.230  14.663  13.031  0.0292  0.3047  0.0864
28475W        W46679   5.595  12.996  12.355  0.0136  0.0877 -0.3256
28476W        W46680  14.833   0.899   0.280  0.2570 -0.0735 -0.2290
28477W        W46681  18.574   0.455   4.050  0.0186 -0.2514  0.3305
28478W        W46682   1.659   6.193  13.779 -0.4493 -0.3645 -0.0874
28479W        W46683  11.993   9.525  14.467 -0.1647 -0.0680 -0.1195
28480W        W46684   9.623   5.882  12.965 -0.0277  0.1009 -0.2491
28481W        W46685   0.062   0.940   1.905 -0.2753  0.2600  0.0595
28482W        W46686   7.060   2.847  13.082  0.0428 -0.0131 -0.0122
28483W        W46687  16.242  15.765  14.943  0.1453  0.0437  0.2650
28484W        W46688   0.399  15.470   0.249 -0.0070  0.3022 -0.1602
28485W        W46689  12.071  11.968   3.690 -0.1357  0.1681  0.1491
28486W        W46690   7.460   9.904   1.365 -0.4562  0.2180  0.2329
28487W        W46691   9.557   8.459  12.448  0.0485  0.0613  0.1103
28488W        W46692  10.489  16.245   0.459  0.0854  0.1334  0.2457
28489W        W46693   8.843   7.208   4.542  0.0529 -0.0366 -0.1930
28490W        W46694  15.956   6.729   0.519  0.1761 -0.0751 -0.2055
28491W        W46695   4.050  15.512   0.137 -0.0011 -0.1428 -0.0157
28492W        W46696   9.274  12.769   1.654  0.2674  0.0599  0.0603
28493W        W46697   4.286  14.895  14.008 -0.0293  0.0272  0.2291
28494W        W46698   7.345   3.762  12.451  0.0159  0.2215  0.0005
28495W        W46699   9.620  11.752   1.732  0.1295 -0.1177  0.0526
28496W        W46700   1.234  11.643  12.435  0.0873  0.2628 -0.3146
28497W        W46701  12.203  12.958  13.734 -0.0009 -0.3078  0.0390
28498W        W46702   7.646  14.649  14.269  0.1994 -0.0087 -0.1016
28499W        W46703  16.689  13.474  11.924 -0.0135 -0.0562  0.1424
28500W        W46704   6.365   3.076  12.297  0.0085 -0.0401  0.1154
28501W        W46705  16.848  16.908  12.212 -0.0468  0.1615 -0.2012
28502W        W46706  14.830   8.201   3.715  0.0202 -0.1214 -0.3164
28503W        W46707   4.277   7.813   0.161 -0.0692  0.1292 -0.1032
28504W        W46708   2.224   8.032  10.840 -0.2330  0.4419  0.3763
28505W        W46709   6.431  16.033   1.985 -0.1863 -0.2317 -0.1367
28506W        W46710   8.910  18.044  12.341 -0.2076 -0.1247  0.4482
28507W        W46711  13.308   3.475  10.696  0.3541  0.1950  0.1574
28508W        W46712  10.713   4.140   1.411 -0.1346  0.0080 -0.0496
28509W        W46713  11.712   8.552  13.204  0.3991  0.1565  0.0103
28510W        W46714   5.632  17.539   3.511  0.0295 -0.1597  0.3009
28511W        W46715   7.150   1.023   2.726 -0.0851  0.0487 -0.1572
28512W        W46716  13.203  14.186  12.399 -0.0868 -0.1628 -0.2781
28513W        W46717  11.126   9.568  12.186 -0.4752  0.2781  0.1993
28514W        W46718  17.632   3.230  15.304  0.1033  0.0665 -0.3826
28515W        W46719   6.672  14.859   4.614  0.0091 -0.2340 -0.1138
28516W        W46720   2.406  16.572   0.513 -0.0530 -0.0228 -0.4955
28517W        W46721   5.150   3.441   3.261  0.2098 -0.0161  0.1017
28518W        W46722  14.410   3.050  14.145 -0.2977 -0.0902 -0.1775
28519W        W46723  17.975  16.977  15.295  0.0250  0.0309  0.5133
28520W        W46724   9.083  10.708   2.527  0.1112  0.1767  0.1546
28521W        W46725   5.879  13.138   3.473 -0.2417  0.2975 -0.1192
28522W        W46726  13.298   8.120   2.328  0.2703  0.0608  0.2039
28523W        W46727   4.035  18.660   2.968  0.1992 -0.0293  0.2042
28524W        W46728   9.948   4.185   2.307 -0.0028 -0.0985 -0.0858
28525W        W46729   3.846   6.651  11.615  0.1363  0.0401 -0.2491
28526W        W46730   7.738  15.035   1.355  0.3096 -0.1369 -0.0494
28527W        W46731   0.526   3.101  12.489 -0.0920  0.1018  0.1400
28528W        W46732  18.461   3.406   1.254 -0.1173  0.1717  0.1036
28529W        W46733   1.982  11.181   1.417  0.2988 -0.0137 -0.0668
28530W        W46734   1.531  13.321  15.283 -0.2632 -0.0450  0.0198
28531W        W46735   8.587  11.384  12.936 -0.1784  0.2120  0.1389
28532W        W46736   6.930  14.348  14.339 -0.0289 -0.2697  0.2162
28533W        W46737  17.003  16.916   1.794 -0.3214 -0.0590  0.0435
28534W        W46738   0.730  10.670   0.813 -0.0329  0.0576 -0.3537
28535W        W46739   9.635  15.141  11.110  0.2101  0.0768  0.1388
28536W        W46740  10.780   9.934   0.107  0.1710 -0.0151  0.3932
28537W        W46741   4.973  18.266  12.143  0.1124 -0.2380  0.0210
28538W        W46742  15.531   1.028   2.972 -0.1545  0.3484 -0.0873
28539W        W46743  15.919   3.105   1.199 -0.1003 -0.1138 -0.3298
28540W        W46744   3.887  16.178   3.638 -0.1402 -0.0797  0.2290
28541W        W46745  18.389   5.825  11.772 -0.4286 -0.0788  0.0777
28542W        W46746   9.584  13.660   1.377  0.1313 -0.1184 -0.1815
28543W        W46747  17.515   3.167   3.326  0.0043 -0.0734 -0.0400
28544W        W46748   5.567   0.261  14.037  0.0286 -0.1301  0.2277
28545W        W46749   0.406  16.091  14.062 -0.0576  0.1350  0.0987
28546W        W46750  17.672   3.230   2.346 -0.0046  0.0200  0.1503
28547W        W46751   1.970  16.603  12.555  0.3052 -0.1279 -0.1448
28548W        W46752   2.651   2.850   4.563 -0.3202  0.1419 -0.3043
28549W        W46753  18.546  11.620  12.739 -0.0252 -0.0774 -0.0295
28550W        W46754  16.305  17.901   4.376 -0.5065 -0.1397  0.0041
28551W        W46755   3.051   2.810   2.856 -0.0952 -0.2766 -0.1981
28552W        W46756   3.861   1.747   0.530 -0.0102  0.2424 -0.1396
28553W        W46757   5.421   3.693  11.506  0.1100 -0.0433 -0.0157
28554W        W46758   2.710  18.344  12.009  0.0443  0.1252  0.0657
28555W        W46759   4.813   9.474  12.874 -0.2652 -0.0186 -0.1204
28556W        W46760   8.632   6.598  14.616 -0.1610 -0.2027  0.2837
28557W        W46761   7.290   5.386  12.109 -0.2721  0.0830  0.2952
28558W        W46762  14.385  12.748   0.271 -0.0989  0.0947  0.1755
28559W        W46763  10.192  11.920  12.223 -0.0790  0.0480 -0.2234
28560W        W46764  10.438  10.324   3.090 -0.0462  0.0896  0.1201
28561W        W46765  12.090   4.627  15.279  0.2204  0.0643  0.1332
28562W        W46766  10.059   6.178  12.636 -0.1316  0.0141  0.0348
28563W        W46767   6.066  17.693   3.661 -0.0291 -0.0685 -0.1574
28564W        W46768   9.149   9.318  13.605 -0.0463  0.1596  0.0443
28565W        W46769   0.833   3.768   5.485 -0.0726 -0.1621 -0.0245
28566W        W46770  15.708  13.940   0.943 -0.3219  0.0228 -0.0215
28567W        W46771  13.246   2.905   1.959 -0.0386 -0.0520  0.1841
28568W        W46772   7.110   6.415   2.585  0.0046 -0.1476 -0.2875
28569W        W46773   0.554   1.223   3.489 -0.2833  0.2961  0.1672
28570W        W46774   7.441  15.318  10.497  0.0509  0.0304 -0.0293
28571W        W46775   4.498   5.558  11.772  0.1403 -0.0089  0.0329
28572W        W46776  16.699   5.223   4.436  0.1226  0.0995 -0.2751
28573W        W46777  10.007   7.050  12.519 -0.0529  0.1406 -0.1692
28574W        W46778   0.862  15.186  11.099  0.1612 -0.0661  0.0696
28575W        W46779   4.682  16.573  12.083  0.1289  0.1354 -0.2532
28576W        W46780  15.991  18.403   0.699  0.2315  0.1202  0.3521
28577W        W46781   3.188   1.599   4.508  0.3182  0.1138 -0.2276
28578W        W46782   3.587   9.012  13.224  0.1911 -0.2403  0.0575
28579W        W46783  17.051   5.794   0.446 -0.3149 -0.0334  0.0992
28580W        W46784   1.710  11.227   3.865  0.2051 -0.0121 -0.0894
28581W        W46785   8.076   5.358  13.151  0.1129  0.4979  0.2693
28582W        W46786  18.505  14.238   2.617  0.0841 -0.1934 -0.0189
28583W        W46787   9.753   1.359  12.366 -0.0263 -0.0387  0.0478
28584W        W46788  11.145  15.072   2.771  0.3934  0.2189 -0.0716
28585W        W46789   9.604  15.050  14.279  0.1087 -0.3750  0.2671
28586W        W46790  12.712  17.481  12.411 -0.0565 -0.2013 -0.0106
28587W        W46791   4.994   7.468   2.385 -0.3171  0.1508 -0.2328
28588W        W46792   1.725   1.498  13.779  0.2687  0.1536  0.0637
28589W        W46793  11.519   1.706   9.951 -0.4463  0.3459  0.2893
28590W        W46794   4.773   6.625   2.733 -0.1540 -0.0939 -0.0943
28591W        W46795  18.067   2.988   0.923  0.2742 -0.0927  0.0436
28592W        W46796  12.421  13.142   0.560  0.2185  0.2494 -0.1526
28593W        W46797   5.941  16.245  10.875 -0.0240  0.4296  0.3258
28594W        W46798  18.465   2.281  13.761  0.0084 -0.2084  0.1945
28595W        W46799   9.324   3.627  12.350 -0.0714 -0.0570 -0.1968
28596W        W46800  16.681  15.614  10.934  0.0663  0.0007  0.0059
28597W        W46801   2.305   2.508  12.284  0.0689  0.1351 -0.1770
28598W        W46802   0.349  12.613  15.204 -0.1958  0.0657 -0.3490
28599W        W46803  17.412  10.774   1.679 -0.0557  0.0103  0.2125
28600W        W46804   7.698  11.849  11.671 -0.0418 -0.1462  0.0907
28601W        W46805   5.326   6.005   3.511 -0.1696 -0.1669  0.2215
28602W        W46806   3.748  16.867  15.126  0.3683  0.1516  0.1174
28603W        W46807  11.527   5.759  13.143  0.0095 -0.0705 -0.0064
28604W        W46808  15.984  18.545   2.764 -0.0543 -0.0798 -0.2764
28605W        W46809  15.048  13.585  11.712  0.0360  0.2178  0.2060
28606W        W46810   3.091   0.518  12.436 -0.1227  0.1559  0.1372
28607W        W46811   4.643   4.360   3.531  0.2097  0.0286  0.0285
28608W        W46812  14.451   2.766  13.631 -0.0814  0.2001  0.0590
28609W        W46813  12.137   0.866  13.855  0.1092 -0.0484  0.0287
28610W        W46814   3.409   4.505   4.192  0.1835  0.0726 -0.2056
28611W        W46815  10.888  11.996  14.344 -0.1036  0.1905  0.1517
28612W        W46816   1.607  16.368  11.167  0.0224 -0.0465 -0.0916
28613W        W46817  10.633  11.225  11.782 -0.2215 -0.0221  0.2288
28614W        W46818   8.532   9.982  13.323 -0.1692 -0.1843  0.0279
28615W        W46819   7.556   3.860   2.702  0.0337 -0.1222  0.2809
28616W        W46820   5.068   6.516  14.262  0.0998 -0.4183  0.2100
28617W        W46821   7.872  12.727   4.762  0.1377 -0.2672 -0.0451
28618W        W46822  17.428   4.437  10.690  0.3713 -0.1419 -0.0569
28619W        W46823  18.026   4.186   4.281 -0.0183 -0.3560 -0.1340
28620W        W46824  18.407  15.610  15.394  0.0260 -0.0019 -0.0108
28621W        W46825   8.433   4.805  10.731 -0.4066  0.0304 -0.0706
28622W        W46826   6.971  12.487   1.420 -0.0367 -0.0774  0.2236
28623W        W46827   6.687  13.763   4.589 -0.0375 -0.2527  0.1011
28624W        W46828   3.840  14.687  14.004  0.2402  0.2079 -0.0655
28625W        W46829   3.594  14.385  13.588  0.1127 -0.0485 -0.0206
28626W        W46830  17.081  13.703   0.475 -0.0417  0.0005 -0.1895
28627W        W46831   0.583  11.364  15.166  0.0597  0.1460 -0.3004
28628W        W46832   3.031   3.959  13.437  0.2505  0.0732 -0.0285
28629W        W46833  15.898   3.129  13.059  0.1341  0.0051  0.0208
28630W        W46834   3.115   4.622   2.897  0.0822 -0.0347 -0.0778
28631W        W46835   9.058   2.491  12.262  0.1408 -0.1729  0.2906
28632W        W46836  16.618  16.360  12.321  0.0243 -0.2489 -0.0877
28633W        W46837   0.694  18.241  14.868 -0.0835  0.1000 -0.0647
28634W        W46838   9.342   8.736  10.721  0.2540 -0.0447  0.0006
28635W        W46839   0.877  13.978  14.259  0.0299 -0.0300 -0.4755
28636W        W46840   7.329  17.961   4.593 -0.2818 -0.0033  0.0030
28637W        W46841  18.410   1.041  12.179 -0.0411  0.2058  0.1163
28638W        W46842  15.402  17.496   2.433 -0.0834  0.2418 -0.2283
28639W        W46843  12.561   9.650   0.003  0.3314 -0.3170 -0.0332
28640W        W46844   1.336   1.065  12.133 -0.0442 -0.3869  0.2888
28641W        W46845  11.740   6.767   0.504  0.0949  0.1715  0.3063
28642W        W46846   1.951  16.884   0.682  0.1289 -0.0650 -0.1334
28643W        W46847   3.595   4.887  11.439 -0.1541  0.1648  0.0696
28644W        W46848   3.131   6.158   4.210  0.0990 -0.1609  0.0031
28645W        W46849   8.247  16.620   4.215  0.1797  0.3141  0.3989
28646W        W46850   8.192  11.106  12.756  0.3186 -0.1753  0.2397
28647W        W46851   9.858  11.191  13.229 -0.0038 -0.0760  0.2054
28648W        W46852  17.860   1.217   3.847 -0.1156  0.2112  0.0982
28649W        W46853  11.081  15.741   4.453  0.1164 -0.0696 -0.0429
28650W        W46854   2.868  15.668   0.246  0.0020  0.0916 -0.1187
28651W        W46855  18.184  11.416   1.496  0.1505  0.4977 -0.3668
28652W        W46856   4.944  16.623   2.333 -0.0263 -0.2780 -0.0802
28653W        W46857   3.090  17.197  11.768  0.0590 -0.2275  0.2370
28654W        W46858   6.161   1.388  11.740  0.0374  0.3355  0.0328
28655W        W46859   3.129   6.734   3.407 -0.1371  0.2243 -0.1848
28656W        W46860  16.505  14.014   1.361  0.2421  0.0375  0.1237
28657W        W46861   4.247  11.577  11.404  0.3055  0.3115 -0.1463
28658W        W46862   7.445   8.184   3.471 -0.0579  0.1515  0.0487
28659W        W46863   3.754  11.546  12.435  0.1436 -0.0017  0.2354
28660W        W46864  17.260  12.928  14.663 -0.0446  0.0366 -0.0068
28661W        W46865   9.043   8.220   2.289 -0.2103 -0.2420  0.1753
28662W        W46866  11.690  12.002   2.373  0.2616 -0.0569  0.0092
28663W        W46867  12.919   2.249   4.118 -0.1737 -0.1420 -0.0303
28664W        W46868   2.330  16.315   0.067  0.3438  0.0341 -0.0605
28665W        W46869  15.199  11.402  11.318  0.1316  0.1157  0.1449
28666W        W46870   3.756   9.505   0.051  0.0297 -0.0923  0.0836
28667W        W46871  10.804   1.177  15.015 -0.0680  0.3803 -0.4132
28668W        W46872  10.889  10.739  13.926  0.1743 -0.0743 -0.2048
28669W        W46873  13.850  14.202   1.745 -0.0345  0.4320  0.1413
28670W        W46874   7.878  11.227   4.181 -0.1372  0.3338  0.0048
28671W        W46875   2.352   7.836  14.520 -0.0138 -0.1106 -0.0480
28672W        W46876   7.810   9.874   3.963 -0.1463 -0.1679 -0.1035
28673W        W46877   3.284   3.917   5.306 -0.0150  0.3516 -0.0369
28674W        W46878  12.493  15.583   3.649  0.2200  0.1075  0.3483
28675W        W46879   9.619   1.555   0.613 -0.0419  0.3774 -0.1357
28676W        W46880   0.049  16.153  11.916  0.1118 -0.2206 -0.1143
28677W        W46881  12.795  16.450   2.907 -0.0653  0.1541  0.1538
28678W        W46882  12.677  18.505  11.702 -0.0273 -0.0824 -0.1677
28679W        W46883   0.935   1.537   3.710 -0.1604  0.4288 -0.0223
28680W        W46884  13.134   7.719   2.519 -0.3960  0.1513 -0.2061
28681W        W46885  15.428   5.221  13.188 -0.1083 -0.1542 -0.1812
28682W        W46886   9.901  10.438  14.264 -0.4232 -0.3557 -0.1095
28683W        W46887  14.207   7.447   1.107 -0.0674 -0.0755  0.4286
28684W        W46888   2.252  12.172  14.286  0.2138  0.0161 -0.0308
28685W        W46889   1.732  13.855   1.492 -0.1693 -0.1155  0.1314
28686W        W46890   8.996   9.454   2.487  0.1232 -0.0434  0.2789
28687W        W46891   6.425  17.826   0.291 -0.6307  0.3545  0.2609
28688W        W46892  16.429   9.525   4.642 -0.0554  0.1058  0.1272
28689W        W46893   9.051  18.542  10.822 -0.0725  0.0747  0.2038
28690W        W46894   1.555  17.722  13.905  0.0642  0.1829 -0.1191
28691W        W46895  10.369  14.688  12.874  0.1919  0.5439 -0.2647
28692W        W46896  17.660  14.720  11.658 -0.1021 -0.4850  0.0969
28693W        W46897  17.993  18.311  12.445  0.1905 -0.5264  0.3851
28694W        W46898  18.643   3.315   3.862 -0.3140 -0.2324 -0.1269
28695W        W46899  16.916   7.155   3.862 -0.0151 -0.3027 -0.1232
28696W        W46900   5.846  13.638  14.177 -0.2988 -0.2238  0.0868
28697W        W46901   1.052   7.471  12.558  0.0465  0.2338  0.1121
28698W        W46902   2.947  18.664  14.486  0.2425  0.3375  0.5220
28699W        W46903   2.592  14.743  13.970  0.0080 -0.2781  0.2441
28700W        W46904  14.302   1.082   0.528  0.0371 -0.1134 -0.1794
28701W        W46905  12.312  15.691  13.069 -0.2497  0.4236  0.0328
28702W        W46906   5.261  12.159  12.838  0.0987  0.0435  0.1700
28703W        W46907  15.034  15.570   4.315 -0.1920 -0.3108  0.1320
28704W        W46908   7.659   2.665   1.407 -0.3923  0.0113  0.1593
28705W        W46909   6.973   0.599   3.648 -0.1662  0.3988 -0.2059
28706W        W46910  17.065  15.863  11.479 -0.1067 -0.1751 -0.0270
28707W        W46911  16.304   3.758   2.957 -0.0864 -0.0500 -0.1990
28708W        W46912   8.392  12.448   2.448  0.2719 -0.2650  0.0270
28709W        W46913  14.798   7.389  12.171 -0.1470  0.2953  0.1769
28710W        W46914   2.101   9.353  10.545  0.0403 -0.1610 -0.0594
28711W        W46915  10.236  10.591  12.526 -0.0098 -0.2058  0.1744
28712W        W46916  12.682   6.997   0.356  0.6364  0.0961  0.0305
28713W        W46917   3.163   2.107   1.766 -0.1391  0.1430  0.1413
28714W        W46918  13.530   0.700   0.144 -0.1798 -0.0998 -0.2000
28715W        W46919   6.880   3.761   3.339  0.1463 -0.2941 -0.2050
28716W        W46920   8.105  15.951   3.664  0.4973 -0.3205 -0.2618
28717W        W46921   5.804   1.146  10.821  0.1109 -0.1353 -0.3577
28718W        W46922   2.955   7.278  10.194 -0.0651 -0.3166  0.3882
28719W        W46923  13.248  17.567  12.375  0.1882  0.1221  0.1939
28720W        W46924  12.164  16.777  10.979 -0.3989 -0.1048 -0.0539
28721W        W46925   7.613   9.178   4.720  0.0340 -0.0033 -0.3685
28722W        W46926   4.310   9.540  14.859  0.0408 -0.0270  0.0150
28723W        W46927   0.179  12.486   1.773  0.1347 -0.1714 -0.0612
28724W        W46928   3.600   8.454  13.672  0.0730 -0.0370 -0.0442
28725W        W46929   4.474  15.170  10.945 -0.0312 -0.0251 -0.1835
28726W        W46930  10.514   7.681   1.160 -0.0362  0.2802 -0.1090
28727W        W46931  13.802   6.577  13.019 -0.0725 -0.0160  0.0269
28728W        W46932   1.550   1.018  14.118  0.3049 -0.0975 -0.3263
28729W        W46933   7.803  15.311  13.809  0.0424  0.0394  0.0479
28730W        W46934  16.842   5.412  14.292 -0.1526 -0.0772  0.2887
28731W        W46935   6.074  14.661  14.536  0.2223 -0.1128  0.1906
28732W        W46936  15.888  10.966   3.909 -0.1405 -0.1068  0.0157
28733W        W46937  13.998  10.282  15.293  0.3890  0.1247 -0.0407
28734W        W46938  18.530   4.999  13.879  0.2908  0.1862  0.1643
28735W        W46939  17.047  15.667  12.539  0.0996  0.0086 -0.0485
28736W        W46940   6.096   6.050   2.592 -0.1668 -0.3586 -0.3103
28737W        W46941  12.786  14.713   1.880  0.3195  0.0728 -0.2152
28738W        W46942  14.263  17.568   4.038  0.1329  0.2155 -0.3116
28739W        W46943   6.038  12.616  10.872 -0.2201  0.1361  0.0465
28740W        W46944   0.919   9.852   1.359 -0.1286 -0.0145 -0.1498
28741W        W46945   9.250  18.626   1.469  0.1880 -0.0774 -0.0292
28742W        W46946   9.815   2.585   2.093  0.1555 -0.1040 -0.3949
28743W        W46947  10.836   4.179   0.577  0.1432 -0.0263 -0.2385
28744W        W46948  15.329  17.944   4.850 -0.1088 -0.1865 -0.0791
28745W        W46949   1.385   1.360   0.438 -0.0287 -0.0915 -0.1490
28746W        W46950   7.434   6.567   2.282 -0.0071 -0.0313  0.0911
28747W        W46951   3.462  17.826   5.229 -0.0875 -0.0842  0.1003
28748W        W46952  11.390  14.328  12.447  0.3971 -0.0405 -0.0522
28749W        W46953  17.711   6.101   4.597 -0.2256  0.0713 -0.0125
28750W        W46954   1.555  17.176   0.212  0.3574 -0.1100 -0.2243
28751W        W46955   8.594  18.097  15.029 -0.1520 -0.3050 -0.0659
28752W        W46956  15.904   9.605   0.204 -0.3531  0.1846 -0.2286
28753W        W46957  13.089   9.251   4.297  0.1466 -0.0059  0.3482
28754W        W46958   9.038   2.943   0.737 -0.0133  0.0230  0.2021
28755W        W46959   3.244  10.250   1.180 -0.0000  0.1170  0.2576
28756W        W46960   0.513  12.241  13.032  0.0280  0.0512 -0.1250
28757W        W46961   3.160   3.529  13.612 -0.1078  0.1971 -0.1153
28758W        W46962  18.166   4.932   2.940 -0.1757  0.3648  0.0410
28759W        W46963  15.544  14.411  11.716  0.0910 -0.2630 -0.0005
28760W        W46964  11.071  15.514   0.064  0.0067 -0.0120 -0.3386
28761W        W46965   8.196  13.509   2.942 -0.2277 -0.1875 -0.2047
28762W        W46966   6.356   5.499   0.014  0.1744  0.0074  0.1694
28763W        W46967   9.165  17.636   1.507 -0.1740  0.1350  0.2276
28764W        W46968   8.599   8.009   2.206 -0.0017 -0.3102  0.2020
28765W        W46969  18.185  18.107  12.845 -0.4325  0.1026  0.1935
28766W        W46970  12.725   5.715   3.464  0.2432 -0.0486 -0.0090
28767W        W46971  18.579  17.390  12.345  0.0553 -0.1805 -0.0263
28768W        W46972   6.774  12.804  15.439 -0.0754 -0.0431  0.0651
28769W        W46973  16.002  11.614   1.145  0.0921  0.0022  0.1003
28770W        W46974   3.168   7.607   4.307  0.1397 -0.1074  0.1683
28771W        W46975  11.523  18.213   3.446  0.0707 -0.1016  0.0336
28772W        W46976   0.684   9.812  14.726  0.1264  0.0322  0.4661
28773W        W46977  17.431  13.219  11.269  0.0815 -0.1840 -0.0214
28774W        W46978   0.917   5.688  11.429  0.0652  0.1359  0.2948
28775W        W46979  18.454   7.929   4.270  0.1596 -0.2478  0.2669
28776W        W46980   3.444  15.285  11.287  0.2211 -0.3856  0.3314
28777W        W46981  11.291   6.724  12.744  0.0707  0.1078  0.3824
28778W        W46982   7.710   5.635   0.946  0.1359 -0.2226  0.2462
28779W        W46983  14.671   5.466   1.136 -0.2601 -0.2486 -0.3450
28780W        W46984   0.048   9.193  14.710 -0.3152  0.0638  0.1884
28781W        W46985  10.562  11.245  11.257  0.3545  0.5340  0.1933
28782W        W46986   6.405   4.555  11.770  0.1766  0.0949 -0.0749
28783W        W46987  11.953  17.492   0.285 -0.1054 -0.1120 -0.2323
28784W        W46988   8.498   2.188   2.320  0.1536 -0.3422  0.0927
28785W        W46989  15.723  11.851   4.166 -0.2648 -0.1136  0.1644
28786W        W46990   6.867   3.733  13.237 -0.1427  0.1505  0.1283
28787W        W46991  17.306   6.281   0.401  0.0040 -0.1793 -0.3911
28788W        W46992   2.195  11.853  13.745  0.3293 -0.1146  0.0699
28789W        W46993   0.403   4.106  13.602  0.0588 -0.1007  0.2333
28790W        W46994   7.167   8.542   3.694  0.3776  0.1713 -0.0303
28791W        W46995   5.897   3.724  14.651  0.0559  0.1573  0.0621
28792W        W46996   2.929  11.798   0.540 -0.0941  0.1324 -0.0979
28793W        W46997   4.461   0.495   0.486 -0.1605 -0.1775  0.3125
28794W        W46998   3.300   4.695  11.808  0.1721  0.0906 -0.0867
28795W        W46999   8.330  15.337  13.643  0.2905 -0.3041 -0.2530
28796W        W47000   9.238   9.538  12.722  0.3648  0.1358 -0.1379
28797W        W47001  17.658  17.778   2.355  0.0463  0.0468 -0.3382
28798W        W47002  17.499  17.642   0.684  0.0883 -0.2880 -0.1909
28799W        W47003  10.749  10.301   1.040 -0.1712 -0.1323 -0.3065
28800W        W47004   4.512  13.276   4.465  0.1698  0.1453 -0.1169
28801W        W47005  15.557  10.040  11.876 -0.0392 -0.1055 -0.1307
28802W        W47006   2.080  13.993  12.686  0.0070 -0.0739 -0.0056
28803W        W47007   4.720   4.852   2.710  0.1293 -0.0204 -0.1770
28804W        W47008   4.207  16.655  14.098 -0.1756  0.0369  0.0178
28805W        W47009  16.229   6.953  12.878 -0.0957  0.0971 -0.1000
28806W        W47010  12.158   7.834  15.184  0.1355 -0.2628 -0.3498
28807W        W47011   4.988  16.047  14.754  0.1412 -0.1412 -0.3389
28808W        W47012   9.525   9.506  11.150 -0.0334 -0.3167 -0.0635
28809W        W47013   7.557  16.244   0.007 -0.0268  0.0860 -0.2158
28810W        W47014   4.913   8.052  15.014 -0.1623  0.0779  0.0339
28811W        W47015  17.025  16.365  11.557  0.2428  0.2817 -0.0838
28812W        W47016  11.542  17.364  10.721  0.3125 -0.0100  0.0929
28813W        W47017  18.149  16.738  14.654 -0.1148  0.1054 -0.0553
28814W        W47018   9.031  12.142   1.509  0.0651 -0.3873  0.0718
28815W        W47019   8.782  11.077   4.854 -0.1272  0.2056  0.1978
28816W        W47020   3.658   7.889   4.394  0.4417  0.0649  0.0880
28817W        W47021   4.169  13.450   3.241  0.2406  0.0283  0.0229
28818W        W47022  16.928  13.139  11.172 -0.0690  0.0242 -0.3150
28819W        W47023   0.547   8.409  11.596 -0.5521  0.2397  0.0208
28820W        W47024   0.562  11.981   5.951  0.0034  0.0610  0.2041
28821W        W47025   0.137   1.042  11.041 -0.0522  0.0048 -0.1764
28822W        W47026   4.606  12.176  14.575  0.1211  0.2582  0.0964
28823W        W47027   4.816   2.300  12.160  0.2642  0.2988 -0.2969
28824W        W47028   6.871  10.013  12.230 -0.0058  0.1790  0.1615
28825W        W47029  10.959  12.142  10.994  0.0305 -0.1014  0.2472
28826W        W47030   3.586  18.003   3.961  0.2390 -0.1816  0.0088
28827W        W47031   5.185   0.120  14.331 -0.2482  0.1996  0.3646
28828W        W47032   4.617   3.463   1.368  0.1711  0.1379  0.3917
28829W        W47033  17.284  16.236   3.751  0.1892 -0.3328  0.3797
28830W        W47034   8.236   1.763  13.611  0.1606 -0.1970 -0.2050
28831W        W47035  15.246   1.087   1.054  0.1202 -0.1029  0.1151
28832W        W47036  12.760  10.849  10.406  0.0091  0.0992  0.0574
28833W        W47037   5.909  13.579   1.966  0.1498  0.0924  0.2573
28834W        W47038  12.237   9.039  12.737 -0.2064  0.0864 -0.0789
28835W        W47039   2.029   9.573   0.799 -0.1621 -0.0576 -0.0318
28836W        W47040  14.444   3.806  14.032 -0.0880  0.1750 -0.1096
28837W        W47041  13.583  15.963   1.612 -0.4039 -0.0072 -0.1931
28838W        W47042  16.495   1.496   4.182  0.1516 -0.1184 -0.0373
28839W        W47043  10.582   8.014  14.462 -0.4362  0.0794  0.2584
28840W        W47044   1.116  18.512   2.415 -0.3861 -0.1836  0.1085
28841W        W47045   0.784   1.101   4.968 -0.1674  0.0071  0.0738
28842W        W47046   3.700  11.679   1.524 -0.1316  0.1671  0.2217
28843W        W47047   2.761  10.804  13.131 -0.2877  0.2895  0.1325
28844W        W47048   4.468  10.772  14.753  0.0131 -0.0874 -0.0194
28845W        W47049  11.040   3.634  15.311  0.0421 -0.0342  0.0836
28846W        W47050   1.193  11.709   5.230  0.3063  0.1513 -0.0419
28847W        W47051   8.160   1.259  14.795 -0.3226 -0.0090 -0.2095
28848W        W47052  14.894   4.913   2.193 -0.2695  0.0993  0.3920
28849W        W47053  16.740   5.920   2.560  0.0246 -0.0598 -0.1512
28850W        W47054  12.854   5.230   4.439 -0.1756 -0.2285  0.1958
28851W        W47055  11.994  17.867  14.590  0.0321  0.1113 -0.0150
28852W        W47056   4.544  14.143   2.662 -0.0820 -0.0130 -0.1505
28853W        W47057  14.542   4.283  13.029 -0.0267  0.0824 -0.3461
28854W        W47058  16.934  14.051   0.773 -0.0518 -0.0023 -0.0673
28855W        W47059   6.733   5.867   0.116  0.3070  0.0194  0.3780
28856W        W47060   1.866   2.792   1.589 -0.1924  0.1448  0.1568
28857W        W47061   6.103   8.943  12.964  0.0514 -0.3536 -0.0045
28858W        W47062  17.573   8.044  14.596  0.2535  0.0498  0.1390
28859W        W47063  12.159  18.618  13.944 -0.0684 -0.1249  0.1245
28860W        W47064   6.621  11.985   3.943 -0.1925  0.2076 -0.2981
28861W        W47065   7.006  13.452   4.276 -0.2536  0.0501  0.2343
28862W        W47066   0.626   4.351   4.397  0.0776  0.2660 -0.1254
28863W        W47067  15.253  15.472  14.461 -0.2585 -0.0962  0.0702
28864W        W47068   2.787   3.697  12.483 -0.1989  0.2377 -0.2734
28865W        W47069  12.339   2.866  13.799  0.0779  0.1579 -0.0563
28866W        W47070  15.617  14.246   3.061 -0.0552  0.2325  0.1006
28867W        W47071   7.945  10.941   3.305  0.1000  0.0586 -0.2482
28868W        W47072  17.099  14.761   0.699  0.1079 -0.2519 -0.1574
28869W        W47073  10.464   1.803  12.773  0.0213 -0.3751 -0.0162
28870W        W47074  12.008  11.453   0.205 -0.3409 -0.0394 -0.1788
28871W        W47075   2.194  13.787  11.261 -0.0640  0.0538 -0.2190
28872W        W47076   6.355   1.326   0.124 -0.0759  0.2980  0.0076
28873W        W47077   8.518  16.046   1.675 -0.3012  0.2956 -0.0809
28874W        W47078   7.473  12.523   0.704 -0.1654 -0.0083 -0.0537
28875W        W47079  14.377  12.598  15.241  0.1677  0.1746  0.1726
28876W        W47080  17.662  17.812   1.507 -0.2181 -0.2262  0.0635
28877W        W47081  15.624   9.570  11.346 -0.1595  0.1544  0.2225
28878W        W47082   9.178   5.249  15.385  0.0401 -0.2335  0.0082
28879W        W47083   4.615  16.905   0.972  0.4691 -0.1033  0.1210
28880W        W47084   5.955   6.518  11.589  0.0139 -0.1677  0.2298
28881W        W47085   4.810   7.317   0.617 -0.0700 -0.2849 -0.2390
28882W        W47086  17.602   5.575   4.566 -0.0824 -0.5820 -0.2074
28883W        W47087  17.495   9.913  11.661  0.0141  0.0145 -0.0681
28884W        W47088   8.195  18.133   1.344 -0.3605 -0.3117  0.1344
28885W        W47089  10.737  10.844  12.971 -0.3484  0.1997 -0.1088
28886W        W47090   1.343   9.936   0.283 -0.0697  0.1305  0.0977
28887W        W47091   7.500  16.801   3.435 -0.1476  0.2463 -0.2086
28888W        W47092  15.589  10.363  12.263  0.0543  0.1011  0.1452
28889W        W47093  16.329   7.466  13.991  0.2302 -0.0939 -0.1070
28890W        W47094  14.128   2.912  11.944 -0.0373 -0.1632 -0.1055
28891W        W47095   2.092   8.126  13.659 -0.2191 -0.1939 -0.0569
28892W        W47096  14.051   4.543  14.319 -0.1813 -0.1881  0.0290
28893W        W47097  11.079  11.307  11.457  0.2133  0.0830 -0.1584
28894W        W47098  15.008   4.971  12.918 -0.1704 -0.2401 -0.0160
28895W        W47099  17.786   6.075   1.698 -0.1242  0.3275 -0.0310
28896W        W47100   3.652   5.733   1.511  0.0214 -0.3340 -0.1609
28897W        W47101  17.622  17.489  13.599 -0.0397 -0.0577 -0.1693
28898W        W47102   0.738   1.789   3.289 -0.0144 -0.2268 -0.1388
28899W        W47103  17.242   3.572   4.152 -0.1164 -0.0723  0.1089
28900W        W47104  10.256   3.555  11.947  0.3537 -0.1635 -0.0871
28901W        W47105   2.625   5.873   2.531 -0.1442 -0.3199  0.1973
28902W        W47106   2.062   6.765  11.038 -0.0961  0.0591  0.2246
28903W        W47107   1.833  11.387  15.204 -0.3992  0.6888 -0.0532
28904W        W47108   5.226  15.036  13.956  0.0416 -0.0646  0.0881
28905W        W47109  14.670  10.768   5.350  0.3909  0.3293 -0.1997
28906W        W47110   9.996  10.713   0.674  0.2203 -0.1514  0.2540
28907W        W47111  12.467  13.094   2.901 -0.1590 -0.0264 -0.2227
28908W        W47112   8.734   8.137  15.013 -0.1288  0.3823  0.1431
28909W        W47113   6.241  10.954   3.662 -0.0792  0.1029 -0.1599
28910W        W47114  15.078  16.860  14.373 -0.1820  0.2286  0.2314
28911W        W47115  15.377  18.245  12.596 -0.0535  0.0489 -0.0628
28912W        W47116  11.345   0.834   0.087 -0.1157 -0.0346  0.0468
28913W        W47117   8.356   1.563  10.538  0.2809  0.2040 -0.0419
28914W        W47118  16.486  15.365   3.919 -0.2772 -0.1864  0.0760
28915W        W47119   5.871   9.558  10.893  0.0241  0.0953 -0.0367
28916W        W47120   6.998  15.335  12.574 -0.1506  0.1554 -0.0116
28917W        W47121   8.520  15.122   4.430  0.1574 -0.0666 -0.2505
28918W        W47122  15.244   9.932  15.161 -0.2642 -0.0970  0.1786
28919W        W47123  15.324   7.597   5.628 -0.2155 -0.2228  0.2982
28920W        W47124  13.393   9.699   4.096 -0.0353  0.1500  0.1172
28921W        W47125   3.606   0.234   3.169  0.2788 -0.1002  0.0367
28922W        W47126  14.101  12.731  10.901 -0.2790 -0.1381  0.1257
28923W        W47127   1.474  13.003   1.236 -0.0353  0.1809  0.2191
28924W        W47128  11.825  12.868   2.991 -0.2388 -0.4018 -0.1232
28925W        W47129  13.245   6.969  13.829 -0.0966 -0.0513 -0.0894
28926W        W47130   8.432  14.171   0.243 -0.2758  0.1474  0.0596
28927W        W47131  14.367   8.573  12.096  0.0595 -0.1740  0.3665
28928W        W47132   7.440   6.280  13.225  0.1342  0.0129  0.1737
28929W        W47133   6.062  12.237  14.085  0.1765 -0.1029 -0.0064
28930W        W47134  14.991   6.674   2.027 -0.4695  0.2013 -0.3657
28931W        W47135   3.694  11.002  11.196  0.0017 -0.0821 -0.2042
28932W        W47136   8.742  11.714   0.289 -0.0830 -0.3826  0.0292
28933W        W47137  15.204   5.355  13.637  0.1174  0.1254 -0.2710
28934W        W47138   1.725   8.297  12.631  0.0521 -0.1989 -0.1347
28935W        W47139   0.065   9.963   3.558  0.0122  0.1409 -0.0277
28936W        W47140   2.885   8.134  13.212  0.1624  0.1941 -0.3033
28937W        W47141  11.269   2.463   0.234 -0.0814 -0.0222 -0.0843
28938W        W47142   0.445   5.782   4.298  0.1321 -0.2158  0.5237
28939W        W47143   7.212  13.224   2.620 -0.4046 -0.0385 -0.1070
28940W        W47144  14.779   8.721   3.659 -0.0124  0.1590  0.1601
28941W        W47145   8.097   2.279  11.485 -0.1592  0.1578  0.1926
28942W        W47146   8.456   2.193  14.625 -0.2026 -0.0865 -0.1031
28943W        W47147  16.869  13.820   4.585  0.0193 -0.2173 -0.0328
28944W        W47148  15.526   6.146  11.093 -0.0755 -0.0224  0.0191
28945W        W47149  13.135   6.405   2.744 -0.1556 -0.1199 -0.3566
28946W        W47150  15.522  12.108   2.973 -0.0299  0.1168  0.0865
28947W        W47151   9.300  17.691   2.518  0.0251  0.2084  0.0394
28948W        W47152  15.543   5.617   3.833 -0.0199  0.0282  0.2043
28949W        W47153  13.565  10.295   4.167 -0.1028  0.1597 -0.4854
28950W        W47154   2.104   3.300  12.813 -0.0399  0.0199 -0.2084
28951W        W47155  16.673   1.631  10.903 -0.1527  0.0724  0.2911
28952W        W47156   5.207  17.307  11.175  0.1458 -0.0968  0.5051
28953W        W47157   1.266  10.424  11.224  0.0437  0.1132  0.2554
28954W        W47158   0.285  14.697  11.558  0.1928 -0.1410  0.0315
28955W        W47159  11.868   4.761   0.260 -0.0527 -0.1676 -0.0384
28956W        W47160  15.203  12.448  12.333  0.3591  0.1804 -0.1475
28957W        W47161   9.198  12.459   0.912  0.3170 -0.0399 -0.2628
28958W        W47162  17.920   0.722  14.387 -0.4175  0.0845 -0.3786
28959W        W47163   7.369   7.604   4.123  0.2373  0.0727  0.0069
28960W        W47164   7.235   5.591   2.225  0.0922 -0.0300  0.0754
28961W        W47165   2.607   9.580  14.072 -0.1030 -0.3526  0.3603
28962W        W47166  13.368  11.081   0.408 -0.1029  0.2520  0.0364
28963W        W47167   9.062  17.359   4.254  0.2582  0.1828  0.0543
28964W        W47168   0.968   5.785   3.510  0.0810 -0.0036  0.1610
28965W        W47169  13.404  16.679  13.760 -0.1732  0.0495  0.1027
28966W        W47170  10.218  15.767   4.118 -0.0861 -0.1474 -0.1143
28967W        W47171   1.368   3.781  15.069 -0.2046 -0.0092  0.1051
28968W        W47172  10.685  14.393   2.762 -0.2016  0.0018 -0.1631
28969W        W47173   4.591   8.733   3.493  0.1089 -0.1504 -0.0075
28970W        W47174   8.672   4.171   0.946 -0.1797  0.3044 -0.1585
28971W        W47175  17.441  16.947   1.544 -0.1514 -0.2072  0.0049
28972W        W47176   3.964   9.779  13.680  0.4014  0.1268  0.2738
28973W        W47177  17.522   5.068   0.631  0.1644  0.1525 -0.1164
28974W        W47178  14.966   5.329   2.520 -0.0408  0.0512 -0.1832
28975W        W47179   6.644   2.221   3.318  0.4571  0.1293 -0.2198
28976W        W47180   6.182  18.168  15.458  0.1797 -0.0132 -0.0799
28977W        W47181   7.761  12.643  13.110 -0.0717 -0.1422 -0.0944
28978W        W47182   6.511  10.315  12.864 -0.1717  0.0185  0.0272
28979W        W47183   5.617   6.516   1.623  0.2723 -0.0981  0.0773
28980W        W47184   0.573  16.486  13.771  0.0669 -0.1379 -0.1663
28981W        W47185  18.269  18.194  15.183 -0.1536 -0.1335  0.0561
28982W        W47186   9.112  11.938   2.025 -0.1046 -0.1658 -0.1672
28983W        W47187  16.702   2.371   4.215 -0.0145  0.0554 -0.2776
28984W        W47188   4.321   9.063   0.864  0.4153 -0.0927  0.3006
28985W        W47189   0.013   6.340  14.120 -0.0159 -0.1756  0.2457
28986W        W47190   7.183   5.694   0.217 -0.1260 -0.1988 -0.2648
28987W        W47191  11.785   9.613   1.969  0.2493 -0.3190 -0.1007
28988W        W47192   9.077  12.384  12.833  0.2117  0.0776 -0.3326
28989W        W47193   9.938  18.101  12.095  0.2585 -0.1227  0.1212
28990W        W47194   9.301   2.950  14.416  0.0077 -0.0700  0.3045
28991W        W47195  14.705  17.061   0.333 -0.0332  0.1210  0.2325
28992W        W47196  15.969   8.964   3.172  0.1748  0.0091 -0.2604
28993W        W47197   0.807   5.408   5.675  0.1665  0.1551 -0.1479
28994W        W47198  14.009   6.190   3.459  0.3700  0.2316  0.1050
28995W        W47199  17.383   7.511   1.222  0.0120 -0.1821  0.1071
28996W        W47200   8.311  10.683  10.003  0.0331 -0.3066  0.0519
28997W        W47201   2.933   5.229   2.099  0.2214 -0.1009 -0.0259
28998W        W47202   5.733  17.979  15.233 -0.3268 -0.0691  0.0789
28999W        W47203   0.781   0.077   0.694  0.2022 -0.0041  0.1891
29000W        W47204   4.720  10.460   0.273 -0.0071 -0.4852  0.0749
29001W        W47205  10.135  14.357   3.636  0.1978  0.3597  0.2544
29002W        W47206   3.262  11.340  12.450 -0.0083 -0.4400  0.3826
29003W        W47207  13.420   2.979  13.619  0.0900  0.1620 -0.2964
29004W        W47208  17.511  11.746   4.618  0.0262 -0.1911  0.1937
29005W        W47209   7.571   4.434   3.632  0.0745 -0.3472  0.0486
29006W        W47210   9.936  13.393  14.325 -0.0549 -0.0707  0.0763
29007W        W47211   1.461  16.606   2.281  0.2147 -0.1501  0.0315
29008W        W47212   2.379   1.919  11.829  0.3195  0.3390 -0.0553
29009W        W47213  12.222  11.088  15.423 -0.0706  0.0267 -0.2945
29010W        W47214  12.552   2.009  11.248 -0.0649 -0.0022  0.1376
29011W        W47215   2.404   2.594  15.433  0.1212 -0.1211 -0.0651
29012W        W47216   8.954   0.877  12.459 -0.1929 -0.3182  0.1202
29013W        W47217   2.648  12.801  12.255 -0.1501 -0.3830  0.1177
29014W        W47218   5.627   1.906  10.588  0.2866 -0.1685  0.2103
29015W        W47219  15.066  10.837  13.079  0.1641 -0.2742  0.0959
29016W        W47220   0.077  10.876   0.230  0.0216  0.0122 -0.0327
29017W        W47221  13.819   3.716  10.617 -0.2950  0.1993 -0.0007
29018W        W47222   3.936  14.693   0.322 -0.2716 -0.0722  0.0327
29019W        W47223   0.838   2.030   3.687  0.1080  0.1005 -0.1441
29020W        W47224   1.950  12.195  10.706  0.0437  0.1385  0.1616
29021W        W47225   6.953   5.720  11.963  0.0058 -0.1849  0.0290
29022W        W47226   1.260  14.115   2.184  0.1945  0.1575  0.2499
29023W        W47227  11.586  10.496  13.031 -0.0803 -0.1174 -0.0949
29024W        W47228   2.045  14.305   2.106  0.1486  0.0790 -0.0924
29025W        W47229  13.434   1.910   3.363  0.1208  0.0401  0.0193
29026W        W47230   3.762   5.067  12.498  0.1439 -0.0627  0.1651
29027W        W47231   4.179  16.904  13.307  0.1603 -0.2536 -0.1500
29028W        W47232  10.886  12.466   1.962 -0.1153 -0.0626 -0.0518
29029W        W47233   6.473  18.481   1.427  0.0683  0.1590 -0.1594
29030W        W47234  10.656   2.766  13.142  0.2211 -0.3366 -0.3552
29031W        W47235   6.304  16.144   1.120  0.1285 -0.1469  0.1944
29032W        W47236  14.563  12.483  14.682  0.1222  0.0170  0.0463
29033W        W47237   6.751   4.194   1.996  0.4513 -0.1980 -0.1556
29034W        W47238   2.285  18.397  12.237  0.2575  0.1834 -0.0917
29035W        W47239  16.496   0.521   2.905 -0.0889 -0.1394 -0.0519
29036W        W47240   4.637   5.642  11.225  0.1149  0.2509  0.0396
29037W        W47241   2.742  15.537   4.116 -0.2629  0.3036 -0.3984
29038W        W47242  17.368   4.367   3.325 -0.2181 -0.1476  0.4669
29039W        W47243  14.559   7.509  12.871  0.0413 -0.1273 -0.0174
29040W        W47244   3.357  11.136  13.635 -0.0459  0.2443 -0.0819
29041W        W47245   4.712  16.827   3.087  0.1571  0.0174 -0.1895
29042W        W47246  16.706  14.569   0.445 -0.0201  0.0263  0.2250
29043W        W47247  13.831   9.888  13.714 -0.2159  0.1016 -0.1212
29044W        W47248  10.141  14.729   0.026  0.0942 -0.0308  0.3337
29045W        W47249  11.630  15.498  13.239 -0.0889 -0.0227  0.0141
29046W        W47250  14.085  17.248   4.421 -0.1868  0.3359 -0.0496
29047W        W47251  13.815  11.853   1.611 -0.2128  0.0991 -0.0688
29048W        W47252   9.742   9.863   0.974 -0.1095  0.2443  0.0395
29049W        W47253   4.017  17.927  14.836  0.1255  0.2094  0.0768
29050W        W47254  15.469  18.021  11.623 -0.0648 -0.1028  0.0943
29051W        W47255   0.380  14.323  14.186  0.2526  0.3823 -0.1201
29052W        W47256   0.332   4.317  11.236  0.0751 -0.1280 -0.0288
29053W        W47257   4.246  11.236   0.135 -0.0734 -0.0796 -0.1348
29054W        W47258   5.155   1.085  13.559  0.0316  0.0329 -0.0083
29055W        W47259  16.457   4.636  14.035  0.1858  0.2100  0.1002
29056W        W47260  14.501   8.245  14.516  0.0711 -0.0463  0.3722
29057W        W47261   8.290  14.375   3.922 -0.0908  0.1648 -0.0109
29058W        W47262   8.967  14.660  14.746  0.0915  0.1906 -0.0844
29059W        W47263   3.930  13.209   2.792  0.1018  0.0568 -0.2608
29060W        W47264   1.710   3.875  15.459 -0.0811  0.1770  0.0558
29061W        W47265   2.302   4.251  11.218  0.0818  0.1435  0.0029
29062W        W47266   1.865  11.738  12.958 -0.0930 -0.1562 -0.0454
29063W        W47267   9.488  17.218   1.633  0.0676  0.3415 -0.0281
29064W        W47268   8.419  18.261  11.085  0.0290 -0.0440  0.1208
29065W        W47269   9.221  10.580   3.123 -0.0629 -0.1390 -0.0014
29066W        W47270  17.841   1.545   2.183  0.1741  0.1562 -0.3260
29067W        W47271  14.892   0.085  10.565 -0.0705  0.0976  0.3239
29068W        W47272   7.320   5.744   1.740  0.2234  0.1569 -0.1091
29069W        W47273   9.569   1.744  12.054 -0.2439 -0.0612 -0.0460
29070W        W47274  17.228   2.505   2.961  0.1360  0.1635 -0.0960
29071W        W47275  16.890   6.112  12.052 -0.0377  0.0603 -0.0887
29072W        W47276   5.693  14.649   0.262  0.1542  0.1304  0.5690
29073W        W47277  10.764   0.229  14.045 -0.1621 -0.0279 -0.0385
29074W        W47278   1.677   2.871  15.265  0.0091  0.0270  0.0289
29075W        W47279   3.910  11.659   2.001  0.0716 -0.0537  0.1089
29076W        W47280  14.965  17.687   2.656  0.1743  0.0673 -0.0265
29077W        W47281   5.729  16.754  10.576  0.2253 -0.0310 -0.2513
29078W        W47282  12.484  13.883   4.204 -0.1991  0.0862  0.1519
29079W        W47283  17.736   8.306  15.164  0.3642  0.2614 -0.2665
29080W        W47284  13.392   6.468   0.767 -0.3639 -0.2507  0.2196
29081W        W47285   5.697   5.984  12.544 -0.2001 -0.1663  0.1087
29082W        W47286   2.673   9.887   1.194 -0.3267  0.0220  0.1066
29083W        W47287  11.626   8.065   1.218  0.0726  0.1820 -0.0167
29084W        W47288   6.652   2.091  14.918  0.1289 -0.1914 -0.0748
29085W        W47289   4.167  14.104  11.785  0.0158  0.0863 -0.0742
29086W        W47290   4.573   1.115  11.311 -0.2263  0.1622 -0.4208
29087W        W47291  11.266   1.187   4.321  0.1373 -0.0521 -0.2116
29088W        W47292   0.347  12.649   0.783  0.2078  0.0674  0.0799
29089W        W47293   9.554   9.629  14.460  0.1496 -0.1271 -0.0688
29090W        W47294  16.016   1.557   0.457 -0.0037  0.1176 -0.0107
29091W        W47295   6.130   0.119   2.152  0.1520  0.3099  0.3433
29092W        W47296   4.298   4.114   2.357 -0.2345  0.1721 -0.0558
29093W        W47297   0.029   1.323  15.122  0.1139 -0.2575  0.0219
29094W        W47298  16.444  10.297  11.090  0.1912 -0.2213 -0.0999
29095W        W47299  12.651   4.911   1.394 -0.1773 -0.0413 -0.0298
29096W        W47300   2.975   4.120  14.584  0.1305 -0.1287  0.1419
29097W        W47301   8.058   9.232   3.005 -0.0993  0.1478  0.2663
29098W        W47302  15.787   9.975   2.301 -0.3603 -0.3373  0.3622
29099W        W47303  13.912   4.346   4.448  0.1938 -0.0881 -0.0242
29100W        W47304  14.020  16.012   2.386 -0.5370  0.1100 -0.1613
29101W        W47305   7.489  13.653   3.946 -0.1209 -0.0944  0.0241
29102W        W47306  17.913   8.029   0.373  0.2262  0.2662  0.0212
29103W        W47307   5.887  18.190   1.349 -0.3930  0.5518 -0.3962
29104W        W47308   4.702   8.539   0.255  0.0742  0.0169  0.0367
29105W        W47309  17.567   4.349   4.035  0.2613  0.1152  0.0316
29106W        W47310  11.291   7.544  12.433 -0.2013  0.0354  0.1990
29107W        W47311  10.091   8.373  11.368 -0.1047  0.1166 -0.3119
29108W        W47312   3.403   8.734  11.978 -0.2160 -0.0163  0.0001
29109W        W47313   1.746  15.717   1.344  0.0016 -0.2493 -0.1511
29110W        W47314   7.476  15.431  14.703 -0.3046 -0.0440 -0.4138
29111W        W47315  14.712  15.182  12.296 -0.0704 -0.1015 -0.1431
29112W        W47316   4.152   8.107   1.482  0.1299 -0.2263  0.2763
29113W        W47317   7.246  16.002   3.618 -0.1977  0.2332 -0.3628
29114W        W47318   2.868   2.086  11.707 -0.1560 -0.0012  0.1849
29115W        W47319   7.715   9.204   3.407  0.1022  0.2744 -0.2220
29116W        W47320  11.868  14.420  13.839  0.1127 -0.1291  0.4241
29117W        W47321   4.500   5.915  13.258  0.0180  0.0862 -0.2336
29118W        W47322   7.410  18.446  15.261  0.0120  0.3559 -0.0582
29119W        W47323   4.712   1.249   2.344  0.0082  0.3128  0.1346
29120W        W47324   3.694   0.820  13.757  0.3036  0.1209 -0.1275
29121W        W47325   9.609  11.596   4.461 -0.3184  0.2775 -0.0259
29122W        W47326  17.407  17.099   4.057 -0.0461  0.1112  0.0143
29123W        W47327   7.863   7.515   4.668 -0.0070  0.0752 -0.1299
29124W        W47328  18.684   1.357   5.162 -0.2042 -0.0369 -0.1683
29125W        W47329   3.977   8.228  10.944  0.2060  0.1670  0.0302
29126W        W47330  14.827   1.905   1.344 -0.1693  0.1074 -0.0653
29127W        W47331  15.438   6.118   5.261  0.2456 -0.1330 -0.1101
29128W        W47332  18.481  17.877   2.589  0.0622 -0.2448 -0.0266
29129W        W47333   5.667  14.619  10.549  0.3710  0.0737  0.1904
29130W        W47334   7.997  11.118   0.307 -0.3365  0.3326 -0.2119
29131W        W47335   3.551  14.349   4.118 -0.1877 -0.0029  0.1490
29132W        W47336  16.198   0.581  10.142 -0.0329  0.1228 -0.2323
29133W        W47337   5.734   0.488  14.961 -0.0426 -0.2299  0.2910
29134W        W47338   7.997   4.258  13.678 -0.3289  0.1117  0.0647
29135W        W47339   9.276  17.840  13.326 -0.0766  0.2600 -0.3018
29136W        W47340  17.935  13.907   3.430  0.1132 -0.0402 -0.2947
29137W        W47341   7.819   4.848   2.750 -0.2406 -0.2516  0.0394
29138W        W47342  17.195  15.255   2.303 -0.0931  0.0891 -0.0462
29139W        W47343  17.154   0.008   4.635  0.1498  0.0843  0.1738
29140W        W47344   4.793   7.710  14.652  0.2575  0.2091 -0.1130
29141W        W47345  13.294  14.382  11.869  0.2169  0.0729 -0.0025
29142W        W47346  15.765   1.746   3.057 -0.0411  0.2028  0.1624
29143W        W47347   2.541  18.693   2.008  0.3069  0.2018  0.0124
29144W        W47348   3.645  10.706  14.320  0.2321  0.1694 -0.0682
29145W        W47349  15.680   5.233  13.641  0.1333  0.0287 -0.0347
29146W        W47350   3.246  10.631  14.588 -0.2053  0.1263 -0.0560
29147W        W47351   5.506  13.971  14.998 -0.2766 -0.0545 -0.0723
29148W        W47352  15.147  12.538   1.705 -0.3653 -0.0014  0.0578
29149W        W47353   0.462   5.339  14.384  0.2593  0.2562 -0.1540
29150W        W47354   6.517   9.833  13.806 -0.2568 -0.1503 -0.0339
29151W        W47355   3.566   0.752  12.828 -0.0363 -0.2401 -0.1542
29152W        W47356  15.528  12.912  12.988 -0.0457 -0.4734 -0.1124
29153W        W47357  12.920   3.704   2.012 -0.0247 -0.0986  0.1531
29154W        W47358  13.422   5.825  12.875  0.1729  0.3294 -0.2784
29155W        W47359   8.339  13.235  13.497  0.3370 -0.0099  0.2482
29156W        W47360  12.063  15.732   4.110 -0.0592  0.0355  0.2197
29157W        W47361  17.073   9.232   0.928 -0.0264  0.0118  0.0924
29158W        W47362  17.823  16.400  14.403  0.3212  0.2436 -0.2744
29159W        W47363   8.293  15.212  15.191  0.2298 -0.0820  0.0067
29160W        W47364  17.883   8.439   2.155  0.0417 -0.2111  0.2552
29161W        W47365   7.499   9.293  14.776 -0.1139  0.0062 -0.2000
29162W        W47366   5.942   2.905   4.286  0.2529 -0.0252  0.2018
29163W        W47367   7.843  12.554   2.426 -0.1557 -0.2768 -0.0445
29164W        W47368  17.140  10.459  12.956 -0.0109 -0.0868  0.0471
29165W        W47369   5.966  16.211  12.054 -0.1225  0.0001 -0.0214
29166W        W47370   2.818  16.929   4.282  0.1208 -0.0218  0.0939
29167W        W47371  15.179   0.297   3.284 -0.4663  0.0758 -0.1451
29168W        W47372  10.287   9.123   2.641  0.1161  0.3346 -0.0131
29169W        W47373  11.840   1.770  11.620 -0.0984 -0.2386 -0.3819
29170W        W47374  17.648  15.500   4.205  0.1648  0.2797 -0.4883
29171W        W47375   5.096   3.294   1.233 -0.2229 -0.2218  0.0412
29172W        W47376   1.977   2.457  13.474 -0.0675 -0.2243 -0.0419
29173W        W47377  16.784  13.128  13.452 -0.1681  0.0197  0.1160
29174W        W47378   5.438  11.734  13.145  0.1221  0.3420 -0.0388
29175W        W47379  16.061   8.868  12.364  0.0975 -0.1577 -0.0375
29176W        W47380   5.462   4.958   0.559  0.0624  0.1269  0.2752
29177W        W47381   3.089  10.204   2.507  0.0604  0.3553  0.0927
29178W        W47382   8.873  15.871   3.661  0.0291  0.0103  0.1303
29179W        W47383  16.770   5.700   0.826 -0.2744  0.0091 -0.2124
29180W        W47384   8.770  15.631  12.036 -0.0674 -0.0457  0.0014
29181W        W47385  16.706  11.676  15.374 -0.1153  0.2865  0.1164
29182W        W47386   8.489   9.027  12.919 -0.1014  0.2801  0.0231
29183W        W47387  10.617   2.393  11.208 -0.3279  0.0567  0.0820
29184W        W47388  14.346  12.139  11.363 -0.1012  0.1326 -0.1522
29185W        W47389   6.069  14.449  11.297 -0.0525  0.0087 -0.0800
29186W        W47390   3.019   6.565  13.999  0.0308  0.0260  0.1572
29187W        W47391   5.770  13.322  10.552 -0.0475  0.2735 -0.2099
29188W        W47392   7.820  11.387  10.921  0.1077 -0.0504  0.1642
29189W        W47393   5.444   2.281   4.879 -0.1246 -0.0610 -0.1082
29190W        W47394  15.705  14.591   1.756 -0.0133  0.0937  0.0502
29191W        W47395   1.889   5.105   2.876 -0.1179 -0.1671 -0.1214
29192W        W47396   7.066   4.447   2.238  0.3116 -0.0122 -0.1079
29193W        W47397  14.639   6.173   1.269 -0.2463  0.0930  0.4028
29194W        W47398   2.892   4.846  11.366 -0.1436 -0.1596 -0.1179
29195W        W47399   7.323   4.590  12.458 -0.0402 -0.0803 -0.0901
29196W        W47400   3.176  18.559  11.871  0.1750  0.1842 -0.1025
29197W        W47401  11.954  14.742  13.430  0.0641  0.0262  0.2719
29198W        W47402   6.952   4.573  15.434 -0.0625  0.1709  0.1770
29199W        W47403   4.864   3.767  11.516 -0.3167  0.0280  0.2825
29200W        W47404   9.278   5.309   3.182 -0.0493  0.0797  0.3823
29201W        W47405  12.891  15.755  14.086 -0.0662 -0.0078  0.1486
29202W        W47406   7.788  17.192   3.434 -0.0457 -0.0371 -0.1646
29203W        W47407   7.875   0.416   0.232  0.1426 -0.0009 -0.1074
29204W        W47408  10.923   2.792   4.532  0.2373  0.2010  0.1120
29205W        W47409   0.561  17.854  13.683  0.2247  0.3445 -0.0959
29206W        W47410   1.525  17.077  14.768 -0.2466  0.0944  0.0725
29207W        W47411   1.126   5.214  11.251 -0.2216 -0.1201 -0.1376
29208W        W47412   1.879   4.451   4.649  0.0681  0.4706 -0.0515
29209W        W47413   6.854   3.932  12.066 -0.2304 -0.0341 -0.1955
29210W        W47414  14.271   0.055   4.379  0.3549 -0.1926  0.0145
29211W        W47415  10.696  16.422   3.033  0.1378 -0.0246 -0.0364
29212W        W47416   5.995  15.881  13.349 -0.1867 -0.0445 -0.0685
29213W        W47417   8.039   6.925  15.178  0.1170  0.1927 -0.0220
29214W        W47418   2.127  11.802  15.446 -0.3035  0.3127  0.4477
29215W        W47419   6.176   6.716   0.545 -0.0891  0.1680 -0.2558
29216W        W47420  15.418   6.985   4.660 -0.0510  0.1640  0.2147
29217W        W47421   3.074  13.467   4.737 -0.0788  0.3312  0.0749
29218W        W47422   4.874  11.721  12.372  0.1357  0.2297 -0.0556
29219W        W47423   2.226   8.698   3.430 -0.3679  0.0584  0.1744
29220W        W47424   9.032   9.779  14.544 -0.0093  0.1696 -0.0012
29221W        W47425   6.305  13.919  10.542 -0.2792 -0.2487 -0.0527
29222W        W47426  17.999  12.752   1.357 -0.0497  0.1766  0.0288
29223W        W47427   3.058   6.145   0.771  0.1944  0.1911 -0.0867
29224W        W47428   8.267  12.263   0.304 -0.2581  0.0731 -0.2306
29225W        W47429  15.706  15.617  13.502 -0.2092 -0.0136  0.1603
29226W        W47430  16.644   7.627  13.358 -0.0457  0.0906 -0.2189
29227W        W47431  14.669  13.511  15.366 -0.0533 -0.1069  0.1414
29228W        W47432  14.510  12.321   1.957  0.1354  0.4215  0.1167
29229W        W47433  18.291   3.949   0.342  0.0831 -0.0461  0.3632
29230W        W47434  13.044   0.977   0.862  0.3726  0.1160 -0.2510
29231W        W47435   0.557   5.841   3.775  0.1244 -0.1616  0.1541
29232W        W47436   7.406   8.321   4.803 -0.2119 -0.1512  0.1496
29233W        W47437  17.840   7.544   2.527 -0.1078  0.0276  0.0616
29234W        W47438  18.646   5.513  13.531  0.1817 -0.0423  0.0646
29235W        W47439  15.813  16.210   2.747  0.1846  0.1165 -0.0714
29236W        W47440   9.723  17.409   2.669  0.2276  0.0541 -0.1556
29237W        W47441  17.013  12.503   3.704  0.2929 -0.2568  0.2468
29238W        W47442   3.637   5.670  11.291 -0.0171 -0.3889  0.1559
29239W        W47443   4.988   8.479   2.758 -0.0767  0.2669 -0.0497
29240W        W47444  16.031  14.109  10.595 -0.2213 -0.1750 -0.1066
29241W        W47445   9.193  14.925  15.151  0.2107 -0.0206 -0.0180
29242W        W47446   0.287   3.357  11.497 -0.0146 -0.1711  0.1174
29243W        W47447  16.047   0.011  10.507 -0.1967  0.0644  0.1704
29244W        W47448   7.992  10.669  11.492  0.0820  0.0909  0.0767
29245W        W47449  14.713  11.714  11.384  0.2918  0.0799  0.1798
29246W        W47450   8.297   9.486  12.865  0.2051  0.0677  0.1575
29247W        W47451   5.830  14.190  10.358 -0.0796 -0.2684 -0.0261
29248W        W47452  16.257   4.863  12.869 -0.0897  0.0692 -0.0929
29249W        W47453   9.417  12.049   4.268 -0.0432 -0.1966  0.1185
29250W        W47454  12.710   5.341  12.899 -0.0187  0.4027 -0.0693
29251W        W47455  15.775  11.949  13.258 -0.1318  0.2283  0.0286
29252W        W47456   2.927   0.048   2.409  0.1214  0.2465 -0.3698
29253W        W47457  14.184  10.623   3.255 -0.0934  0.1329  0.0457
29254W        W47458  18.161  16.875  11.306 -0.0831 -0.3135 -0.0502
29255W        W47459   6.164   1.838   4.863  0.0137  0.1289 -0.0076
29256W        W47460  13.877   0.492  11.835 -0.0095 -0.0306 -0.0040
29257W        W47461  14.553   2.756  14.904 -0.0179  0.0408  0.0066
29258W        W47462   7.240   9.235  11.435 -0.1687 -0.1859 -0.1728
29259W        W47463   3.110  14.613   1.064 -0.1875 -0.0838  0.1315
29260W        W47464   4.951  12.149   4.156  0.2811  0.1788  0.1063
29261W        W47465   0.613   2.370  13.328  0.4233  0.4257 -0.0790
29262W        W47466   6.539  15.250   2.543  0.2119  0.0075  0.0610
29263W        W47467  16.674  16.999  13.256 -0.0826 -0.2161  0.2054
29264W        W47468   2.726   0.190  11.019  0.0297 -0.0014  0.2866
29265W        W47469   6.545   4.164   4.226 -0.1850  0.0372 -0.0302
29266W        W47470   4.072  13.545  12.662 -0.0094 -0.0052 -0.3754
29267W        W47471   6.080   8.002   1.521  0.1490 -0.0547 -0.0392
29268W        W47472   9.260   0.311   0.541  0.2474 -0.0286  0.0166
29269W        W47473  10.605   0.908   3.662 -0.2289 -0.1612 -0.0586
29270W        W47474  16.586  14.834  12.344  0.2534  0.1114 -0.4656
29271W        W47475  12.238   8.176   3.561  0.1263  0.4923  0.5108
29272W        W47476   1.103   4.750  15.165 -0.0935 -0.1127 -0.0413
29273W        W47477  18.167  13.474  15.098 -0.1189 -0.1914 -0.1419
29274W        W47478  17.464   5.921  10.863 -0.0541 -0.0910  0.2077
29275W        W47479  15.292   9.422   1.675  0.0549  0.0254 -0.2918
29276W        W47480  11.328   3.510   3.533 -0.2029 -0.1220  0.2507
29277W        W47481  10.790   0.315   0.236 -0.3453 -0.2383  0.0614
29278W        W47482  11.662   0.578  12.967 -0.0892 -0.3847 -0.3553
29279W        W47483  18.062   4.883  11.258 -0.1354 -0.0277 -0.0342
29280W        W47484  17.620   5.613  12.976 -0.1741 -0.2276 -0.3955
29281W        W47485  15.110   3.560  14.633 -0.0147  0.1445  0.0848
29282W        W47486   1.586  12.674  14.788  0.3013  0.2174 -0.2529
29283W        W47487   0.395   6.303  13.286 -0.1535  0.0582  0.1391
29284W        W47488  12.668   9.609   3.052 -0.3090  0.2481  0.0884
29285W        W47489   8.130   2.824   1.234  0.3951 -0.0011  0.1600
29286W        W47490  11.578   8.979   3.321 -0.1529  0.3205 -0.0972
29287W        W47491  17.691  16.895  14.477 -0.0755 -0.0369 -0.1184
29288W        W47492  13.310  12.013  10.474  0.2136  0.0637  0.0312
29289W        W47493   6.928  15.123   0.355  0.0478  0.0624 -0.1545
29290W        W47494   6.961   3.579  11.648 -0.3700 -0.2369 -0.1392
29291W        W47495   6.442   1.563  13.260 -0.0558  0.2310 -0.0895
29292W        W47496   8.326   4.904   1.358 -0.0814 -0.0765  0.2519
29293W        W47497   1.326  10.839   2.516  0.1354  0.0712 -0.1673
29294W        W47498  10.267   6.199   3.690 -0.4876  0.0912  0.1274
29295W        W47499   5.832  18.291  12.435  0.0444  0.1362 -0.1453
29296W        W47500  14.227  12.072  15.172 -0.2667  0.1797 -0.0475
29297W        W47501   4.597  12.191  12.045 -0.2927 -0.1682  0.0256
29298W        W47502   0.772   7.952   1.004  0.0107  0.2159 -0.2066
29299W        W47503   3.626  16.215   2.625 -0.0262 -0.1259 -0.2473
29300W        W47504   6.669  11.236   1.250  0.1964  0.1018 -0.0512
29301W        W47505  14.639   7.070   0.632 -0.2356  0.3761  0.0737
29302W        W47506  16.818  16.323   4.014  0.4008 -0.0343 -0.1698
29303W        W47507   5.701  16.525  11.658  0.2090  0.2357 -0.0585
29304W        W47508   5.879  10.769   3.344 -0.3219  0.3293  0.0718
29305W        W47509   5.070   0.334  11.318  0.2802  0.1336 -0.0128
29306W        W47510   1.990   6.917  11.847 -0.1702  0.1552  0.0877
29307W        W47511   5.455  14.945  13.355  0.0274 -0.0374 -0.1479
29308W        W47512   9.184   0.780   2.928 -0.3826  0.2747  0.0817
29309W        W47513  15.071  10.013   5.274 -0.1871  0.1174  0.1353
29310W        W47514   3.506  16.675   9.845  0.3279 -0.0338 -0.1538
29311W        W47515   1.908  11.768  11.186 -0.0119  0.0747  0.0969
29312W        W47516   4.103   2.897  11.202 -0.0667 -0.1183 -0.1667
29313W        W47517   4.555  12.468   4.132 -0.0889 -0.4507  0.0542
29314W        W47518   2.011  12.931   1.810  0.1130  0.0979  0.1328
29315W        W47519   3.307   5.576   2.897 -0.2524  0.0298  0.1335
29316W        W47520  13.699   2.852   3.981 -0.2386  0.0056  0.0398
29317W        W47521  14.529   4.813   5.186 -0.0917  0.3247 -0.0565
29318W        W47522   5.004  11.992   1.113 -0.1000  0.0013  0.0948
29319W        W47523  10.894  12.342   0.165  0.0355  0.3479  0.1694
29320W        W47524   6.599   6.596  13.511  0.0730  0.0054  0.1687
29321W        W47525   6.206   1.788   2.409 -0.0104 -0.2178 -0.0822
29322W        W47526  14.635   0.287   3.063  0.0556 -0.1354 -0.0626
29323W        W47527   2.310   1.615  14.451  0.0654 -0.0052 -0.0799
29324W        W47528   1.249   9.267  13.615 -0.0133 -0.0883 -0.1737
29325W        W47529   9.161   7.868   2.690  0.1702 -0.2893 -0.1001
29326W        W47530   8.994   8.058  13.173 -0.1241 -0.2382 -0.0199
29327W        W47531  17.991  11.762  15.366 -0.0260  0.2922 -0.2803
29328W        W47532   2.452   1.210  14.238 -0.2379  0.2018 -0.0070
29329W        W47533   4.873  14.602   2.338 -0.0169  0.1129  0.3556
29330W        W47534  11.411   9.515  13.622 -0.0602 -0.0727  0.0169
29331W        W47535  13.271   4.167  15.278  0.0735  0.1142 -0.1476
29332W        W47536  11.947  14.899  10.589  0.0437  0.2819  0.1259
29333W        W47537  11.664  17.783  15.466  0.1692  0.0961 -0.1082
29334W        W47538   8.137  10.612   4.877  0.0269 -0.4490  0.1998
29335W        W47539  16.637   7.067  14.012  0.0617 -0.2464 -0.0906
29336W        W47540   4.268   9.845  13.238  0.0977  0.1042 -0.0723
29337W        W47541   9.044   1.368  15.384 -0.2434  0.0525  0.1759
29338W        W47542   6.970   4.793   1.833  0.1354 -0.2201  0.0500
29339W        W47543  12.977  13.880   4.356  0.1971 -0.2514  0.0119
29340W        W47544   2.090  17.752  13.017  0.1375  0.0611 -0.2348
29341W        W47545   4.812   8.451  11.159 -0.1885  0.3085  0.0540
29342W        W47546  11.218   0.326  12.200 -0.1074  0.0281  0.0421
29343W        W47547   7.379   1.096   1.177  0.0938 -0.2178  0.0930
29344W        W47548   9.716   8.154  12.889  0.0055  0.2521 -0.1994
29345W        W47549  15.198  12.011  14.691 -0.1020 -0.1561  0.0023
29346W        W47550   6.405  13.749  15.191 -0.0351  0.2311  0.0572
29347W        W47551   1.291  18.426  13.232 -0.0845  0.0623 -0.2711
29348W        W47552  16.292   5.898   4.868 -0.4515  0.0010 -0.0182
29349W        W47553  17.457   8.151   4.390 -0.1210  0.1760 -0.2102
29350W        W47554  10.845   2.222   0.181  0.1196 -0.3385 -0.2253
29351W        W47555   8.076   1.717   1.229 -0.0213  0.1995 -0.1750
29352W        W47556  13.742   2.385  12.539  0.0263 -0.0685  0.0080
29353W        W47557   2.590  12.622  13.124  0.1566 -0.0671 -0.2002
29354W        W47558  12.404  12.646   3.708 -0.2753  0.0990 -0.0517
29355W        W47559  14.610  10.665  11.417  0.0669  0.2200  0.2195
29356W        W47560   5.899   2.368   3.249  0.0851 -0.1994 -0.2854
29357W        W47561  16.443   4.237  10.457  0.0392 -0.2206  0.0767
29358W        W47562  15.059   5.360  12.152 -0.1565 -0.0041  0.3096
29359W        W47563   3.310   6.317  10.175  0.1378  0.0793  0.4478
29360W        W47564  17.376  15.227   3.851  0.2567  0.1323  0.2448
29361W        W47565  11.755   0.819   2.983 -0.0444 -0.1096 -0.0489
29362W        W47566  13.791  12.887   5.064  0.1361  0.0726  0.1407
29363W        W47567   5.845  13.613  13.576  0.1276  0.1234 -0.3341
29364W        W47568   5.109   5.033   1.929  0.0087  0.2717 -0.1343
29365W        W47569   5.094   6.754   3.114  0.1143  0.0195 -0.1389
29366W        W47570  16.770   7.468   5.576 -0.1406  0.0995 -0.1946
29367W        W47571  18.128  15.928   1.103  0.0664 -0.0878  0.0297
29368W        W47572  13.001  17.460  15.008  0.0382 -0.0804  0.0482
29369W        W47573  15.200  11.308  13.369  0.0004  0.1648 -0.4272
29370W        W47574   0.438  14.637  13.823  0.0991 -0.0853  0.1541
29371W        W47575  12.215  11.943  11.382  0.0301 -0.0176 -0.0617
29372W        W47576   8.094  16.014   1.369 -0.1827 -0.0973 -0.0176
29373W        W47577  15.072   3.670   2.500  0.3700 -0.0927 -0.1388
29374W        W47578  14.124  18.265   1.741 -0.0870  0.1623  0.0257
29375W        W47579  18.617  15.486   3.299  0.1608  0.1158 -0.0394
29376W        W47580   9.729   3.016  13.336  0.0202 -0.1412 -0.1048
29377W        W47581  16.817   9.992   0.407  0.1017 -0.0316 -0.1274
29378W        W47582  13.086  14.989   4.451 -0.1103 -0.0348  0.2693
29379W        W47583  17.957   6.784   1.791  0.0672 -0.3890 -0.1273
29380W        W47584   7.296  10.757   1.942 -0.1627 -0.2285 -0.2201
29381W        W47585   1.762  15.008  13.337  0.0668 -0.1548 -0.2443
29382W        W47586   5.738   3.736  15.230 -0.0530  0.0944 -0.2590
29383W        W47587  12.648  17.450   2.790  0.0383 -0.0994  0.0567
29384W        W47588   7.944   2.009   3.279 -0.0322 -0.0736  0.3650
29385W        W47589   0.789  12.322   4.089  0.0333 -0.0207  0.1155
29386W        W47590   4.883   0.108  13.413 -0.1441 -0.1791 -0.0364
29387W        W47591   1.462   8.098   2.084  0.2332 -0.0013  0.0609
29388W        W47592  11.953   7.009   0.081 -0.1541 -0.0371 -0.2165
29389W        W47593   9.341   5.232  12.894  0.1598 -0.0984  0.1219
29390W        W47594   2.493   8.127   2.317  0.0859  0.2840  0.2921
29391W        W47595   6.343   5.042  11.604  0.3567  0.1742 -0.2074
29392W        W47596   2.083  13.410  10.264  0.2485 -0.0963  0.0606
29393W        W47597   1.570  17.501  15.176 -0.2074  0.1582  0.0344
29394W        W47598   3.577   0.246   0.649  0.0705 -0.2832 -0.3214
29395W        W47599  13.864  17.450  15.393 -0.0919  0.0660  0.2609
29396W        W47600  10.767  15.827   0.762 -0.0631  0.1197 -0.3876
29397W        W47601   0.163   8.085  11.678  0.2661  0.3344  0.0927
29398W        W47602  18.605  17.662   3.724  0.0014  0.0173  0.3654
29399W        W47603  18.064  10.038  13.526 -0.0558  0.3270 -0.0234
29400W        W47604  15.074   4.735   5.340  0.1021  0.1843 -0.0227
29401W        W47605   7.478  13.782  13.400  0.0425  0.2107  0.1619
29402W        W47606  11.704  17.431  11.698  0.2265  0.2250  0.0675
29403W        W47607   5.999  16.915  10.991  0.2679  0.2002  0.0390
29404W        W47608  18.195  16.442   1.146  0.2747 -0.1198 -0.1682
29405W        W47609  10.179  13.256   3.490  0.0160  0.1564  0.2840
29406W        W47610   9.340   6.015  15.059  0.2753 -0.0174 -0.1828
29407W        W47611   0.901   0.338  11.523 -0.0476  0.1881 -0.0571
29408W        W47612  17.444   4.163  14.834 -0.0593 -0.0400 -0.0454
29409W        W47613   6.216  16.444  13.323  0.0209  0.1303 -0.1635
29410W        W47614  16.427  15.540  12.084 -0.4186  0.3316  0.2955
29411W        W47615   7.304   8.128   3.998 -0.0046  0.2878 -0.2704
29412W        W47616  10.762   1.240   2.709  0.0458 -0.4553 -0.0322
29413W        W47617  10.755  11.668  14.857 -0.2717 -0.1453 -0.1298
29414W        W47618  11.047  17.606  11.497 -0.1433 -0.0480  0.1358
29415W        W47619   4.577  17.969  11.603  0.0468  0.0785 -0.3148
29416W        W47620  10.898   6.873  15.343  0.1138  0.2571  0.3414
29417W        W47621   2.562  12.954   3.565 -0.4374 -0.1010 -0.2879
29418W        W47622  17.926  14.722   1.878  0.0275  0.4664  0.1913
29419W        W47623   7.152  12.442  13.340 -0.1252 -0.0107 -0.2003
29420W        W47624  14.551  12.417   3.873 -0.2577  0.0878  0.0236
29421W        W47625   7.598   5.488  13.486  0.4562  0.2355  0.0459
29422W        W47626  16.534   7.732  12.686 -0.2971 -0.1723 -0.1635
29423W        W47627   0.786   9.807   4.704  0.1146  0.3134 -0.0918
29424W        W47628  18.594   9.474   5.287 -0.0286  0.0288  0.0488
29425W        W47629   6.957  16.506  15.351  0.1072  0.1005 -0.0001
29426W        W47630   0.520   8.521   4.551 -0.1434 -0.1561 -0.1105
29427W        W47631  17.031   5.964  14.641 -0.0233  0.2725  0.0076
29428W        W47632   9.416  16.401   2.034 -0.3328 -0.0417 -0.0297
29429W        W47633  18.599  12.551  12.679 -0.1652 -0.2339 -0.0186
29430W        W47634   5.232   6.120  14.948 -0.0235  0.0241  0.2162
29431W        W47635   0.148  15.059  13.529 -0.0221  0.0169  0.0077
29432W        W47636   2.400  16.083   3.653  0.3680  0.0004 -0.1377
29433W        W47637   8.161   9.672   2.325  0.2171 -0.1577 -0.2114
29434W        W47638   4.978   7.485  11.700 -0.2312 -0.0885  0.2488
29435W        W47639   4.437   6.747   0.022 -0.1929 -0.2049  0.0998
29436W        W47640   6.289   2.822  10.794  0.2021 -0.3888  0.0686
29437W        W47641  13.527   7.645   3.033 -0.2473 -0.2293  0.0951
29438W        W47642   7.017  14.095  11.527  0.1105  0.3096 -0.5472
29439W        W47643  15.526   2.801  11.691  0.0292 -0.1231 -0.0540
29440W        W47644   7.467   3.847   0.038  0.0371 -0.1410 -0.3967
29441W        W47645  17.762  10.897  10.679  0.3678  0.3064 -0.3660
29442W        W47646  11.876   9.667   4.111 -0.0972 -0.1020 -0.1746
29443W        W47647  15.912   9.354  12.422  0.2700 -0.2080  0.1594
29444W        W47648   1.806   1.523   5.575 -0.1934  0.2034  0.1827
29445W        W47649   8.137   8.024  12.948  0.3455 -0.1914 -0.1790
29446W        W47650   0.155   7.840   0.341  0.1681 -0.0092  0.2879
29447W        W47651   7.470   3.336   2.727  0.1161  0.0936  0.3648
29448W        W47652  16.999  12.778   1.678 -0.1822  0.1136  0.0925
29449W        W47653   5.259  11.789  14.098  0.2118 -0.0302  0.0484
29450W        W47654   8.297  14.766  11.981 -0.0063 -0.0351 -0.1299
29451W        W47655   9.484  14.373   3.084 -0.0379 -0.1306 -0.1120
29452W        W47656   4.584  14.855  12.352  0.1488 -0.1458  0.3477
29453W        W47657  10.552   6.898  14.033 -0.2681 -0.0010  0.1840
29454W        W47658   1.831   4.488   1.092 -0.4307  0.1500 -0.0455
29455W        W47659  16.661   0.627   4.050 -0.0866  0.1851  0.1024
29456W        W47660   6.931   3.993   3.858 -0.0321  0.0457  0.1819
29457W        W47661   9.146   7.118   3.423 -0.2259  0.1082  0.2449
29458W        W47662   1.553   9.778   4.273 -0.0785 -0.1979 -0.0831
29459W        W47663   2.937   9.485  12.219  0.0937 -0.1937 -0.3536
29460W        W47664  17.113   3.180   0.152  0.1526  0.1259 -0.0972
29461W        W47665   3.204   8.608  13.323  0.1321  0.0789 -0.1642
29462W        W47666   8.545   1.738   2.022 -0.1622 -0.1434  0.0368
29463W        W47667   8.496  14.474  14.397 -0.3182  0.1430  0.0003
29464W        W47668   0.531   4.503  14.160  0.1937 -0.1525 -0.2889
29465W        W47669   4.948  11.955  11.513  0.1087 -0.0379  0.0793
29466W        W47670  12.289   8.461   1.234  0.0580 -0.0433 -0.0666
29467W        W47671   7.643  15.515   1.112  0.1441 -0.1501  0.3994
29468W        W47672   2.495   2.127  11.409 -0.2149  0.0154 -0.0160
29469W        W47673   9.726   2.365   0.896  0.0710  0.0518 -0.1427
29470W        W47674   7.250   9.220  15.433 -0.3340 -0.3596  0.0833
29471W        W47675   4.109  14.364  10.481 -0.0454 -0.1247  0.1145
29472W        W47676  18.677  12.754   4.410  0.0451 -0.1031 -0.2484
29473W        W47677  18.025   7.079   1.361 -0.1505  0.3271 -0.1295
29474W        W47678   0.998   5.871   5.716 -0.1275  0.0471  0.0350
29475W        W47679  16.393   5.227   4.078 -0.0692 -0.0349  0.0751
29476W        W47680   2.847   1.345   0.436 -0.0809  0.1826  0.1599
29477W        W47681  15.161  12.899  12.604 -0.1543  0.0844  0.1694
29478W        W47682   2.650   7.100  12.675  0.1266 -0.1346 -0.1259
29479W        W47683  17.014  17.399   3.873 -0.1237  0.2094  0.1155
29480W        W47684  13.939  13.212   1.532 -0.4586  0.1948 -0.0932
29481W        W47685   8.032   3.977   0.778 -0.2280  0.1762 -0.1535
29482W        W47686  17.006  15.375   4.188 -0.2673 -0.0606  0.2247
29483W        W47687   4.740   4.476   4.486  0.0645  0.0058 -0.0925
29484W        W47688   5.982   7.486   2.490  0.1535  0.2723 -0.0128
29485W        W47689  17.253  15.740   3.966  0.2002 -0.2190 -0.0727
29486W        W47690   5.415   9.421   0.878  0.3519  0.0036 -0.1667
29487W        W47691  12.594  15.737   4.296  0.0399  0.2419 -0.1334
29488W        W47692   5.078   9.927  12.865 -0.0063  0.1796 -0.0436
29489W        W47693  17.216   7.172  14.197 -0.2848 -0.0539  0.1160
29490W        W47694   3.976  17.647   3.419  0.0817  0.2039  0.0830
29491W        W47695   8.507  15.174  11.297 -0.0513  0.0128  0.5435
29492W        W47696  15.725   0.949  13.830 -0.1377 -0.3276  0.3196
29493W        W47697   6.225  18.121   4.855  0.1275  0.0447  0.0043
29494W        W47698  12.470  17.334   0.320 -0.3932 -0.1958 -0.0533
29495W        W47699   7.465   7.111   2.703 -0.0226  0.2012  0.0663
29496W        W47700  10.477  10.762   1.198 -0.1295  0.0043 -0.0220
29497W        W47701   4.779   4.943   1.176 -0.1223  0.1526 -0.0385
29498W        W47702   2.514  12.758   2.011 -0.1377  0.1396 -0.0881
29499W        W47703   6.594   4.475   1.650 -0.0877  0.1549  0.3149
29500W        W47704   6.959  15.141   3.798 -0.1825 -0.1639  0.0139
29501W        W47705   4.164  12.100  14.029 -0.3616  0.1184 -0.1677
29502W        W47706   4.509  14.058  14.451  0.3853 -0.4416 -0.3109
29503W        W47707  12.798   3.654  13.677  0.0427 -0.4489 -0.0973
29504W        W47708   2.618  15.722   0.796 -0.1173  0.2970 -0.0629
29505ION     NA47709  16.296   7.410  12.946  0.1707  0.0966  0.3216
29506ION     NA47710  14.562  18.121  10.191 -0.1053  0.1527  0.3985
29507ION     NA47711  17.728  13.229  12.889  0.2768  0.0378  0.2274
29508ION     NA47712  17.158  16.822   0.111 -0.0479  0.2236 -0.3379
29509ION     NA47713   3.156   0.882  10.008  0.0207  0.1540 -0.2049
29510ION     NA47714  12.587  13.845   5.190 -0.0207 -0.1141  0.0937
29511ION     NA47715   7.547  16.382  10.034 -0.1720 -0.3590  0.4696
29512ION     NA47716   8.296   4.749  13.743 -0.1096 -0.1052  0.0004
29513ION     NA47717  13.482  13.427   1.360 -0.0920  0.2031  0.1283
29514ION     NA47718   8.798   3.607   9.882 -0.0407  0.1682 -0.1964
29515ION     NA47719   6.546   8.723  10.335  0.0000  0.0942  0.1308
29516ION     NA47720   6.020  16.605   1.174 -0.0476 -0.0099  0.0261
29517ION     NA47721   2.170   4.163   5.444 -0.0515  0.1851 -0.2432
29518ION     NA47722   3.670   0.066  13.250 -0.0086  0.1482 -0.1865
29519ION     NA47723   3.198  18.604   9.991  0.0830  0.0146  0.0740
29520ION     NA47724  13.369   6.962  10.319  0.1968  0.0641 -0.1227
29521ION     NA47725  15.821   9.656   5.702  0.1206  0.2729  0.2576
29522ION     NA47726   3.846  17.493   9.780 -0.0144 -0.2242 -0.2118
29523ION     NA47727   8.004  11.167   5.473 -0.0129  0.0820 -0.1715
29524ION     NA47728   7.721  12.648   5.308 -0.2504  0.1281 -0.1483
29525ION     NA47729   1.448  12.091   5.482  0.3928 -0.1259 -0.1119
29526ION     NA47730  16.311   7.613  10.617  0.0780  0.0313 -0.1350
29527ION     NA47731  13.393  11.437  13.406 -0.1059  0.2577  0.0211
29528ION     NA47732   9.355  12.953   0.665 -0.1423  0.6094  0.0631
29529ION     NA47733  14.512   9.282  10.249  0.1741  0.0836 -0.1634
29530ION     NA47734   2.220   0.560   5.440 -0.4405 -0.0633  0.0412
29531ION     NA47735   7.099  15.487   1.141 -0.1379 -0.0312 -0.0214
29532ION     NA47736  16.458   0.985  14.360  0.1708 -0.1060 -0.0302
29533ION     NA47737  15.925   5.503  10.607 -0.1078  0.1998 -0.1669
29534ION     NA47738   5.899   9.827   5.013  0.2461  0.0018  0.0611
29535ION     NA47739  10.743   6.572  10.373 -0.1541  0.3478 -0.1003
29536ION     NA47740  13.719  13.550  13.221  0.0347  0.2879 -0.1928
29537ION     NA47741   8.819   8.337  10.347 -0.2779 -0.4220  0.1289
29538ION     NA47742   8.431  11.122  10.178  0.2893  0.4575  0.0437
29539ION     NA47743   8.294   8.940  10.234  0.0491 -0.3049  0.0017
29540ION     NA47744  18.058   0.983  10.612 -0.0177  0.2345 -0.2084
29541ION     NA47745  17.807  14.683  10.189 -0.1732 -0.2576 -0.2284
29542ION     NA47746  14.489  18.614  10.318  0.0047  0.0182  0.2340
29543ION     NA47747   3.501  18.347   5.086 -0.5194 -0.1455 -0.2955
29544ION     NA47748  17.551   8.967   9.756 -0.0328 -0.0805  0.0346
29545ION     NA47749   6.447   4.410  10.290  0.0073  0.1869  0.0790
29546ION     NA47750   5.081  14.260   9.820 -0.0630  0.0253  0.0810
29547ION     NA47751  16.729   1.380   5.479  0.2478  0.1877 -0.2113
29548ION     NA47752   1.370  14.996   0.930  0.0860  0.1485  0.0912
29549ION     NA47753   1.905   5.174   0.113  0.0351  0.0884 -0.0577
29550ION     NA47754  18.038  15.522  10.139 -0.4090 -0.1514  0.1177
29551ION     NA47755  10.975  15.729  12.273  0.0764  0.2709 -0.0095
29552ION     NA47756   6.046  17.110   5.004 -0.0467  0.3821  0.1819
29553ION     NA47757  15.087  10.352  13.170  0.0043  0.0102 -0.1869
29554ION     NA47758   2.974  17.452  10.019 -0.0136 -0.1455 -0.2352
29555ION     NA47759  16.390   0.177  11.691 -0.0109 -0.0778  0.0720
29556ION     NA47760   2.084  10.618   4.946  0.2494  0.0205 -0.0386
29557ION     NA47761   0.208   0.557   5.645 -0.2140 -0.3668 -0.0963
29558ION     NA47762   1.603   3.174   5.505 -0.0545 -0.1118 -0.1853
29559ION     NA47763   2.300  14.544   4.663  0.0909  0.1849  0.0900
29560ION     NA47764   1.051   4.993   5.531  0.0655  0.0718  0.1467
29561ION     NA47765  13.088  14.328  10.232  0.2407 -0.4118 -0.2354
29562ION     NA47766   0.088   7.036   0.578  0.0906 -0.1316  0.0755
29563ION     NA47767   8.521  18.183   5.002 -0.2551  0.3332  0.2400
29564ION     NA47768   2.988   2.297   5.362 -0.0494 -0.0427 -0.2197
29565ION     NA47769  17.493  16.740   2.050 -0.2585 -0.0236 -0.1509
29566ION     NA47770   2.326   0.411  10.133  0.1788  0.1992  0.3403
29567ION     NA47771  10.639  15.564   3.641  0.2007  0.1077 -0.1782
29568ION     NA47772  16.367  11.443   5.538  0.0846 -0.1315 -0.0665
29569ION     NA47773  13.631  15.244  10.173  0.1474 -0.2421  0.1697
29570ION     NA47774  16.190   9.507  10.640  0.0488  0.1244 -0.1979
29571ION     NA47775  16.813  14.669  10.262 -0.6137 -0.0081  0.2589
29572ION     NA47776   3.676   4.786   5.384 -0.0416 -0.1401 -0.1135
29573ION     NA47777  12.446  11.028   5.510  0.1833 -0.0085 -0.2098
29574ION     NA47778  12.758  13.401   4.282 -0.2958 -0.1305 -0.4885
29575ION     NA47779   8.487   2.208  13.549 -0.1231  0.1085 -0.1341
29576ION     NA47780  18.065   4.189  14.987  0.0591  0.3342  0.1913
29577ION     NA47781   2.186  13.804   9.885  0.1172 -0.0531  0.1991
29578ION     NA47782   9.725   0.252   5.314 -0.0652  0.0023  0.0131
29579ION     NA47783   4.563  15.705  14.059  0.0202 -0.0785  0.0340
29580ION     NA47784  15.601  15.688  10.292 -0.1217  0.3782 -0.1754
29581ION     NA47785   0.775  10.026  12.479  0.0584  0.2867 -0.1864
29582ION     NA47786  13.413   2.944   9.990  0.2403  0.3230 -0.1873
29583ION     NA47787  14.550   5.837   5.557 -0.4030  0.3061  0.1256
29584ION     NA47788   8.991   4.508   1.794  0.2073  0.0539 -0.1480
29585ION     NA47789   8.315  12.045  10.181  0.1239 -0.4234 -0.3215
29586ION     NA47790   6.249   3.472  10.071 -0.0922  0.0978 -0.0452
29587ION     NA47791   4.213   7.911   5.201  0.1100  0.2123  0.1950
29588ION     NA47792  17.810   5.958  10.399 -0.0850 -0.1237 -0.1313
29589ION     NA47793  11.609   5.554  11.620 -0.1812  0.0028  0.0511
29590ION     NA47794  12.166   3.369   9.870  0.0415  0.2794 -0.1274
29591ION     NA47795  17.642  15.931  14.696  0.0921  0.3944  0.2032
29592ION     NA47796  10.123   7.076  10.261  0.1050 -0.2662 -0.0927
29593ION     NA47797  17.188  13.185   5.076 -0.2926  0.2934  0.1415
29594ION     NA47798  14.854  10.002  10.918  0.0047  0.2898  0.0668
29595ION     NA47799   6.325   4.729   1.197  0.0902  0.1661  0.2211
29596ION     NA47800   7.655  14.766  10.376 -0.1474 -0.1386 -0.1711
29597ION     NA47801   2.804  12.281   5.417 -0.0305  0.0151  0.1412
29598ION     NA47802   1.027   1.842   5.050 -0.0951  0.0138  0.0815
29599ION     NA47803   8.457   3.037   4.381  0.0532  0.0700  0.0823
29600ION     NA47804   6.058  17.747   9.554 -0.3072 -0.1480 -0.1089
29601ION     NA47805   5.092  17.498   9.344  0.1215 -0.0114  0.3188
29602ION     NA47806   3.763  15.281   9.951  0.1343 -0.1407 -0.0081
29603ION     NA47807  18.178  13.950  10.396 -0.0705 -0.2990  0.3901
29604ION     NA47808  16.754  10.834  10.680 -0.0020  0.1941  0.0507
29605ION     NA47809   3.317  13.148   5.562 -0.2594  0.1275  0.1863
29606ION     NA47810   9.381   6.607   5.726 -0.3242  0.1260 -0.0802
29607ION     NA47811   9.779  15.822   5.418  0.1081 -0.0906  0.0742
29608ION     NA47812   6.284  10.496   5.378 -0.2733 -0.2204  0.2114
29609ION     NA47813  18.244   9.426   5.677 -0.1372 -0.0685 -0.0823
29610ION     NA47814   4.754  13.361   4.847 -0.0125 -0.0965 -0.2553
29611ION     NA47815   3.440   4.860   4.622  0.0600  0.0959  0.0665
29612ION     NA47816   4.547  18.383   5.147 -0.1730 -0.0553  0.0064
29613ION     NA47817  10.285   8.389  13.620 -0.1715  0.0233  0.1075
29614ION     NA47818  17.045  16.494  12.574  0.0092 -0.0827 -0.1275
29615ION     NA47819   5.215   5.315  15.267  0.0207 -0.3567 -0.0785
29616ION     NA47820   3.399  15.992   0.203  0.3108 -0.3540 -0.1287
29617ION     NA47821  15.228  11.278  10.419  0.0371 -0.0887 -0.1564
29618ION     NA47822   0.262   0.667  10.467 -0.0668 -0.0003  0.1368
29619ION     NA47823   3.858   4.808  13.568  0.0632  0.1143  0.0993
29620ION     NA47824   7.984   1.080  12.316  0.2280 -0.2253 -0.2094
29621ION     NA47825  12.049   1.163  13.025 -0.1836 -0.0885 -0.0504
29622ION     NA47826   4.411   1.867  13.143 -0.1088  0.0166 -0.2128
29623ION     NA47827   6.713   3.553  10.745  0.1041 -0.3713 -0.3208
29624ION     NA47828  11.817   9.731   5.687 -0.0771 -0.0623 -0.4035
29625ION     NA47829   4.034  18.438   9.729  0.2400 -0.1094 -0.2123
29626ION     NA47830   1.895  17.320   9.975  0.1446  0.1205  0.0702
29627ION     NA47831  17.654  12.712   4.099 -0.1093 -0.2401 -0.0517
29628ION     NA47832  16.044  16.041   5.390 -0.1077 -0.4104 -0.1746
29629ION     NA47833  11.848   9.345   3.101  0.4297 -0.2792  0.1490
29630ION     NA47834   9.543   3.448  10.180  0.2070 -0.0935  0.4435
29631ION     NA47835   5.597  15.036   3.664  0.0353  0.1201 -0.2382
29632ION     NA47836   9.315  17.408  10.352  0.0368 -0.1338 -0.0663
29633ION     NA47837  13.232   6.479  10.373 -0.1791 -0.1089 -0.1833
29634ION     NA47838   2.730   0.817  13.893  0.0369 -0.0009  0.1203
29635ION     NA47839   9.810  14.341  10.223  0.0600  0.2520 -0.2088
29636ION     NA47840  16.605   5.330   3.615 -0.3147  0.1190  0.0384
29637ION     NA47841  12.723  14.994   4.903  0.1564 -0.2224 -0.3017
29638ION     NA47842  11.044  15.427   4.948 -0.0760 -0.2760 -0.0539
29639ION     NA47843  13.869  16.444   5.150  0.1486  0.3062  0.3354
29640ION     NA47844  10.785   7.432   5.750 -0.2736  0.0625  0.2001
29641ION     NA47845   6.574   6.152  10.248 -0.2394  0.2858 -0.3051
29642ION     NA47846   8.716   4.052  10.312 -0.3255 -0.2235  0.2088
29643ION     NA47847  13.704  10.540   6.016  0.3183 -0.1734 -0.1728
29644ION     NA47848   7.747  14.697   5.195 -0.1925  0.1143 -0.1033
29645ION     NA47849  16.669  14.835   5.545  0.1145 -0.0077 -0.1357
29646ION     NA47850  10.028   2.103  10.083 -0.0437 -0.1917  0.1450
29647ION     NA47851   7.875   8.101  10.460  0.4981 -0.0866  0.0351
29648ION     NA47852   0.711   2.737   5.593  0.1107  0.2120 -0.5403
29649ION     NA47853  17.089  14.027   5.524  0.1360 -0.0255  0.1255
29650ION     NA47854  14.338   2.933  10.321 -0.2298  0.5008  0.1588
29651ION     NA47855  14.853   9.349   6.062  0.0201 -0.1436  0.2454
29652ION     NA47856   5.107   4.025   3.392  0.0464  0.0452  0.1643
29653ION     NA47857   9.050   6.073   3.607 -0.1036  0.0483  0.1550
29654ION     NA47858   6.807  18.525   9.735  0.3200 -0.0259  0.0891
29655ION     NA47859  13.328   1.933   4.992 -0.0727 -0.0606  0.0332
29656ION     NA47860  15.363   6.127   5.765 -0.4199 -0.1623 -0.0846
29657ION     NA47861  16.965   7.936   3.732 -0.1880 -0.3753  0.2719
29658ION     NA47862  13.778  11.826  10.428  0.1958  0.0464  0.0868
29659ION     NA47863  10.330   1.504   5.090  0.1071 -0.0174 -0.0588
29660ION     NA47864  16.599  13.084  10.326 -0.0303  0.5604 -0.0589
29661ION     NA47865   9.146  18.000  10.043 -0.0475  0.2041 -0.0357
29662ION     NA47866  14.603   1.731  10.824  0.0514  0.0134  0.5783
29663ION     NA47867   5.251   4.363   9.889 -0.1010  0.0358 -0.2185
29664ION     NA47868   7.188  16.760   4.743  0.1687 -0.0795 -0.0455
29665ION     NA47869   7.777  11.896   3.386 -0.3027  0.3948  0.0689
29666ION     NA47870   2.551   8.924   4.839  0.2521 -0.0482 -0.1678
29667ION     NA47871   9.502   6.723   3.580 -0.1062 -0.1691 -0.0418
29668ION     NA47872   7.232   9.491  14.363  0.0859  0.0065  0.3891
29669ION     NA47873  14.071   7.367   5.584 -0.1816 -0.0569 -0.0434
29670ION     NA47874   0.351   2.163   5.647  0.1780 -0.0226 -0.1984
29671ION     NA47875   1.978   1.398  10.343  0.2663 -0.1913  0.1647
29672ION     NA47876  16.717  14.019  10.282 -0.0549  0.2281 -0.0468
29673ION     NA47877  12.390  16.273   5.035 -0.0466  0.0412 -0.0193
29674ION     NA47878   1.011  12.240  13.109 -0.4588  0.2668 -0.2390
29675ION     NA47879   7.159   7.484  10.512  0.0079  0.0736 -0.0315
29676ION     NA47880  11.974  17.024   5.418 -0.2618  0.0130 -0.0543
29677ION     NA47881   5.219  16.805   5.157  0.0063  0.4726  0.0621
29678ION     NA47882   6.233   5.218  10.219 -0.5325 -0.2267  0.1807
29679ION     NA47883   4.459   4.989   9.974 -0.0762 -0.0914  0.0681
29680ION     NA47884  10.804   2.475  10.222  0.0727 -0.0221 -0.1952
29681ION     NA47885  16.259   0.458   5.332  0.0351  0.0170  0.3712
29682ION     NA47886   9.444  15.356   2.895 -0.1287  0.1509  0.0333
29683ION     NA47887   5.653   2.211   9.893 -0.1175  0.0688  0.3512
29684ION     NA47888  10.014   7.542   5.747  0.4440  0.0172 -0.1878
29685ION     NA47889   9.777  17.322   9.936  0.3229  0.0259  0.1114
29686ION     NA47890  13.050  11.802   5.571  0.1546 -0.0493  0.1952
29687ION     NA47891   4.446   9.839  13.721 -0.0626  0.1420 -0.0333
29688ION     NA47892  17.639   7.540  13.123 -0.0493  0.1709  0.0890
29689ION     NA47893   1.819  10.348  11.280  0.0505  0.1076 -0.1657
29690ION     NA47894  10.203   9.856   3.569  0.2730 -0.0571 -0.0919
29691ION     NA47895  11.879   8.139   5.722 -0.2973 -0.0706  0.4124
29692ION     NA47896  15.394   2.218  12.831  0.4216 -0.2147  0.4924
29693ION     NA47897  12.178   8.158  13.096  0.1313 -0.2878  0.0524
29694ION     NA47898   7.321  18.034  10.822  0.3679  0.0102 -0.0186
29695ION     NA47899  16.294   1.928  10.569 -0.0810 -0.0103  0.5345
29696ION     NA47900   4.878   0.146   9.832 -0.1954 -0.3370 -0.1538
29697ION     NA47901  16.172  13.015   5.135 -0.1435  0.2580  0.2645
29698ION     NA47902  15.544  18.469   5.015  0.1696 -0.2435 -0.3273
29699ION     NA47903   1.846   9.143  12.217  0.1680 -0.2107 -0.3421
29700ION     NA47904  12.925  11.316  10.375  0.0446 -0.2826  0.1106
29701ION     NA47905   5.594   8.858  10.096 -0.1465 -0.0951  0.0433
29702ION     NA47906   2.828  10.805   0.379  0.2124 -0.0893  0.3965
29703ION     NA47907  10.209   2.830  10.182 -0.1472 -0.2490  0.2638
29704ION     NA47908  17.400   0.035  10.514  0.0630  0.1320  0.3256
29705ION     NA47909   3.609   8.091  11.964 -0.0500 -0.2417  0.0930
29706ION     NA47910  14.733   7.384  10.138 -0.3338 -0.2127 -0.0533
29707ION     NA47911   3.572   3.196  10.018  0.1115 -0.0096  0.0711
29708ION     NA47912   1.813  15.337   5.224 -0.0487  0.0335 -0.1122
29709ION     NA47913   1.183   6.669   5.824  0.0175 -0.2468  0.0029
29710ION     NA47914   5.103   5.801   2.367 -0.0159 -0.2529  0.0569
29711ION     NA47915  14.498  10.641  10.421 -0.0324 -0.0487  0.0824
29712ION     NA47916   6.135  18.308  13.678  0.2069  0.1620 -0.2204
29713ION     NA47917  15.900  14.557   5.473 -0.2297 -0.1456 -0.0509
29714ION     NA47918  17.198   4.557   4.553  0.0092  0.2538  0.0190
29715ION     NA47919   6.408   9.181  11.179 -0.0574  0.1087  0.0922
29716ION     NA47920   3.902   2.228   5.274 -0.1278 -0.0475  0.0864
29717ION     NA47921  18.070  18.060  10.482 -0.0912  0.2313  0.1618
29718ION     NA47922   5.039  18.192  11.593 -0.1300  0.0865 -0.3207
29719ION     NA47923   1.644   5.831   5.663  0.1597  0.2026  0.0609
29720ION     NA47924  17.072  16.150   5.277 -0.0325 -0.3200 -0.1797
29721ION     NA47925  14.431  10.825  12.610 -0.1625  0.0502  0.0801
29722ION     NA47926  10.293   5.536  12.105 -0.0811  0.1841  0.1848
29723ION     NA47927   9.052   7.519   5.512 -0.0807  0.0121  0.1504
29724ION     NA47928  13.530  14.258  15.151 -0.2536 -0.3139 -0.0930
29725ION     NA47929   7.717  18.664   4.935 -0.0084 -0.1505  0.0264
29726ION     NA47930   8.922   4.883   3.466 -0.0628 -0.1367 -0.1446
29727ION     NA47931   1.339  14.503   4.793 -0.0736  0.0328 -0.0718
29728ION     NA47932  10.161   4.932  10.162  0.1306  0.3181  0.3750
29729ION     NA47933   7.851  14.168   5.225  0.0712 -0.1329  0.1032
29730ION     NA47934   8.495  13.137  10.111  0.1627 -0.0057 -0.0617
29731ION     NA47935  16.494   6.825   5.706 -0.3566 -0.0552  0.0944
29732ION     NA47936   3.723  16.603   5.255 -0.0529  0.1593  0.0518
29733ION     NA47937  13.671   7.967  14.632 -0.0480 -0.2771  0.1542
29734ION     NA47938   1.710  10.016   9.785  0.0115 -0.2042 -0.0556
29735ION     NA47939   4.350  13.010   9.947  0.0998 -0.2591 -0.1142
29736ION     NA47940   0.332  16.492  10.341 -0.1731  0.1021  0.2684
29737ION     NA47941  11.016  18.282   5.520  0.1538  0.0274  0.3309
29738ION     NA47942  11.660  11.443   5.491  0.1140  0.2380 -0.0870
29739ION     NA47943   5.180  11.788   5.064 -0.3817  0.1284 -0.3722
29740ION     NA47944  12.011  10.472   4.272 -0.0825 -0.1993 -0.1133
29741ION     NA47945   8.139  15.342   5.319  0.2264  0.0590 -0.0480
29742ION     NA47946  14.329   9.234  10.776  0.2951  0.0673  0.2769
29743ION     NA47947  11.525   2.006  14.251  0.0591 -0.0892  0.1224
29744ION     NA47948   0.752   1.508   2.402 -0.1432 -0.1511  0.3250
29745ION     NA47949  12.165   7.355   5.675 -0.1396 -0.0558 -0.0139
29746ION     NA47950  11.922   6.876   3.541  0.0980  0.3607 -0.0691
29747ION     NA47951   1.517  13.603   5.270  0.0026 -0.1566 -0.1222
29748ION     NA47952   4.123  15.132   2.929 -0.1414 -0.2844 -0.0123
29749ION     NA47953  11.744   0.051  10.180  0.2742 -0.0278  0.0477
29750ION     NA47954   1.565   6.096   3.689 -0.0974  0.0710  0.0844
29751ION     NA47955  11.456  10.726  10.215 -0.3308 -0.0522  0.1764
29752ION     NA47956  17.184  12.003   5.346 -0.1999  0.3092  0.1086
29753ION     NA47957  15.909  16.355  10.205  0.2626 -0.0031 -0.0156
29754ION     NA47958  13.103   9.648   2.265  0.1553  0.3806 -0.1151
29755ION     NA47959   9.717  18.258  10.058  0.2027  0.3287  0.0147
29756ION     NA47960  12.548  12.288  10.113  0.0057 -0.0027  0.1602
29757ION     NA47961  12.331  17.910   5.440  0.3047 -0.3135  0.2556
29758ION     NA47962   3.758   7.076  10.163 -0.0037  0.1830 -0.3633
29759ION     NA47963  10.785  12.134  15.055 -0.0139 -0.4566 -0.2793
29760ION     NA47964  12.448  11.786   4.031 -0.3045 -0.4679  0.2086
29761ION     NA47965  11.674  14.253   5.154  0.4051  0.3065 -0.2482
29762ION     NA47966   5.170  17.540   5.047  0.1555  0.0464  0.5217
29763ION     NA47967  16.350  16.236   1.428  0.1340  0.0334 -0.3916
29764ION     NA47968  13.064  12.050  10.912  0.0648  0.1630 -0.2459
29765ION     NA47969  11.291   6.779  10.944 -0.0712  0.0202 -0.3381
29766ION     NA47970  18.066   7.330   5.718 -0.2370  0.1075  0.1659
29767ION     NA47971  14.842  16.896   5.436 -0.0855 -0.1461 -0.0670
29768ION     NA47972   1.078   7.891  10.524 -0.1067 -0.1437 -0.1185
29769ION     NA47973  16.357  16.929  10.912 -0.2445 -0.1244 -0.3312
29770ION     NA47974  17.226   6.733  10.447  0.0668  0.0957 -0.1229
29771ION     NA47975   1.042  11.895  10.177  0.0780  0.2013 -0.0348
29772ION     NA47976   9.554   3.916  11.461 -0.1764 -0.1150 -0.1549
29773ION     NA47977   3.539   6.159   5.377 -0.0229 -0.0602 -0.0132
29774ION     NA47978   5.590   6.344   9.936  0.0445 -0.1944 -0.1083
29775ION     NA47979   5.458  15.865   5.017  0.2133  0.0477 -0.0864
29776ION     NA47980   3.429   8.794   5.014  0.0312  0.1873 -0.2199
29777ION     NA47981  17.006   8.422   5.745 -0.2375  0.0848  0.1743
29778ION     NA47982  10.629   4.458  14.231 -0.3479  0.1642  0.2763
29779ION     NA47983   6.218   3.670   4.822 -0.0563 -0.0499  0.0284
29780ION     NA47984  18.471   4.108  10.346 -0.2288  0.0668 -0.1086
29781ION     NA47985   5.353   5.319  10.011 -0.0696  0.0163 -0.0064
29782ION     NA47986   0.412  11.641   5.586 -0.1321 -0.0268  0.0950
29783ION     NA47987  14.009  10.097  10.276 -0.1725 -0.0191 -0.0320
29784ION     NA47988   3.284  17.364   4.938  0.1024 -0.2124 -0.4090
29785ION     NA47989  16.931  12.037   0.705 -0.3050  0.0759  0.1696
29786ION     NA47990  15.565   7.341  10.293  0.0774  0.0561  0.1662
29787ION     NA47991   3.293   4.370   3.707  0.0768 -0.2292  0.0049
29788ION     NA47992  13.140   4.851  10.100 -0.7241 -0.1927  0.2963
29789ION     NA47993  15.707  15.438   5.457 -0.1688  0.2012 -0.1432
29790ION     NA47994  14.803   7.529   5.674  0.2467  0.1515 -0.2814
29791ION     NA47995  16.154  14.933  10.340 -0.0107 -0.1487  0.1700
29792ION     NA47996   1.275  10.433   5.204 -0.0753 -0.0846 -0.2979
29793ION     NA47997  12.933  17.528   2.356  0.1588 -0.0994  0.0675
29794ION     NA47998  10.397   6.159   5.632 -0.2767 -0.2180 -0.2141
29795ION     NA47999  16.423   2.880  11.163  0.0395 -0.2414 -0.0648
29796ION     NA48000   8.995   4.043   5.223  0.1351 -0.1815  0.0193
29797ION     NA48001   7.044  13.924   4.156 -0.1946 -0.1272 -0.0772
29798ION     NA48002   0.868   0.657  10.542  0.2880 -0.2551 -0.0242
29799ION     NA48003  11.811   2.002   5.182 -0.0641  0.1311  0.2877
29800ION     NA48004   1.073  18.042   5.299  0.0609 -0.1863 -0.0244
29801ION     NA48005  10.412  13.882   0.239 -0.0085  0.1262  0.0361
29802ION     NA48006  13.635   3.902   4.673 -0.1486  0.0813 -0.0699
29803ION     NA48007   8.738  15.732  10.313 -0.3089 -0.1020 -0.0106
29804ION     NA48008  16.238   4.528   5.619 -0.1797  0.0543  0.0727
29805ION     NA48009  11.732  13.770  10.286 -0.1607  0.3388 -0.0016
29806ION     NA48010   8.321  12.767  12.249  0.0058  0.3376  0.2301
29807ION     NA48011  16.161  17.465   3.030 -0.3363 -0.0807 -0.1536
29808ION     NA48012  11.837   0.889   5.359 -0.0673 -0.0515  0.0001
29809ION     NA48013   3.814  12.834  10.254 -0.2562 -0.0785 -0.2569
29810ION     NA48014  15.039  14.045   1.846 -0.0516  0.1127  0.0518
29811ION     NA48015  10.870   1.031  10.355  0.1039 -0.0982 -0.3093
29812ION     NA48016   0.117  14.206   4.932 -0.3314 -0.1548  0.0195
29813ION     NA48017   4.549   8.178  10.179  0.1072 -0.0130  0.1398
29814ION     NA48018  18.462   1.021   4.875  0.0189 -0.0408  0.2946
29815ION     NA48019  10.112  11.749  10.223  0.1211 -0.1002  0.0885
29816ION     NA48020   7.548  12.364   9.883 -0.2936 -0.0503  0.1126
29817ION     NA48021   3.356   1.296   2.322 -0.0450  0.3936  0.1265
29818ION     NA48022   3.935  10.009  10.244  0.1538  0.0156 -0.3428
29819ION     NA48023   0.274   6.787  10.416  0.1154 -0.1793 -0.0850
29820ION     NA48024  16.193  14.188   5.410  0.4522 -0.0771 -0.1177
29821ION     NA48025   7.609   9.197   5.596  0.4962 -0.1395  0.1479
29822ION     NA48026   1.078   9.556   0.956  0.1563  0.0353  0.5533
29823ION     NA48027   2.130   4.419  10.723 -0.2922  0.0695 -0.2066
29824ION     NA48028  16.303  14.642  13.519 -0.1493 -0.3226  0.0450
29825ION     NA48029  13.038  15.908  10.178  0.1247 -0.1702 -0.4579
29826ION     NA48030  12.666   2.616   9.923  0.1010 -0.0336  0.0672
29827ION     NA48031   8.602   3.012   9.993 -0.0832  0.0577 -0.0421
29828ION     NA48032  15.029   7.762  13.114 -0.1962  0.1572  0.0817
29829ION     NA48033   6.443   0.745  10.001  0.0997  0.1398 -0.0065
29830ION     NA48034  17.562   5.319   2.183  0.1792 -0.1061  0.0521
29831ION     NA48035  17.998  11.067  10.256  0.2225  0.3321 -0.0985
29832ION     NA48036   5.791  14.837  11.006  0.1001  0.1317 -0.0684
29833ION     NA48037   7.870   3.836  10.092 -0.1650  0.2155  0.0126
29834ION     NA48038   4.509  13.276   0.479 -0.0288 -0.1786  0.1224
29835ION     NA48039   6.059   3.474   5.251 -0.0931  0.0559  0.3809
29836ION     NA48040   3.277  10.860   9.981 -0.2429  0.1307 -0.1469
29837ION     NA48041   5.212   5.317   5.415  0.2022  0.0290 -0.2076
29838ION     NA48042  14.603   8.536  13.166  0.0977 -0.1062  0.2191
29839ION     NA48043   4.099  11.925  10.151  0.3251 -0.0674 -0.0625
29840ION     NA48044   6.121  16.756  14.121  0.1090 -0.1763  0.0137
29841ION     NA48045  10.805   9.949   5.487  0.3194  0.0856 -0.0284
29842ION     NA48046   8.065   0.342   9.843  0.0789 -0.2096  0.5215
29843ION     NA48047  15.118   0.300   1.348 -0.1568  0.2601 -0.0030
29844ION     NA48048  16.555  15.771   9.954  0.1387  0.0578  0.2707
29845ION     NA48049   3.892   2.411  10.022 -0.0040  0.1180 -0.1206
29846ION     NA48050   6.724  14.560  10.190 -0.2275  0.2647  0.1274
29847ION     NA48051   6.112   6.521   5.252  0.2658  0.1182 -0.2154
29848ION     NA48052   9.049   8.569   5.357 -0.2533 -0.1397  0.1459
29849ION     NA48053   5.529  10.648  13.101 -0.2700 -0.2433 -0.1185
29850ION     NA48054   6.951  17.262   9.745 -0.1539  0.2664  0.0664
29851ION     NA48055  13.073   3.873   2.993 -0.1586 -0.2156  0.2378
29852ION     NA48056  11.201  13.352  10.075 -0.0742 -0.0425 -0.0791
29853ION     NA48057   1.414   4.982   2.731 -0.1335  0.0449  0.1940
29854ION     NA48058  13.386   1.080   2.316  0.0749  0.2609 -0.0212
29855ION     NA48059  15.326   1.560   2.661 -0.1471 -0.0697  0.2278
29856ION     NA48060  12.590   0.546   9.909 -0.0521  0.4453  0.0852
29857ION     NA48061   7.512   2.965   9.968 -0.2446 -0.0838 -0.2789
29858ION     NA48062  14.529   3.963   5.101  0.0451 -0.0984  0.1394
29859ION     NA48063  17.707  17.020   5.527  0.1802  0.0917  0.0471
29860ION     NA48064   4.530  10.927  10.208  0.3421  0.2083 -0.1545
29861ION     NA48065  13.778  17.196   9.919  0.3990  0.1457  0.0596
29862ION     NA48066  13.631  18.140  10.050 -0.4552  0.2212 -0.2764
29863ION     NA48067  18.162  17.255  11.008 -0.1450  0.0485 -0.0407
29864ION     NA48068   0.247   6.915   5.762 -0.3070 -0.2247  0.0940
29865ION     NA48069  14.252   4.781  10.148 -0.1684  0.0840 -0.1636
29866ION     NA48070   0.132  10.159  10.186  0.0806 -0.0341 -0.0107
29867ION     NA48071  13.336   4.757   4.490  0.0148 -0.0010 -0.0631
29868ION     NA48072   7.747  13.237   9.855 -0.0441 -0.0674  0.2005
29869ION     NA48073   2.549   3.230   5.314 -0.1252 -0.2568  0.0343
29870ION     NA48074  18.240   3.489   5.654  0.0087  0.1667  0.2453
29871ION     NA48075   8.878  15.698   5.283 -0.1243  0.2322  0.1110
29872ION     NA48076  14.985  17.791   5.285  0.1631  0.2302  0.1205
29873ION     NA48077   5.899  13.771   4.258  0.1170 -0.0520 -0.1419
29874ION     NA48078   8.501  16.065   3.377 -0.0184  0.2783 -0.1227
29875ION     NA48079  11.771   3.150   5.050  0.3605  0.0867 -0.3699
29876ION     NA48080  15.343   8.987  10.238  0.1622 -0.0153 -0.2208
29877ION     NA48081   9.368   3.014   5.077 -0.0972 -0.1068  0.4663
29878ION     NA48082   8.854   7.771  10.459 -0.1974  0.4410 -0.1105
29879ION     NA48083   6.609  11.386   5.219  0.0992  0.1735  0.0615
29880ION     NA48084   0.982  17.711  10.068 -0.0107 -0.0883  0.1315
29881ION     NA48085  11.156   1.784  10.712 -0.0360 -0.0863 -0.0475
29882ION     NA48086  12.738   1.680  10.915  0.2068  0.0539  0.0443
29883ION     NA48087   7.973   7.180  10.367  0.0610  0.1800 -0.1619
29884ION     NA48088  16.801   2.760   5.085  0.1993 -0.0765  0.1437
29885ION     NA48089   0.837   5.509  13.486 -0.0703  0.1095  0.3056
29886ION     NA48090   8.950   4.712  11.054 -0.1894 -0.0285  0.2434
29887ION     NA48091   9.481  16.141  10.319  0.1768  0.0358 -0.2076
29888ION     NA48092  12.216  17.805  10.150  0.3204  0.0048  0.1821
29889ION     NA48093  17.434   0.568  10.408  0.2480 -0.0909  0.1480
29890ION     NA48094   8.425   6.474  10.786 -0.1980  0.0611 -0.2275
29891ION     NA48095  15.077   5.300  15.219 -0.2173 -0.0062  0.0792
29892ION     NA48096  11.293   2.141  11.445  0.0167  0.0969 -0.1498
29893ION     NA48097  14.955  17.705   2.153  0.3088 -0.1371 -0.2741
29894ION     NA48098  14.988  11.067   5.540 -0.1816  0.1357 -0.0065
29895ION     NA48099  17.726   9.007   5.743  0.3334  0.0175  0.2205
29896ION     NA48100   1.514   0.720   9.998 -0.2496 -0.2364  0.0972
29897ION     NA48101  11.186   5.670   3.391  0.2016  0.2923  0.1719
29898ION     NA48102  18.336  11.071  11.227 -0.1277 -0.1849 -0.0523
29899ION     NA48103  13.843  11.276  10.208 -0.0278 -0.0003 -0.2001
29900ION     NA48104   5.202  13.577   9.833  0.0864  0.1719 -0.0078
29901ION     NA48105  15.339   2.161  10.695 -0.0037 -0.2829  0.0074
29902ION     NA48106  13.639   0.294   9.954  0.2022 -0.3887  0.0217
29903ION     NA48107   1.248   8.837   5.267 -0.0268  0.2758  0.2066
29904ION     NA48108  17.393  10.861   3.882  0.0001 -0.1442 -0.0917
29905ION     NA48109   3.061  10.297   5.184 -0.1821  0.0222  0.1109
29906ION     NA48110   4.522  14.187  10.082 -0.0720  0.3881 -0.2142
29907ION     NA48111   4.256   0.993   5.177  0.4470  0.0601  0.1562
29908ION     NA48112   4.681   5.433  10.785 -0.1608 -0.1852  0.1583
29909ION     NA48113   6.888   7.620   2.013 -0.0907 -0.2155 -0.0329
29910ION     NA48114   4.842   3.613   9.970  0.1034  0.0040  0.1349
29911ION     NA48115  12.257   5.036  10.250 -0.1029 -0.2329  0.0012
29912ION     NA48116  15.058  16.455  10.171 -0.0427  0.3189  0.0969
29913ION     NA48117  16.436   2.162   2.404  0.1320 -0.2451  0.0518
29914ION     NA48118   1.669  14.630  11.005  0.1679  0.1267 -0.0397
29915ION     NA48119  11.616  16.487   9.771  0.1249 -0.1784  0.3154
29916ION     NA48120   2.570  14.532   9.929  0.0431 -0.2511 -0.1105
29917ION     NA48121   5.753   7.426   4.999 -0.1187  0.2299 -0.2739
29918ION     NA48122  16.038   3.019   5.465 -0.2219  0.0462 -0.1228
29919ION     NA48123   3.253   9.433   5.048  0.1789  0.1926  0.1236
29920ION     NA48124   6.768  13.339  10.123 -0.4529 -0.1557 -0.2581
29921ION     NA48125  14.881   8.660   3.177 -0.2084 -0.2444  0.3522
29922ION     NA48126   5.422   3.084  10.115 -0.3796 -0.1051 -0.1302
29923ION     NA48127   2.991   1.722  10.264 -0.0805  0.1474 -0.1052
29924ION     NA48128  12.456   8.737  10.496  0.4764 -0.1689  0.0270
29925ION     NA48129   7.553   1.609   5.153 -0.0670  0.2547 -0.2077
29926ION     NA48130   2.560   9.246  12.816  0.0084  0.3087  0.0889
29927ION     NA48131   0.731  11.288  10.663 -0.0542  0.0197 -0.0056
29928ION     NA48132  16.804   5.197  10.801  0.0279 -0.1467  0.0157
29929ION     NA48133  13.418   6.501   4.755 -0.2191 -0.1359  0.0403
29930ION     NA48134   0.632  15.029   5.126 -0.1437  0.0432  0.3663
29931ION     NA48135   6.443  16.372  15.287 -0.0524 -0.2061 -0.0833
29932ION     NA48136   3.733   5.988  10.115  0.2681  0.1549  0.2892
29933ION     NA48137  13.294   1.085   9.890  0.0753  0.0223 -0.0143
29934ION     NA48138   1.859   8.312  10.472  0.0927 -0.4433 -0.1933
29935ION     NA48139  10.752  11.849  12.435  0.5222 -0.1013  0.0543
29936ION     NA48140   7.519   7.050   5.497 -0.3009  0.0389  0.1709
29937ION     NA48141  13.348  14.348  13.835 -0.3316  0.1028  0.1282
29938ION     NA48142  18.053   6.219  11.880  0.2975 -0.2943  0.0344
29939ION     NA48143   6.351  15.679  13.799 -0.2036  0.0561  0.0380
29940ION     NA48144   4.170  17.690  11.849  0.0007  0.0643  0.1764
29941ION     NA48145   6.805   4.891   4.803  0.1481  0.1935 -0.0392
29942ION     NA48146  15.898  17.067   5.560  0.0038 -0.0743 -0.1616
29943ION     NA48147   0.544  13.470   4.894  0.1331 -0.0723  0.0382
29944ION     NA48148  17.036  18.032   3.896 -0.1106 -0.5422  0.0104
29945ION     NA48149  14.890  12.529  10.269 -0.1269 -0.0466  0.1444
29946ION     NA48150  11.338   6.997  12.333  0.0190  0.0313 -0.3562
29947ION     NA48151  12.439  18.654   9.909  0.1742  0.2263 -0.1927
29948ION     NA48152   3.359  14.375  10.128 -0.1316  0.2135 -0.0316
29949ION     NA48153  12.426  17.355  13.093 -0.0007  0.1028 -0.1703
29950ION     NA48154  12.259   6.079  13.961  0.1070 -0.0782  0.2011
29951ION     NA48155   5.463  18.490   9.837 -0.2827  0.1603  0.0480
29952ION     NA48156   0.076  16.596   0.924  0.1589  0.3047  0.0641
29953ION     NA48157   0.275   3.813  10.366  0.2216  0.3593  0.3805
29954ION     NA48158   8.224  14.838  10.304 -0.1237 -0.1168 -0.0248
29955ION     NA48159   0.131  15.453   5.250  0.2312 -0.0599 -0.0970
29956ION     NA48160  17.712   9.942   5.620  0.0460  0.0416 -0.1650
29957ION     NA48161   4.501   3.077   5.280 -0.1228  0.0120 -0.0751
29958ION     NA48162  10.853   3.444   5.278  0.1300  0.1261 -0.1640
29959ION     NA48163   2.729   2.101  10.531  0.2055 -0.3536 -0.1078
29960ION     NA48164   0.599  18.437  10.455  0.2046 -0.1961  0.0682
29961ION     NA48165  12.333   5.186   5.432  0.0730  0.1947  0.1204
29962ION     NA48166  18.440   5.417   5.632  0.4001 -0.3316  0.1650
29963ION     NA48167   6.805   4.561   5.191 -0.0909 -0.0409  0.1791
29964ION     NA48168   2.197  11.577   5.280 -0.1169 -0.0908 -0.0646
29965ION     NA48169   4.560  10.541   1.128  0.1753  0.1792  0.4080
29966ION     NA48170   2.417   1.486   5.498 -0.4595 -0.0816  0.0651
29967ION     NA48171  18.359  15.418   2.399  0.0257 -0.0975 -0.2446
29968ION     NA48172  13.582   0.216   1.405  0.3883  0.0423  0.1500
29969ION     NA48173   3.114  15.817  10.184  0.0070 -0.0747 -0.1603
29970ION     NA48174   6.329   0.213   9.942 -0.1982  0.1362 -0.1765
29971ION     NA48175   5.096  18.342   1.397  0.4076  0.0976 -0.1750
29972ION     NA48176  18.394   2.788   5.732  0.0740 -0.2294 -0.1315
29973ION     NA48177   4.196   4.085   5.378  0.1413 -0.1042  0.0340
29974ION     NA48178   8.773   6.117   5.405  0.0863  0.2471  0.0823
29975ION     NA48179   7.500   3.198  14.188  0.0050 -0.3525  0.3809
29976ION     NA48180   1.225  15.026  10.312 -0.2107  0.0857 -0.1079
29977ION     NA48181  10.281   5.323   5.634  0.3817  0.0287 -0.1087
29978ION     NA48182   8.866  16.584  10.174  0.1237  0.1352 -0.3635
29979ION     NA48183  11.113   4.718  10.072 -0.1084 -0.0130  0.0393
29980ION     NA48184   1.902   8.265   5.146  0.1437  0.0722  0.0506
29981ION     NA48185  12.323   1.466   9.983 -0.2346  0.0043 -0.1327
29982ION     NA48186  14.683  13.518  10.207 -0.0709  0.0342 -0.1225
29983ION     NA48187  14.403  14.714   3.715  0.0542 -0.1606 -0.1694
29984ION     NA48188   7.917  10.545  10.325  0.1319 -0.0764 -0.0540
29985ION     NA48189  17.401  10.703   5.473  0.1953 -0.0542 -0.2093
29986ION     NA48190   4.875  15.974   5.237 -0.2368  0.0979 -0.1682
29987ION     NA48191   1.175   4.062   5.260  0.2732 -0.1023  0.0188
29988ION     NA48192   9.930   3.808   5.101 -0.2610  0.0992 -0.0106
29989ION     NA48193  17.515   0.794   5.536 -0.1718 -0.0091  0.2002
29990ION     NA48194   6.033  16.222   9.634 -0.3979 -0.3361  0.0168
29991ION     NA48195  11.550  15.645   9.974  0.0732  0.1108 -0.1291
29992ION     NA48196   6.523   2.679   9.778  0.1672  0.0490 -0.2525
29993ION     NA48197  12.738   7.597   1.009 -0.2379  0.0942 -0.3233
29994ION     NA48198  10.785  16.966  11.421  0.1024  0.5332  0.1403
29995ION     NA48199   5.317   7.726  10.143 -0.3975 -0.3013  0.1177
29996ION     NA48200   6.147   0.789   0.328 -0.0275  0.1800 -0.5128
29997ION     NA48201   8.640   5.695   5.220  0.0839 -0.1222 -0.1163
29998ION     NA48202   6.261   8.267  13.873  0.0160  0.1621  0.3130
29999ION     NA48203   0.849   8.461  14.920  0.0498 -0.1458 -0.1401
30000ION     NA48204  10.690   6.934   6.045  0.1432 -0.3465  0.2386
30001ION     NA48205   7.277   9.854  10.514 -0.0266  0.1421 -0.1743
30002ION     NA48206  17.839   8.265   5.599  0.0544  0.1115  0.0207
30003ION     NA48207  14.397   0.785   5.397 -0.2708 -0.6399 -0.0456
30004ION     NA48208  14.036   3.751  10.148 -0.0451 -0.0489 -0.0223
30005ION     NA48209  16.553  18.575   5.248 -0.0591  0.1520 -0.1571
30006ION     NA48210  14.338   5.797   2.148 -0.2095 -0.3668  0.0439
30007ION     NA48211  17.825  17.291   3.656  0.1528  0.0735 -0.1670
30008ION     NA48212   6.769   0.480  12.910 -0.0310 -0.2314 -0.2976
30009ION     NA48213  14.397  12.348  13.718 -0.0194  0.2814 -0.2336
30010ION     NA48214   5.674  15.148  10.156 -0.0937  0.1913  0.2879
30011ION     NA48215  15.326   0.202  10.153 -0.1909 -0.0748 -0.1671
30012ION     NA48216  16.833  17.006   5.636 -0.1564 -0.1772 -0.2476
30013ION     NA48217  16.213   8.371  14.011 -0.1719  0.1153 -0.0470
30014ION     NA48218   1.197  13.541   9.779  0.5199  0.0523 -0.1309
30015ION     NA48219  16.827   9.402   5.569 -0.1647 -0.0004  0.1078
30016ION     NA48220  11.827  17.870   5.319 -0.0480 -0.0206 -0.2886
30017ION     NA48221   4.758   5.925  10.036 -0.0244  0.4103  0.0377
30018ION     NA48222  17.647   5.061  10.706 -0.2592  0.0839 -0.1139
30019ION     NA48223  14.064  14.758  10.029  0.0029 -0.0483  0.0321
30020ION     NA48224   0.363   7.968   5.181 -0.1991  0.0338  0.1640
30021ION     NA48225  11.507  12.662   0.091 -0.0584 -0.1191  0.0486
30022ION     NA48226  10.754  15.674   5.283  0.1147 -0.2626  0.0465
30023ION     NA48227   0.237   4.783  10.363  0.1827  0.1028  0.0757
30024ION     NA48228  18.110  11.660   5.345 -0.1434 -0.0656 -0.0844
30025ION     NA48229   6.836   8.884   4.190  0.0088 -0.3990  0.1898
30026ION     NA48230   0.622   8.790  10.393 -0.1116  0.0185  0.0898
30027ION     NA48231  11.725   9.221   5.637 -0.0210 -0.0108  0.3627
30028ION     NA48232   3.793   8.022  10.285  0.2647  0.0453 -0.1403
30029ION     NA48233   5.894  12.554   5.116 -0.3036  0.0295 -0.2482
30030ION     NA48234   9.725  10.795   0.254  0.1752 -0.0811  0.0095
30031ION     NA48235   3.504  15.601   5.703  0.0919 -0.2382 -0.0723
30032ION     NA48236  11.835   4.189  10.236 -0.0895  0.0012 -0.0406
30033ION     NA48237   0.153   8.214  10.631  0.0912 -0.2176 -0.1524
30034ION     NA48238   7.650   6.255  10.039 -0.3243 -0.0441 -0.0128
30035ION     NA48239  11.217   4.332   4.827 -0.0232  0.1481 -0.1505
30036ION     NA48240  18.353   6.419   5.607  0.4068 -0.1651  0.2020
30037ION     NA48241   2.643   4.926   5.268 -0.4285 -0.0257  0.2121
30038ION     NA48242  12.200  12.953   3.391  0.2342 -0.1394 -0.0713
30039ION     NA48243  12.616   7.083   5.601  0.1444  0.1679 -0.2772
30040ION     NA48244   0.165  11.270  10.081 -0.1197  0.1296 -0.0788
30041ION     NA48245  15.617  17.141  10.388  0.0382  0.0499  0.0286
30042ION     NA48246  13.951   0.107   5.174  0.0780  0.0418 -0.2059
30043ION     NA48247   0.827   2.513   1.310 -0.0622  0.0588 -0.1035
30044ION     NA48248  15.454   8.801   2.351 -0.3526 -0.0031  0.0006
30045ION     NA48249   5.556   5.955   5.213 -0.2394  0.4315 -0.0066
30046ION     NA48250   2.714  10.920  13.935  0.1296 -0.1886 -0.0193
30047ION     NA48251  14.231   6.692  10.400  0.2059 -0.0366 -0.1657
30048ION     NA48252  10.987  10.943   5.499  0.0788 -0.0257  0.3405
30049ION     NA48253  12.131   2.311  10.264  0.0625  0.2744  0.0825
30050ION     NA48254   2.496   8.757  10.085 -0.0394  0.0451  0.2562
30051ION     NA48255  10.998   1.202   3.449  0.0985 -0.1093 -0.0973
30052ION     NA48256  12.624   6.139  10.795 -0.1298  0.0736 -0.1942
30053ION     NA48257   8.596   0.470   4.847  0.1466 -0.0350  0.0875
30054ION     NA48258   0.143  15.573  10.158 -0.1101  0.2708  0.3892
30055ION     NA48259  15.192   5.426   0.945  0.3854  0.3297 -0.3844
30056ION     NA48260  17.896  17.876   5.740 -0.0909  0.0815 -0.2760
30057ION     NA48261   9.668   8.915  10.274  0.2455 -0.2542 -0.0347
30058ION     NA48262   6.664   9.719  10.150  0.1048  0.1092 -0.1010
30059ION     NA48263   7.676  18.029   9.782 -0.0914  0.0056 -0.0040
30060ION     NA48264   0.677   1.295   5.725  0.0380 -0.1041 -0.3037
30061ION     NA48265   9.284  13.899   5.583 -0.1090 -0.0403  0.0650
30062ION     NA48266   9.148  18.491   0.357  0.1213  0.1113  0.5554
30063ION     NA48267   1.730   2.816   4.273 -0.3992 -0.1196 -0.0370
30064ION     NA48268   7.718  11.528  10.060  0.1930  0.0988 -0.0836
30065ION     NA48269   9.453   5.656   5.551  0.0103 -0.3975  0.0617
30066ION     NA48270   8.872  10.377   5.371 -0.1854 -0.1250 -0.3938
30067ION     NA48271   2.035  17.254   3.945 -0.2472 -0.0750 -0.0046
30068ION     NA48272  10.592  13.963  10.062  0.3237 -0.0522 -0.0168
30069ION     NA48273   6.287   5.500   5.142 -0.1094 -0.1261  0.1094
30070ION     NA48274   1.079  16.793  10.161 -0.1323 -0.1350  0.2971
30071ION     NA48275   5.122  16.298   1.632  0.0916  0.1768 -0.0348
30072ION     NA48276  16.624   7.246   1.504 -0.1394 -0.2596 -0.1801
30073ION     NA48277  13.747  16.915   5.139 -0.3898 -0.1875 -0.1223
30074ION     NA48278  11.128   4.007  10.335  0.1478 -0.1105  0.2828
30075ION     NA48279  10.043   8.911   3.111  0.0952 -0.1558 -0.0890
30076ION     NA48280   0.204   9.897  13.162 -0.3642 -0.2400  0.4018
30077ION     NA48281   1.140   6.529  10.413  0.0223 -0.0933 -0.2432
30078ION     NA48282   8.433   1.473   5.164 -0.4055 -0.0381 -0.2604
30079ION     NA48283   5.712   0.846   5.002 -0.1373 -0.0901 -0.3325
30080ION     NA48284   1.683   3.788  10.341 -0.1765  0.2260  0.0094
30081ION     NA48285   0.359   6.661  11.149  0.0888 -0.1129 -0.4488
30082ION     NA48286   5.725   4.117   9.984  0.1284  0.2011  0.1276
30083ION     NA48287   7.077   2.199   9.989 -0.0148 -0.0466  0.2421
30084ION     NA48288  13.047   7.679   5.605  0.1633 -0.1529  0.0011
30085ION     NA48289   2.244  16.214   5.425 -0.2323  0.0199 -0.0477
30086ION     NA48290   3.427  14.166   5.314  0.0743 -0.0581 -0.1756
30087ION     NA48291  12.447  16.949   2.956  0.4174  0.0090 -0.2806
30088ION     NA48292  11.086  11.546  10.112  0.0400  0.4452 -0.1670
30089ION     NA48293   6.212   1.626  13.667 -0.0222  0.0042  0.0169
30090ION     NA48294   4.870  15.290   2.232 -0.2343  0.1437  0.0803
30091ION     NA48295   1.673  14.385  10.060 -0.0294  0.0107  0.0213
30092ION     NA48296   7.801  11.193   2.863 -0.1369 -0.1017  0.1689
30093ION     NA48297   5.860  10.261  10.252 -0.0403 -0.1280 -0.0743
30094ION     NA48298   4.507  10.478   5.501 -0.0530  0.1496 -0.1461
30095ION     NA48299   7.431  16.371   0.641  0.2569 -0.1219 -0.5392
30096ION     NA48300   1.688   7.522   5.648 -0.1578  0.3397 -0.0922
30097ION     NA48301   2.571   2.551  10.369  0.1651 -0.2019  0.1804
30098ION     NA48302  15.288   4.382   5.093  0.1100 -0.0226 -0.0950
30099ION     NA48303   2.466   5.374  15.059  0.0504 -0.3500 -0.3315
30100ION     NA48304  14.920   0.084   5.183 -0.0858  0.2597 -0.3409
30101ION     NA48305  15.899  11.218   4.376  0.3285  0.2804  0.0088
30102ION     NA48306  12.273  17.710  10.646 -0.0701  0.2677 -0.2583
30103ION     NA48307   3.300  12.099   5.485  0.1952  0.0280 -0.5126
30104ION     NA48308   8.580   6.025  10.514 -0.0140 -0.0464  0.1725
30105ION     NA48309   1.151   1.485  10.397 -0.0920  0.1896  0.0490
30106ION     NA48310   5.556   2.646   5.314  0.0610  0.2709  0.1573
30107ION     NA48311  14.120  13.457  11.628 -0.0876 -0.0164 -0.1971
30108ION     NA48312   6.830  14.396   5.282 -0.4183  0.2969 -0.3118
30109ION     NA48313  11.787   3.695   3.682 -0.2118 -0.1334  0.2835
30110ION     NA48314  11.069   7.117   3.384 -0.0535 -0.3298 -0.3436
30111ION     NA48315   1.246   4.207  14.749 -0.0517  0.1794 -0.4727
30112ION     NA48316   7.973  17.066   5.065  0.0008 -0.0522 -0.1149
30113ION     NA48317  17.991   2.989  14.544  0.2030  0.0303  0.1617
30114ION     NA48318   1.481  10.933   9.870  0.0099 -0.0979 -0.0361
30115ION     NA48319   9.905  14.532  14.415 -0.0331 -0.3487  0.2281
30116ION     NA48320  14.102  14.827   5.212  0.3006 -0.2565  0.3986
30117ION     NA48321  10.345   5.534  13.521  0.0085  0.0849  0.2142
30118ION     NA48322  15.981  12.334  12.779  0.1093 -0.0286  0.0331
30119ION     NA48323  17.551   8.305  10.675 -0.0368  0.3138 -0.4088
30120ION     NA48324  10.583  17.901   5.344 -0.1276  0.0015 -0.1516
30121ION     NA48325  18.427   5.262  10.529 -0.0550 -0.0455 -0.0912
30122ION     NA48326   7.235   0.437   9.758  0.2798  0.1754 -0.1530
30123ION     NA48327  17.264  14.981  10.161 -0.0738 -0.2525  0.2029
30124ION     NA48328   3.204  11.092  10.905  0.0218  0.0058  0.0937
30125ION     NA48329   3.657  10.513   1.395 -0.0432 -0.2160 -0.0076
30126ION     NA48330  16.963  15.156   0.991  0.1533 -0.3963  0.1993
30127ION     NA48331   8.334   2.770   5.218 -0.3933 -0.1052 -0.1280
30128ION     NA48332  10.538   1.203   3.224 -0.1286 -0.3052 -0.0373
30129ION     NA48333   4.823   8.509   5.101 -0.3570  0.1842  0.1257
30130ION     NA48334   4.014  13.028   5.156 -0.0233  0.1688 -0.0563
30131ION     NA48335  12.391   2.501  15.411 -0.1559 -0.0825  0.2365
30132ION     NA48336   4.966  14.938   5.365 -0.2255  0.1660 -0.0224
30133ION     NA48337  17.895  18.450  12.939 -0.0107  0.1841 -0.0224
30134ION     NA48338  17.019  15.650   2.094  0.1098 -0.0928  0.2037
30135ION     NA48339  15.478   3.896  10.507  0.1146  0.3482 -0.0964
30136ION     NA48340   6.771   8.932   2.611  0.1299  0.1069 -0.1415
30137ION     NA48341   8.224  16.156   5.106  0.0532  0.4457 -0.0474
30138ION     NA48342  10.609  15.284   9.930 -0.0437 -0.1716 -0.3457
30139ION     NA48343  13.428   4.546   5.368 -0.0670 -0.0701  0.0926
30140ION     NA48344  18.587   9.250   9.851 -0.1041  0.0699 -0.1620
30141ION     NA48345   8.912   7.253  10.406  0.0886 -0.1464  0.0642
30142ION     NA48346  12.262   4.857  14.640 -0.0155  0.0081  0.0704
30143ION     NA48347   4.766  12.342  10.103 -0.2026 -0.1825  0.2296
30144ION     NA48348  13.774   5.596  14.043  0.2128 -0.2483  0.1012
30145ION     NA48349  16.618  11.752  10.377  0.0087 -0.1493 -0.0884
30146ION     NA48350   5.410  10.043   2.823 -0.1136 -0.2262  0.0022
30147ION     NA48351   1.808   7.381  10.357  0.0115 -0.1144  0.1102
30148ION     NA48352  17.451   8.028  10.279  0.0601  0.1896  0.3216
30149ION     NA48353   3.323  16.719  13.090  0.3413  0.2125 -0.0813
30150ION     NA48354  13.153   7.580  10.743  0.1255  0.0148  0.1397
30151ION     NA48355   8.646  17.549   9.768 -0.2678 -0.2179 -0.3538
30152ION     NA48356  12.286  12.016   5.455  0.4329 -0.0756 -0.1115
30153ION     NA48357   5.506  14.202   5.157  0.0415  0.2467 -0.0052
30154ION     NA48358   9.398  14.088   1.959 -0.1063 -0.1407 -0.1201
30155ION     NA48359  13.264  10.402  10.325  0.3417  0.2514 -0.0853
30156ION     NA48360   6.405   6.817   5.565  0.3625  0.2150 -0.1912
30157ION     NA48361  15.923   6.458  10.145 -0.2184 -0.0409 -0.1836
30158ION     NA48362  14.053   4.460  12.345  0.0482  0.1795 -0.0880
30159ION     NA48363   4.439  16.479  11.146 -0.0810  0.0078  0.1811
30160ION     NA48364  16.242  17.795  10.467 -0.1169  0.1679 -0.0598
30161ION     NA48365  12.267  17.080   9.884  0.3058 -0.4383 -0.0546
30162ION     NA48366  18.427  12.320   5.540 -0.0006 -0.3078  0.2073
30163ION     NA48367   9.025  12.485   5.623  0.3628  0.2041 -0.0269
30164ION     NA48368  16.750   3.750   5.359  0.1769  0.0151 -0.2302
30165ION     NA48369   1.010   9.800   9.947  0.0715 -0.0559 -0.0947
30166ION     NA48370  11.983  14.398  10.343 -0.0718  0.1313 -0.0335
30167ION     NA48371   4.284  11.557   5.267  0.1770  0.1158  0.0764
30168ION     NA48372  13.534   3.507   5.040 -0.0061 -0.2063 -0.2823
30169ION     NA48373   7.853  15.587  10.274  0.1233  0.2405  0.0093
30170ION     NA48374   3.121  14.891   5.197  0.1304  0.2634  0.0222
30171ION     NA48375   3.062  15.148  13.014  0.0490  0.0266  0.1287
30172ION     NA48376  16.147   4.509   2.577  0.2965  0.1281  0.0470
30173ION     NA48377  13.946   9.373   5.285  0.2584  0.2189 -0.4199
30174ION     NA48378   0.480   8.964   5.512 -0.5362 -0.2506 -0.1106
30175ION     NA48379  12.283  15.229  10.294  0.0401  0.2043 -0.1901
30176ION     NA48380   7.197  17.126   1.731  0.3113 -0.3327 -0.0528
30177ION     NA48381  13.050   5.816   5.577  0.2299 -0.1361  0.1498
30178ION     NA48382   6.787   3.586   4.876  0.2450  0.0617  0.2066
30179ION     NA48383   5.081  11.733  10.382 -0.0785  0.2627  0.3899
30180ION     NA48384   9.269  14.138  10.283  0.1783 -0.0879 -0.2042
30181ION     NA48385  16.503   5.435   5.881  0.0182  0.2345  0.2773
30182ION     NA48386   4.410   1.488  11.022 -0.0242  0.1093  0.1494
30183ION     NA48387  18.603  15.850  11.532  0.3133  0.2125  0.2519
30184ION     NA48388   8.008  12.657   1.085  0.3438  0.0628  0.2898
30185ION     NA48389  17.655   4.084   5.501 -0.0230 -0.0314 -0.1679
30186ION     NA48390   8.140   2.461   0.886 -0.2084 -0.1813  0.3412
30187ION     NA48391  10.481   6.814   1.119  0.2072 -0.2726  0.0441
30188ION     NA48392   7.553   4.263   5.027 -0.3706  0.1135 -0.0246
30189ION     NA48393   1.461   3.659  10.819 -0.0255  0.1253  0.4961
30190ION     NA48394  18.370  10.388  10.321 -0.1719  0.1853  0.1192
30191ION     NA48395   0.496   9.976   5.314 -0.0609 -0.0155 -0.0261
30192ION     NA48396  14.420   5.312  10.339 -0.3787  0.0151  0.1072
30193ION     NA48397  18.245   3.470   3.126  0.2258 -0.1114 -0.0177
30194ION     NA48398  12.403   6.929  10.503 -0.1180  0.0394  0.1042
30195ION     NA48399  16.241  10.112   5.757 -0.1109  0.1856 -0.0784
30196ION     NA48400  10.435  16.592   5.371 -0.1212  0.3203  0.0406
30197ION     NA48401   2.533  16.715  10.031 -0.2268  0.0841 -0.0902
30198ION     NA48402   0.859   7.618   4.284 -0.3033  0.0252  0.0493
30199ION     NA48403  10.453  12.656  10.082  0.5627 -0.0844  0.1251
30200ION     NA48404   3.146   3.955   2.265 -0.1336 -0.1850 -0.0621
30201ION     NA48405  11.982   5.995   0.161  0.0581 -0.0321 -0.0959
30202ION     NA48406   4.880   0.546   4.700 -0.2088 -0.0585  0.3025
30203ION     NA48407   0.008  18.465   5.814 -0.0629 -0.1091 -0.1261
30204ION     NA48408   9.558  15.210  10.096  0.2492  0.1730  0.2638
30205ION     NA48409  12.056   0.324   3.997  0.2485  0.0587  0.0758
30206ION     NA48410  10.019   9.767   5.328 -0.2160  0.0167 -0.0466
30207ION     NA48411   8.947  13.725  10.607 -0.0099  0.1209  0.1208
30208ION     NA48412   0.561   5.424  12.631  0.0892  0.0756  0.0089
30209ION     NA48413   0.152   8.050  10.088  0.3695 -0.2287  0.2561
30210ION     NA48414   1.582  12.695  10.065 -0.0953 -0.2016  0.0568
30211ION     NA48415   4.531   7.480  14.140 -0.0822  0.1020 -0.0165
30212ION     NA48416  14.497   2.643  12.442 -0.0934  0.0654  0.1017
30213ION     NA48417   7.314  15.538   3.525  0.0868 -0.1946 -0.0163
30214ION     NA48418  10.651  17.233  10.145  0.2208  0.3494  0.0698
30215ION     NA48419   1.740   3.433   5.083  0.1886 -0.0204  0.0092
30216ION     NA48420   9.201  16.492   5.183 -0.3013  0.2675 -0.0385
30217ION     NA48421   6.510   7.020  10.905 -0.1942  0.0612  0.0828
30218ION     NA48422  14.468  17.098  10.414 -0.1643  0.0578  0.0596
30219ION     NA48423  10.459  18.416  10.088  0.0133  0.0265 -0.0052
30220ION     NA48424  17.173  17.618  10.743  0.1511 -0.1380 -0.2084
30221ION     NA48425  10.060   9.465  10.265 -0.0727 -0.0210  0.1072
30222ION     NA48426  15.389   8.812   6.008  0.0774  0.2307  0.0698
30223ION     NA48427   0.709   4.699  12.883 -0.2072 -0.1034 -0.3880
30224ION     NA48428   1.954  10.389  14.252  0.1364  0.2323  0.0686
30225ION     NA48429   3.467   4.338  10.127 -0.1939  0.2847  0.0971
30226ION     NA48430  13.551   3.415  10.176 -0.4545  0.2593 -0.1897
30227ION     NA48431  11.195  17.289   5.513  0.1209  0.0227  0.0364
30228ION     NA48432   4.935  12.594   5.079  0.0136 -0.2121  0.1370
30229ION     NA48433  16.242  15.652   5.145  0.0358 -0.0462  0.1122
30230ION     NA48434   0.078  15.783  13.624  0.2382 -0.1860 -0.1156
30231ION     NA48435   3.021   3.188   0.992  0.0347 -0.1302  0.1974
30232ION     NA48436   5.063   3.158   4.603  0.2143 -0.0790 -0.1167
30233ION     NA48437  14.083  13.863   5.056  0.0642 -0.1651 -0.0164
30234ION     NA48438  11.412  18.430  12.931 -0.2080  0.0587 -0.0565
30235ION     NA48439  13.188  18.150   2.984  0.1389 -0.1775  0.0120
30236ION     NA48440  16.368   7.796   5.682  0.4507 -0.2351  0.1618
30237ION     NA48441  10.289   4.119  10.110  0.2016 -0.2079  0.2176
30238ION     NA48442  14.968  15.336   0.619 -0.0035 -0.0209 -0.0106
30239ION     NA48443   5.189   6.848   5.362 -0.0644  0.2000 -0.1494
30240ION     NA48444  10.711  11.710   5.457 -0.2896 -0.1440 -0.0337
30241ION     NA48445   5.399  16.556   9.727  0.0441  0.0429 -0.0006
30242ION     NA48446  16.393   2.201   5.678 -0.1637 -0.1280 -0.2921
30243ION     NA48447  15.850   1.404   5.278  0.1751  0.3389 -0.4052
30244ION     NA48448   4.151  13.404  11.625 -0.2796 -0.3494 -0.2395
30245ION     NA48449   7.472   6.814   3.587 -0.1975 -0.1201  0.1039
30246ION     NA48450   2.109  12.914  10.050 -0.0027  0.3520 -0.1057
30247ION     NA48451  16.500   2.339  10.251 -0.0341 -0.1873  0.2400
30248ION     NA48452   3.787  13.601  10.099 -0.0612  0.2686  0.1628
30249ION     NA48453   2.170  11.984  11.623  0.0621 -0.0592 -0.0950
30250ION     NA48454   4.700  16.770   9.883  0.1116  0.2060  0.1378
30251ION     NA48455  16.814  12.379   5.253 -0.0797  0.2820 -0.1565
30252ION     NA48456  14.001  16.113  10.136  0.2011 -0.0976  0.1354
30253ION     NA48457   4.525   2.696   4.081 -0.4442  0.0902  0.2115
30254ION     NA48458   9.863  16.693   3.173  0.4022  0.0023 -0.2134
30255ION     NA48459   1.877  12.855   5.207  0.0059 -0.0928  0.2015
30256ION     NA48460  15.431  11.350   5.555  0.1969 -0.0498  0.1730
30257ION     NA48461  18.389  12.154  10.389 -0.2273 -0.3442 -0.1562
30258ION     NA48462   0.432   5.952  10.240 -0.3737  0.0188  0.0814
30259ION     NA48463  11.214  15.242   9.934 -0.1004  0.2490  0.1063
30260ION     NA48464   2.237   6.638   4.303 -0.0628 -0.2872 -0.0018
30261ION     NA48465   2.812  17.031  12.178 -0.0248  0.1245 -0.4053
30262ION     NA48466   7.825   3.469   4.891  0.2973 -0.0254  0.0397
30263ION     NA48467  16.992   6.128   5.980 -0.0054 -0.2243  0.1787
30264ION     NA48468  13.884  11.841   5.591 -0.1143  0.1782  0.0058
30265ION     NA48469   0.986  15.921   5.308  0.0016  0.0049 -0.0350
30266ION     NA48470  14.989  11.086   2.534 -0.0472 -0.2722  0.0617
30267ION     NA48471   9.588   8.220   5.287 -0.4182  0.1340 -0.0277
30268ION     NA48472  17.133  15.379   4.675 -0.0366  0.2401 -0.3460
30269ION     NA48473   3.607   8.958  10.119  0.0922 -0.0229  0.1057
30270ION     NA48474   0.327  13.528  10.278 -0.0901  0.2325  0.1199
30271ION     NA48475   3.532  18.112  10.067  0.0027  0.2945 -0.0577
30272ION     NA48476  13.013  12.630  14.465 -0.2089 -0.3627 -0.0935
30273ION     NA48477   7.780   5.508   4.777  0.2028 -0.0101 -0.2459
30274ION     NA48478   6.065   6.440   1.467  0.0308 -0.2008  0.0361
30275ION     NA48479   6.308   4.308   5.215  0.0051  0.2695 -0.1057
30276ION     NA48480   9.311   2.504  10.160  0.2563 -0.3220  0.0957
30277ION     NA48481   2.798   7.749  10.177  0.0517  0.1007  0.0279
30278ION     NA48482   1.104   7.896   3.503  0.0959  0.3026  0.0555
30279ION     NA48483  15.911   7.144   0.193 -0.3058 -0.1497 -0.0436
30280ION     NA48484   2.728   6.770   5.212  0.1416 -0.1503 -0.3040
30281ION     NA48485  13.239  15.420  11.865  0.1120  0.0628 -0.2318
30282ION     NA48486   9.534  13.173   5.507 -0.1983  0.0642  0.3916
30283ION     NA48487   4.405   9.373  10.260 -0.1514 -0.1255 -0.1755
30284ION     NA48488  10.281  16.552  10.190  0.1567 -0.4306 -0.0372
30285ION     NA48489  10.047  15.178   5.433 -0.1446 -0.1760 -0.0739
30286ION     NA48490  17.303   3.602  11.996 -0.0350  0.0685 -0.1568
30287ION     NA48491   6.755   0.324   4.924  0.2577 -0.0715  0.0339
30288ION     NA48492   0.343   1.163  11.846 -0.3111  0.1704 -0.0187
30289ION     NA48493  16.874  18.477  10.489  0.0450  0.2315 -0.1092
30290ION     NA48494  16.738  12.952  14.131  0.0400 -0.0848  0.4320
30291ION     NA48495   3.123   7.642  15.018 -0.3052 -0.1091  0.1356
30292ION     NA48496  16.508   7.997   4.267  0.2592  0.4218 -0.0415
30293ION     NA48497   4.773  15.118  10.011 -0.1674  0.2327 -0.0948
30294ION     NA48498  12.870   5.132  13.377 -0.0964  0.1966  0.3411
30295ION     NA48499   8.723  14.685   5.351  0.0176 -0.1269 -0.1217
30296ION     NA48500   9.644  12.400  10.144 -0.0312 -0.1242 -0.0487
30297ION     NA48501   0.437   8.966   2.937  0.3068  0.0902  0.4408
30298ION     NA48502  11.669  10.512   5.761  0.1443  0.4054 -0.3673
30299ION     NA48503   6.863   6.095  11.454 -0.0788  0.0519  0.1338
30300ION     NA48504   7.296  15.803  11.818  0.1475 -0.2823 -0.0093
30301ION     NA48505   5.377  12.636  10.197  0.0265 -0.3336  0.0860
30302ION     NA48506  11.963  15.297   4.952  0.2270 -0.0740 -0.2245
30303ION     NA48507  16.236  11.676   5.103  0.3493  0.0545  0.0280
30304ION     NA48508   4.136   6.356  15.373  0.3683  0.1921  0.3446
30305ION     NA48509  18.212   2.139  10.653  0.1668  0.0582  0.1021
30306ION     NA48510   6.081  11.822  10.112  0.0118  0.3880 -0.1911
30307ION     NA48511   7.302   2.710   4.013  0.2216 -0.0158  0.2483
30308ION     NA48512   9.689   7.819  10.256 -0.0660 -0.1752  0.0537
30309ION     NA48513  17.844  13.929   5.295  0.1708  0.2413  0.0068
30310ION     NA48514   2.984  11.314   5.198  0.0272  0.1512  0.1180
30311ION     NA48515  17.497  12.373  10.302 -0.1905  0.2060 -0.2267
30312ION     NA48516  13.568  16.196   2.068 -0.0274 -0.0889 -0.2390
30313ION     NA48517  12.472   4.538   5.051  0.1606 -0.2032 -0.0504
30314ION     NA48518  10.716   2.666  12.210 -0.3503  0.2211  0.2478
30315ION     NA48519  15.292   0.117   2.284 -0.0416 -0.2449 -0.0340
30316ION     NA48520   4.321  17.540   9.785  0.1756 -0.3867  0.0728
30317ION     NA48521  13.880   2.701   5.421  0.0551 -0.2128  0.3418
30318ION     NA48522  17.342   6.320   5.485 -0.0811  0.4663  0.0671
30319ION     NA48523   1.711  18.298   9.986 -0.1143 -0.2225 -0.1040
30320ION     NA48524   5.201   6.814  10.107 -0.0114  0.3219  0.0870
30321ION     NA48525   7.691  11.859   5.126  0.1078 -0.2257 -0.2053
30322ION     NA48526  17.748  16.487   5.595  0.0580 -0.0953  0.1963
30323ION     NA48527   6.203   2.527   0.370 -0.1105  0.4234  0.1234
30324ION     NA48528  17.259  17.738  10.227 -0.1926  0.1295 -0.1015
30325ION     NA48529   9.094  10.680   1.779 -0.0235  0.2167  0.0190
30326ION     NA48530   5.608   9.718   5.520  0.1166  0.1638 -0.2820
30327ION     NA48531  11.421   3.743   5.358  0.1360 -0.3025  0.0265
30328ION     NA48532  11.346  18.684  15.061  0.0647  0.0402 -0.0881
30329ION     NA48533  11.256  17.140  12.451 -0.0495  0.0636  0.0948
30330ION     NA48534  15.028   6.575  10.334  0.2000 -0.2071  0.2741
30331ION     NA48535  17.604   3.887  10.666  0.0059 -0.5735 -0.0255
30332ION     NA48536  15.795  12.223  10.302 -0.1685 -0.2016 -0.0968
30333ION     NA48537   7.592  11.731  14.921 -0.2381  0.0310  0.3116
30334ION     NA48538  17.655   7.566   4.482  0.0727  0.5295  0.4447
30335ION     NA48539   3.339  11.405  13.180 -0.0363  0.0068 -0.0302
30336ION     NA48540  12.368  10.026  12.260 -0.0475 -0.0527 -0.2843
30337ION     NA48541  15.260  13.958  10.217  0.0492  0.3040  0.2808
30338ION     NA48542   2.541  17.931   5.299  0.4535 -0.0164 -0.4406
30339ION     NA48543   2.017  17.511  13.945 -0.0502 -0.0794 -0.1203
30340ION     NA48544  16.824  11.139  12.445  0.0428  0.3302 -0.0965
30341ION     NA48545   1.996   6.560  10.351 -0.0227  0.0934 -0.1588
30342ION     NA48546   4.352  14.241   5.386 -0.1214 -0.2055 -0.0711
30343ION     NA48547   9.734   2.100   5.052  0.0093 -0.0134 -0.0507
30344ION     NA48548   7.944   5.481  10.251  0.1918  0.0964 -0.1047
30345ION     NA48549  10.190  17.518  10.221  0.2002 -0.0835  0.4021
30346ION     NA48550   7.086   6.998  10.374  0.0163 -0.4228  0.0258
30347ION     NA48551   0.202  15.561  14.718  0.1937 -0.3817 -0.2142
30348ION     NA48552  13.340   6.755   5.673 -0.0693 -0.1562  0.2282
30349ION     NA48553   4.332   0.771  11.775  0.3100  0.0816 -0.0562
30350ION     NA48554  12.848  16.793   5.160 -0.3826  0.1178 -0.0737
30351ION     NA48555  17.121   2.838  14.824 -0.1646  0.2923 -0.1829
30352ION     NA48556  10.437   9.147   5.731  0.0388  0.1965  0.1624
30353ION     NA48557  11.496   7.070  10.523 -0.2815 -0.3039 -0.0984
30354ION     NA48558  18.416  12.875  10.206  0.2301 -0.4424 -0.0333
30355ION     NA48559   5.381   8.717   5.294  0.0443  0.2044  0.3955
30356ION     NA48560  13.317  17.684   5.338 -0.1827 -0.0177 -0.4384
30357ION     NA48561   3.471   1.341   5.426 -0.0515 -0.1391  0.3250
30358ION     NA48562  13.395   8.796  10.301  0.1122 -0.0362  0.1738
30359ION     NA48563  12.196   0.206  13.178  0.0378 -0.1122  0.0127
30360ION     NA48564  17.464  17.776  14.045  0.3388 -0.0643 -0.1537
30361ION     NA48565   2.150  13.554  10.746 -0.0198 -0.0096  0.1854
30362ION     NA48566  15.864   1.699  10.033 -0.0531  0.0687  0.0191
30363ION     NA48567  15.685   4.705  10.629  0.3475 -0.1338 -0.3160
30364ION     NA48568  17.469   2.077   5.624 -0.0800 -0.0172 -0.1283
30365ION     NA48569   6.520   2.784   5.128  0.3309 -0.3251  0.1174
30366ION     NA48570   7.589   1.493   9.753  0.1358 -0.1524 -0.1480
30367ION     NA48571  11.045   1.427   5.292 -0.0578  0.0585 -0.1534
30368ION     NA48572  17.683  14.952  13.567  0.1138 -0.1482 -0.2851
30369ION     NA48573  17.467  10.222  10.155 -0.0143  0.0180  0.3243
30370ION     NA48574   8.094   9.887   5.727  0.0887  0.0762 -0.0760
30371ION     NA48575   9.469  14.833   4.287  0.2064 -0.2715  0.4988
30372ION     NA48576  18.167   3.215  10.551 -0.0624 -0.2636  0.2352
30373ION     NA48577   3.099  13.319   3.233  0.0276 -0.2450  0.1585
30374ION     NA48578   6.041  13.808  10.058 -0.1355  0.3802 -0.3368
30375ION     NA48579   7.047   1.490   5.239 -0.1997 -0.0805 -0.0547
30376ION     NA48580   4.476   4.894   5.458 -0.1197  0.2067 -0.0684
30377ION     NA48581  13.854   7.834  10.472 -0.0890  0.1742  0.1154
30378ION     NA48582   6.375   3.940  14.858 -0.1689  0.0548  0.2146
30379ION     NA48583  12.049  12.942  10.177 -0.1772 -0.1437 -0.0898
30380ION     NA48584   2.742   5.908  14.245 -0.0212 -0.3312  0.1561
30381ION     NA48585   7.015   5.280  10.449  0.1573  0.1354  0.0663
30382ION     NA48586  14.044  12.461   3.196 -0.0267  0.2478  0.1501
30383ION     NA48587  10.718   8.721  10.273  0.2484  0.3495 -0.1172
30384ION     NA48588   9.003  12.118   4.694 -0.0064  0.0864  0.1589
30385ION     NA48589   1.720  11.032   4.404  0.0850 -0.2032  0.0603
30386ION     NA48590  15.699   4.320  14.589 -0.1024  0.0665  0.3168
30387ION     NA48591  14.204  10.033   5.809  0.1077  0.0966  0.3109
30388ION     NA48592   7.382  10.794  10.507 -0.0676  0.1471  0.2020
30389ION     NA48593  18.505   4.525   5.630 -0.3024 -0.1097  0.0741
30390ION     NA48594   5.927  17.254   9.645 -0.2125 -0.0665 -0.0836
30391ION     NA48595   1.116   7.762   2.001 -0.1587  0.0956 -0.1648
30392ION     NA48596   3.477  12.625   1.091  0.2075  0.1170  0.2282
30393ION     NA48597  14.036  12.182  11.810  0.3962 -0.2548 -0.0506
30394ION     NA48598  11.784  14.756  10.057 -0.3189  0.1124 -0.1208
30395ION     NA48599   1.812  12.119  13.489  0.1146  0.0360  0.1970
30396ION     NA48600   8.573   4.981  12.291  0.0879 -0.1321 -0.2543
30397ION     NA48601   2.240  15.643  10.111  0.1418  0.1293 -0.3654
30398ION     NA48602  14.252   4.817   3.128  0.3930 -0.1421  0.0979
30399ION     NA48603  13.361  14.529   5.072 -0.1799 -0.1242  0.4640
30400ION     NA48604   7.492  13.642   5.024  0.1526  0.3390 -0.0167
30401ION     NA48605   9.801  17.221   5.380  0.1780 -0.1507 -0.0817
30402ION     NA48606  13.441  16.772  14.649 -0.0513 -0.1724 -0.1674
30403ION     NA48607   9.357   4.807   5.547  0.1773  0.1832 -0.3521
30404ION     NA48608   6.123  12.246  13.433 -0.3317 -0.0216  0.0601
30405ION     NA48609  17.193   1.322   4.905  0.1817  0.1358 -0.3737
30406ION     NA48610   1.731   9.638   5.232 -0.0062  0.0778  0.0301
30407ION     NA48611   3.236  12.122   9.957  0.2428  0.1001 -0.0324
30408ION     NA48612   3.413   3.347   5.174  0.0093  0.1272 -0.0575
30409ION     NA48613  15.153   4.862  10.501  0.0022  0.1739  0.1541
30410ION     NA48614   9.915   0.423  10.093 -0.1943  0.1319  0.3892
30411ION     NA48615  13.573  12.615   5.399  0.2458  0.4192 -0.1705
30412ION     NA48616  17.133  17.543   4.780 -0.3775 -0.0517  0.1243
30413ION     NA48617  14.823  11.559  10.341  0.4168  0.2117 -0.1256
30414ION     NA48618  10.893  18.471   4.891  0.1751 -0.0748 -0.1387
30415ION     NA48619   6.495   7.836   5.687 -0.1642  0.4148 -0.0668
30416ION     NA48620  14.278   0.799  10.053 -0.2478  0.2404 -0.0108
30417ION     NA48621  13.092   1.668  15.044  0.1045 -0.1961  0.0935
30418ION     NA48622  11.322  12.370  10.021  0.0166 -0.3167  0.1104
30419ION     NA48623  13.427   9.768   5.830 -0.0760  0.3113 -0.3204
30420ION     NA48624   6.410   1.680   9.872  0.2328  0.2729  0.0592
30421ION     NA48625   7.019   3.597  10.151 -0.0958  0.2544 -0.0485
30422ION     NA48626   7.845   9.927  10.453  0.0134 -0.0870 -0.1573
30423ION     NA48627   2.509   7.631  10.601 -0.3045 -0.0021 -0.1604
30424ION     NA48628   0.019   1.672  13.143 -0.1191 -0.1307  0.0131
30425ION     NA48629  18.234  10.887   5.531  0.1340 -0.0941  0.1009
30426ION     NA48630  11.108  13.180   5.124 -0.2603  0.1695 -0.0338
30427ION     NA48631   7.785  10.089   3.527 -0.2208 -0.1061 -0.3016
30428ION     NA48632  10.609  14.346   4.444  0.1057 -0.1968 -0.0966
30429ION     NA48633  11.245  10.501   2.695 -0.0033 -0.1656 -0.2082
30430ION     NA48634   3.915  13.823   5.186  0.0962 -0.0832  0.2985
30431ION     NA48635  16.275   3.722  10.522 -0.0244  0.2170 -0.0260
30432ION     NA48636   9.435   1.350   5.123  0.3089  0.0218  0.2485
30433ION     NA48637   7.109  13.745   2.759  0.2032  0.0398 -0.0317
30434ION     NA48638   2.571   5.722   5.578  0.1070 -0.0831  0.0490
30435ION     NA48639  15.601  12.968   5.089 -0.2069  0.0248  0.0194
30436ION     NA48640   4.185  11.755   1.438  0.0627  0.1773  0.1784
30437ION     NA48641   7.488   7.876   5.550 -0.0520  0.0629  0.1231
30438ION     NA48642   8.299  13.934   5.560  0.0993  0.1471 -0.0758
30439ION     NA48643  17.866   3.739  12.680  0.3116  0.1686 -0.0148
30440ION     NA48644  11.809   6.322  10.223  0.3294 -0.0878 -0.2465
30441ION     NA48645   4.259   7.075   5.039 -0.0206 -0.2295  0.0637
30442ION     NA48646  11.616   9.941  11.027  0.0629  0.6285 -0.1947
30443ION     NA48647   9.378   0.360   2.552 -0.2652  0.0291 -0.1670
30444ION     NA48648  11.718   0.019   5.287  0.1923  0.0152 -0.1305
30445ION     NA48649  15.811   5.998   5.737 -0.5435 -0.1147 -0.1347
30446ION     NA48650   7.237  15.902   4.988 -0.0062 -0.1181  0.1250
30447ION     NA48651   4.376  17.823   2.975 -0.2902  0.0139  0.0800
30448ION     NA48652  15.275  13.849   5.448  0.1324 -0.0735  0.2202
30449ION     NA48653   4.768   2.271  10.047  0.3092 -0.0300 -0.1012
30450ION     NA48654  16.873  16.115  10.114 -0.1440 -0.2020  0.0921
30451ION     NA48655   0.430   2.038  10.860  0.0463 -0.0400  0.1157
30452ION     NA48656  17.466   1.839  10.656 -0.0005  0.0975  0.2016
30453ION     NA48657   4.456  18.136   9.807 -0.0152  0.0945 -0.0677
30454ION     NA48658   8.564  11.870  11.641 -0.3252 -0.3597 -0.2781
30455ION     NA48659  13.308   8.786   5.770  0.4359 -0.3626  0.1208
30456ION     NA48660  11.429   5.409  10.237  0.1977  0.2443  0.6275
30457ION     NA48661  11.204  17.885   9.987 -0.1874  0.1306  0.1392
30458ION     NA48662  12.216  16.401  13.540 -0.0153 -0.2727  0.0977
30459ION     NA48663  14.149  17.670   5.516  0.0231 -0.1663 -0.1909
30460ION     NA48664  10.868  14.504   5.265 -0.0125 -0.1721  0.2354
30461ION     NA48665  12.329   2.010  13.959 -0.0382 -0.4068  0.0089
30462ION     NA48666   3.018  13.485   9.818  0.3319 -0.2610  0.1292
30463ION     NA48667   6.796  13.528  11.342 -0.1298  0.1474  0.0897
30464ION     NA48668  10.956  14.337  10.185 -0.2520 -0.0923 -0.0534
30465ION     NA48669   0.373  15.790  12.316  0.1045  0.0102 -0.0068
30466ION     NA48670   1.859  17.362  10.456  0.1138  0.1120 -0.0893
30467ION     NA48671  18.039  13.036   5.191  0.1326 -0.2031  0.0827
30468ION     NA48672  12.037  13.037   4.976 -0.1333  0.0327  0.1145
30469ION     NA48673   0.436   3.488   5.662  0.0154 -0.0858  0.1742
30470ION     NA48674  12.168  14.328  14.267  0.1095 -0.4472 -0.2819
30471ION     NA48675   0.365  11.934   1.030  0.0129  0.1206  0.5837
30472ION     NA48676   4.587   2.178   5.212 -0.1501 -0.2648  0.0291
30473ION     NA48677   1.362   2.164   5.514  0.1477 -0.1230 -0.0253
30474ION     NA48678  17.864  18.285   1.388 -0.0207 -0.2287 -0.0549
30475ION     NA48679   7.367   2.556   5.208  0.0916 -0.1585 -0.0650
30476ION     NA48680   5.943   7.282  10.011 -0.1877 -0.1310  0.2317
30477ION     NA48681   8.400  13.458   5.319  0.4320  0.0516 -0.1280
30478ION     NA48682  11.708  14.585   4.133 -0.2464  0.0177  0.0938
30479ION     NA48683   6.128   1.794   5.332 -0.1121 -0.0091 -0.0149
30480ION     NA48684  18.267  16.246  10.608  0.1752 -0.2425 -0.0352
30481ION     NA48685   2.461   3.741  12.127 -0.1103  0.0692 -0.1997
30482ION     NA48686   2.399  16.445  11.217  0.0365  0.1817 -0.1723
30483ION     NA48687  18.287   8.545   4.371 -0.0804 -0.1893 -0.0382
30484ION     NA48688   1.140  16.282  11.385 -0.0920 -0.0303 -0.0914
30485ION     NA48689  17.273  17.957   5.619 -0.0263  0.1245 -0.1508
30486ION     NA48690  15.678  18.403   5.614  0.0638 -0.1774  0.1183
30487ION     NA48691  12.006   7.767  10.714  0.1310  0.3669  0.2801
30488ION     NA48692   0.201  14.511  10.333  0.3112  0.0168  0.1651
30489ION     NA48693   6.714  12.621   5.159 -0.1379  0.0529 -0.2057
30490ION     NA48694   5.244  10.913  10.367  0.0975  0.0515  0.1929
30491ION     NA48695  18.032  18.691   5.697  0.1718  0.2555 -0.0118
30492ION     NA48696   2.522   7.574   5.276  0.2425  0.0364 -0.0157
30493ION     NA48697   2.630   3.757  10.368 -0.1117 -0.0284  0.0677
30494ION     NA48698   0.748  14.239  10.165  0.1318  0.2269 -0.2409
30495ION     NA48699  13.163   1.407   5.115  0.0364  0.0701  0.1378
30496ION     NA48700   0.587  18.370   5.490 -0.1508  0.2438 -0.2109
30497ION     NA48701  16.867   9.403  10.194 -0.2401  0.2526  0.4519
30498ION     NA48702  11.102   2.820   5.051  0.0491  0.4799 -0.0327
30499ION     NA48703  12.927  18.679   5.059 -0.0562  0.2371 -0.2228
30500ION     NA48704   1.028   5.237  10.657  0.0693 -0.1071  0.0297
30501ION     NA48705   0.079   0.836   1.428  0.0840 -0.0598 -0.2471
30502ION     NA48706  10.769  14.870  14.267 -0.1636  0.1591 -0.0745
30503ION     NA48707   8.883   0.966  13.083  0.0035  0.1551  0.0667
30504ION     NA48708  13.515  12.763  10.246 -0.0959 -0.2944 -0.3520
30505ION     NA48709   1.903   5.678  10.471 -0.1249  0.2141 -0.0437
30506ION     NA48710   9.544   4.807  10.094 -0.3800  0.2423  0.3084
30507ION     NA48711  14.449   2.698   5.066  0.0353 -0.1874  0.0230
30508ION     NA48712  15.801   3.118  10.226 -0.2127 -0.0879 -0.0978
30509ION     NA48713   8.311   6.697   5.345 -0.0742 -0.2826  0.0783
30510ION     NA48714  16.569   0.623  10.613 -0.0896  0.1740  0.1499
30511ION     NA48715   5.890  14.586   5.003  0.0056 -0.0514 -0.3422
30512ION     NA48716  10.771   4.415   5.640  0.2677  0.1071 -0.2567
30513ION     NA48717   6.226  11.053  10.364  0.1435 -0.0541 -0.1253
30514ION     NA48718  11.895  11.414   9.810 -0.2698  0.1424 -0.0727
30515ION     NA48719   6.753   9.665   5.478  0.1012 -0.2232 -0.0240
30516ION     NA48720   8.942  17.396   5.146  0.0354  0.1282 -0.2881
30517ION     NA48721   6.615  11.948  10.047  0.2093  0.0068  0.1044
30518ION     NA48722  15.315   2.448   5.381 -0.0437 -0.4436  0.0557
30519ION     NA48723   9.190  11.466   5.465 -0.1725  0.1237  0.0094
30520ION     NA48724   4.461   6.385   9.983  0.1282 -0.0233 -0.1277
30521ION     NA48725   5.110  15.442   4.473  0.1365 -0.2296  0.1473
30522ION     NA48726   9.649  18.016   5.255 -0.0591  0.0913 -0.0928
30523ION     NA48727   4.228   5.563   5.554 -0.0878 -0.2529 -0.3435
30524ION     NA48728  10.879   0.577   5.396  0.0637 -0.0540 -0.0066
30525ION     NA48729  15.822  18.583   1.166 -0.2968 -0.1070  0.3214
30526ION     NA48730  12.383   7.479  12.627  0.2107 -0.1578 -0.1510
30527ION     NA48731   1.416   0.130   5.499  0.2466 -0.0349 -0.1028
30528ION     NA48732  12.817   5.817  10.081 -0.1801 -0.1064 -0.3198
30529ION     NA48733  12.986  17.543  10.177  0.0571  0.2533 -0.1291
30530ION     NA48734  14.701   8.387   5.917 -0.4419 -0.4297 -0.1144
30531ION     NA48735   9.216  11.585  10.161 -0.2369  0.2652 -0.2803
30532ION     NA48736   6.820   7.828  10.313 -0.1531 -0.0175 -0.2328
30533ION     NA48737  14.910  14.669   5.404 -0.1145 -0.0444  0.1477
30534ION     NA48738   0.451  12.642  10.808 -0.0562 -0.1564  0.1608
30535ION     NA48739   2.627   0.087   5.424  0.0779  0.1229 -0.1990
30536ION     NA48740  10.199  10.566   5.523 -0.1645  0.0404 -0.1276
30537ION     NA48741  15.133  10.245  12.030 -0.1584 -0.0930  0.2037
30538ION     NA48742   2.690  10.135   9.783  0.0422  0.1138  0.1569
30539ION     NA48743  17.609   3.306   5.600 -0.0609  0.2239  0.4274
30540ION     NA48744   6.012  14.307   1.633 -0.2504  0.1524  0.0891
30541ION     NA48745  11.211   9.820  10.295  0.2468 -0.2094 -0.0208
30542ION     NA48746  18.546  10.270   5.482  0.1499  0.2127 -0.2861
30543ION     NA48747   2.913   4.097   4.937 -0.1371  0.1230 -0.1083
30544ION     NA48748   6.917  15.783  10.028  0.0101  0.1551  0.3119
30545ION     NA48749   9.834  13.309   5.070 -0.2345  0.1316 -0.1918
30546ION     NA48750   4.415  15.567   5.103  0.2029 -0.1241 -0.2261
30547ION     NA48751   7.635   0.569   5.023 -0.0227  0.1426 -0.5365
30548ION     NA48752  13.362   9.936   0.172 -0.3000  0.6156  0.0995
30549ION     NA48753  11.832  11.587  10.331  0.0422  0.0210  0.0127
30550ION     NA48754   2.414  13.124   5.144  0.0734 -0.1146 -0.3625
30551ION     NA48755  16.555   5.966   1.334 -0.1768  0.1685  0.0258
30552ION     NA48756   0.496  10.954   5.139 -0.0619 -0.0697  0.2043
30553ION     NA48757   9.820  10.416  10.176 -0.0217  0.0560  0.0893
30554ION     NA48758  17.866  15.705   4.935  0.3106 -0.1787  0.4498
30555ION     NA48759  14.901  12.662   5.539  0.0891  0.0591 -0.0995
30556ION     NA48760  14.244   5.285   5.286 -0.0456 -0.0323 -0.0843
30557ION     NA48761   1.041   1.522  13.332 -0.0254  0.2936 -0.2118
30558ION     NA48762  14.650  14.835  14.784 -0.0142  0.1055  0.0123
30559ION     NA48763  11.501  12.277   5.302 -0.0143 -0.1758 -0.5019
30560ION     NA48764  12.848   6.679   5.448  0.0237 -0.1931  0.0788
30561ION     NA48765   7.943  16.897  10.096  0.1204  0.1849  0.2527
30562ION     NA48766  13.857   6.132   5.485  0.2503 -0.0089  0.2909
30563ION     NA48767  12.959   2.001  14.421 -0.3893  0.2102 -0.1275
30564ION     NA48768   8.182  13.997  10.163 -0.0374 -0.3712 -0.0893
30565ION     NA48769  16.411   7.054   4.800 -0.0059  0.4187 -0.2359
30566ION     NA48770  10.427   8.405  10.016  0.0305 -0.0194  0.1202
30567ION     NA48771   8.848   5.671  10.241 -0.1804 -0.1083 -0.1152
30568ION     NA48772  16.532   8.636  10.453 -0.3929  0.1296  0.1246
30569ION     NA48773   3.658   0.832   4.342 -0.0526  0.1985 -0.0593
30570ION     NA48774   3.960   0.522   9.959 -0.2174 -0.1402 -0.1917
30571ION     NA48775  15.894   3.669   5.376  0.4294  0.2670 -0.1076
30572ION     NA48776   6.533  18.667  15.368 -0.0793 -0.3419 -0.1731
30573ION     NA48777   9.321   6.477  10.066  0.0115  0.0839 -0.1583
30574ION     NA48778  10.713   7.051  14.892  0.1667  0.3061 -0.0724
30575ION     NA48779   0.427   5.975   5.616  0.0353 -0.1870 -0.1620
30576ION     NA48780   5.412   2.141   3.152  0.0451 -0.0389 -0.0813
30577ION     NA48781  17.411  13.177  10.274  0.1841 -0.1240 -0.1635
30578ION     NA48782   0.349   4.531   5.628  0.1492  0.3048  0.0504
30579ION     NA48783  11.267   6.405   5.866  0.4736 -0.0413  0.3018
30580ION     NA48784  12.863  18.420  10.121 -0.1385  0.3902  0.0444
30581ION     NA48785   5.434  15.262  14.850 -0.0616  0.0515  0.3894
30582ION     NA48786  18.501  16.389   5.268  0.0356  0.0733  0.0786
30583ION     NA48787   7.055   1.740   3.260  0.1554 -0.2190  0.1764
30584ION     NA48788  11.380  16.396   5.143 -0.1275  0.1730  0.1682
30585ION     NA48789  15.410   8.044  10.315 -0.0200  0.0424 -0.1530
30586ION     NA48790   8.059   2.320   9.825  0.3735 -0.1981  0.2154
30587ION     NA48791  17.957  15.072   4.408 -0.3298 -0.1948 -0.2220
30588ION     NA48792   1.121  10.482   3.929  0.1378 -0.0476 -0.2135
30589ION     NA48793  11.377   5.230   5.737  0.1751  0.0752 -0.1001
30590ION     NA48794   5.136  10.069  10.416  0.0591  0.0400 -0.0070
30591ION     NA48795   0.348  17.357   9.913 -0.0730  0.1486  0.0105
30592ION     NA48796   1.584  17.157   5.326 -0.4228 -0.1431  0.1241
30593ION     NA48797   8.357   4.653   5.127 -0.1919  0.1458 -0.3612
30594ION     NA48798  11.440  15.301  13.694  0.0351  0.1018 -0.2808
30595ION     NA48799  15.235   5.201   5.425  0.3190  0.2103  0.1557
30596ION     NA48800   6.621  15.232   5.104 -0.1531  0.0470 -0.0899
30597ION     NA48801  17.481   2.358   6.032  0.0079  0.2096  0.0207
30598ION     NA48802  18.235   0.162  10.699  0.0063 -0.0319 -0.1446
30599ION     NA48803  10.197   2.188   2.890  0.1359  0.2382  0.1128
30600ION     NA48804  12.594  10.098   5.652  0.0442 -0.0779 -0.1576
30601ION     NA48805  15.680   0.821  10.595 -0.2343  0.0001 -0.2111
30602ION     NA48806   4.211   4.297  11.079 -0.0610 -0.2371 -0.2974
30603ION     NA48807  17.689   9.488   9.840 -0.2125 -0.4782  0.1072
30604ION     NA48808   8.500   1.158  10.102  0.1172 -0.2025  0.0163
30605ION     NA48809   2.197   9.252  10.049  0.0233  0.5142  0.0122
30606ION     NA48810  13.136  16.714  10.092 -0.1740 -0.3439  0.4152
30607ION     NA48811   2.089   5.112  10.460  0.3228 -0.0546 -0.2843
30608ION     NA48812   5.219  13.765   5.062  0.1023  0.3632  0.0419
30609ION     NA48813   5.208   1.883   5.168 -0.0575 -0.3284  0.3300
30610ION     NA48814   9.944   6.981  14.202  0.2723 -0.1630  0.2070
30611ION     NA48815   5.155   6.372   5.250 -0.1333  0.2242 -0.0330
30612ION     NA48816  11.531  14.071   1.387 -0.1150 -0.2793 -0.0657
30613ION     NA48817  16.076   8.298   4.778  0.0707  0.5920  0.3760
30614ION     NA48818  14.362   6.741   5.648 -0.0122 -0.1354  0.0269
30615ION     NA48819  12.933   9.551  10.355 -0.2888  0.1545 -0.3072
30616ION     NA48820   5.326   1.374   9.787 -0.3165  0.1650 -0.3082
30617ION     NA48821   8.248   7.935   5.022  0.0965 -0.0197 -0.0058
30618ION     NA48822  11.543  13.072   1.757 -0.1524  0.1712 -0.1991
30619ION     NA48823  10.484   3.410  10.115  0.0729  0.1152 -0.3325
30620ION     NA48824  14.627  15.530   5.267 -0.0379  0.3636 -0.2729
30621ION     NA48825   8.479  17.676   4.984 -0.0771  0.2567  0.0857
30622ION     NA48826   2.610  11.525   9.855  0.0179 -0.1173  0.0993
30623ION     NA48827  10.715   7.707  10.148 -0.0715 -0.0192  0.0460
30624ION     NA48828  17.973   8.669   9.935  0.2175  0.0276  0.1784
30625ION     NA48829  11.802  16.397   3.823 -0.1566  0.2152 -0.0236
30626ION     NA48830   5.269  10.872   4.719 -0.1011 -0.5758  0.5422
30627ION     NA48831   5.894  13.983  12.351  0.0782 -0.3506 -0.2399
30628ION     NA48832  17.792  16.909  10.190  0.0220 -0.1244 -0.1200
30629ION     NA48833   3.014   5.435   2.513  0.0092 -0.0381  0.0968
30630ION     NA48834   3.301   6.840  10.148  0.0389 -0.1047  0.1966
30631ION     NA48835   5.629  12.199  14.256  0.3048 -0.0073  0.0861
30632ION     NA48836   6.631  11.493  14.249 -0.1623  0.0704 -0.1507
30633ION     NA48837  10.747  10.557  10.291  0.0262 -0.3357  0.0324
30634ION     NA48838   1.414  16.222   5.352  0.1261 -0.2414  0.0519
30635ION     NA48839  17.446   2.633  10.405 -0.1195  0.1193 -0.2359
30636ION     NA48840  12.340   8.868   5.598 -0.1076  0.0153 -0.3816
30637ION     NA48841  16.528  12.967   1.715  0.0775  0.1400  0.7066
30638ION     NA48842  14.151  13.037   5.412  0.0179  0.0891 -0.0389
30639ION     NA48843   9.544   9.656   5.507  0.1907  0.0099  0.3146
30640ION     NA48844  13.404   2.639  15.195 -0.2903 -0.0157 -0.1872
30641ION     NA48845  13.745   5.815  10.442  0.0132 -0.1799 -0.0296
30642ION     NA48846  16.547   1.041  10.182  0.1359 -0.1997  0.0299
30643ION     NA48847  11.647   1.128  10.067  0.1323  0.1535 -0.3664
30644ION     NA48848   4.361   4.030   9.984  0.0228 -0.0080  0.1168
30645ION     NA48849   3.851  14.157  13.177 -0.0163 -0.1659 -0.0618
30646ION     NA48850  12.270   3.838  11.510  0.2026  0.0359  0.0131
30647ION     NA48851   1.736   2.297  10.536  0.0041  0.1338 -0.4899
30648ION     NA48852  13.554  15.424   5.180  0.2681 -0.0987 -0.0637
30649ION     NA48853  12.152   6.131   5.766 -0.1512  0.3507  0.0001
30650ION     NA48854   5.747  18.221   4.731 -0.1524 -0.4360  0.0167
  18.69541  18.69541  15.46845
